 Gaussian 16, Revision A.03,
 Gaussian 16:  ES64L-G16RevA.03 25-Dec-2016

 ----------------------------------------------------------------------
 # wB97XD def2tzvp, opt=(ts, noeigen, calcfc, maxcycles=70, maxstep=3),
  freq=noraman, scrf=(iefpcm, solvent=water)
 ----------------------------------------------------------------------

 ------------------------
 3_iteration/TS-420-3.out
 ------------------------
 Symbolic Z-matrix:
 Charge =  0 Multiplicity = 1

 SCF Done:  E(RwB97XD) =  -712.028862677     A.U. after   14 cycles
 Optimization completed.
    -- Stationary point found.
 Normal termination of Gaussian 16 at Sun Feb 14 22:03:00 2021.

 ---------------------------------------------------------------------
 #N Geom=AllCheck Guess=TCheck SCRF=Check GenChk RwB97XD/def2TZVP Freq
 ---------------------------------------------------------------------

 Structure from the checkpoint file:  "/beegfs/scratch/user/q/tla25/Gau-27294.chk"
 ------------------------
 3_iteration/TS-420-3.out
 ------------------------
 Charge =  0 Multiplicity = 1

                         Standard orientation:
 ---------------------------------------------------------------------
 Center     Atomic      Atomic             Coordinates (Angstroms)
 Number     Number       Type             X           Y           Z
 ---------------------------------------------------------------------
      1          6           0        1.153370    0.271030    0.764600
      2          6           0        1.578259   -0.742510   -0.127570
      3          8           0        1.035599   -1.046320   -1.199890
      4          6           0       -0.076720    0.924821    0.482270
      5          6           0        1.359140    2.526240   -1.357640
      6          1           0        1.690560    2.650640   -2.389120
      7          1           0        1.158381    3.505270   -0.926900
      8          1           0        2.153400    2.038850   -0.791110
      9          7           0        0.166930    1.695900   -1.272560
     10          1           0       -0.644260    2.161291   -1.657500
     11          1           0        0.305070    0.805200   -1.748200
     12          6           0       -0.385460    2.153291    1.308190
     13          1           0       -0.623150    1.843721    2.328260
     14          1           0        0.464681    2.832180    1.353570
     15          1           0       -1.247540    2.689901    0.916130
     16          6           0       -1.325370    0.109961    0.206830
     17          6           0       -2.452110    0.659781   -0.403460
     18          6           0       -3.616211   -0.076378   -0.563490
     19          6           0       -3.686351   -1.380528   -0.098160
     20          6           0       -2.582961   -1.933079    0.535020
     21          6           0       -1.420981   -1.193489    0.688330
     22          1           0       -2.445180    1.683001   -0.757030
     23          1           0       -4.472110    0.376332   -1.048090
     24          1           0       -4.595131   -1.956428   -0.218920
     25          1           0       -2.625902   -2.945699    0.916530
     26          1           0       -0.568461   -1.626539    1.193680
     27          6           0        2.077160    0.787980    1.842760
     28          1           0        1.549780    0.971550    2.782420
     29          1           0        2.855020    0.056349    2.049820
     30          1           0        2.581940    1.725070    1.576840
     31          8           0        2.723089   -1.386331    0.243140
     32          6           0        3.229089   -2.345961   -0.668290
     33          1           0        3.444039   -1.896841   -1.639060
     34          1           0        4.149038   -2.722191   -0.225560
     35          1           0        2.526688   -3.168710   -0.810220
 ---------------------------------------------------------------------

 SCF Done:  E(RwB97XD) =  -712.028862677     A.U. after    1 cycles

 The electronic state is 1-A.
 Alpha  occ. eigenvalues --  -19.27048 -19.20064 -14.47093 -10.37949 -10.34821
 Alpha  occ. eigenvalues --  -10.32097 -10.31105 -10.30122 -10.29161 -10.28982
 Alpha  occ. eigenvalues --  -10.28885 -10.28807 -10.28633 -10.27949 -10.26351
 Alpha  occ. eigenvalues --  -10.24670  -1.18120  -1.08406  -1.02953  -0.96933
 Alpha  occ. eigenvalues --   -0.91670  -0.85860  -0.84989  -0.82873  -0.79436
 Alpha  occ. eigenvalues --   -0.78327  -0.75820  -0.70743  -0.70113  -0.66779
 Alpha  occ. eigenvalues --   -0.63406  -0.61718  -0.60976  -0.57610  -0.56811
 Alpha  occ. eigenvalues --   -0.55698  -0.54999  -0.54842  -0.53609  -0.53139
 Alpha  occ. eigenvalues --   -0.51153  -0.50842  -0.49648  -0.49203  -0.48027
 Alpha  occ. eigenvalues --   -0.47403  -0.46674  -0.45972  -0.45892  -0.45371
 Alpha  occ. eigenvalues --   -0.44676  -0.42698  -0.42344  -0.41375  -0.40307
 Alpha  occ. eigenvalues --   -0.37229  -0.34767  -0.33630  -0.32394  -0.25591
 Alpha virt. eigenvalues --    0.03319   0.05486   0.08337   0.10252   0.12537
 Alpha virt. eigenvalues --    0.13218   0.13831   0.15343   0.16088   0.16416
 Alpha virt. eigenvalues --    0.16454   0.16891   0.17882   0.18226   0.18560

 Mulliken charges:
               1
     1  C   -0.385133
     2  C    0.464596
     3  O   -0.575827
     4  C    0.308982
     5  C   -0.313084
     6  H    0.152600
     7  H    0.156615
     8  H    0.154710
     9  N   -0.315388
    10  H    0.262766
    11  H    0.274931
    12  C   -0.400243
    13  H    0.157018
    14  H    0.146118
    15  H    0.145472
    16  C    0.201717
    17  C   -0.277825
    18  C   -0.176102
    19  C   -0.141936
    20  C   -0.151956
    21  C   -0.222262
    22  H    0.150273
    23  H    0.141051
    24  H    0.142942
    25  H    0.139894
    26  H    0.154399
    27  C   -0.416932
    28  H    0.118671
    29  H    0.135228
    30  H    0.114653
    31  O   -0.325383
    32  C   -0.190234
    33  H    0.118338
    34  H    0.132486
    35  H    0.118846
 Sum of Mulliken charges =  -0.00000

 Dipole moment (field-independent basis, Debye):
    X=             -1.5925    Y=              5.2982    Z=             -1.4946  Tot=              5.7307
 Quadrupole moment (field-independent basis, Debye-Ang):
   XX=            -91.1287   YY=            -82.6791   ZZ=            -97.5527
   XY=             -0.2742   XZ=             -0.3421   YZ=             -8.3223

  Exact polarizability: 259.323  -4.637 248.192  17.208 -12.215 197.873
 Approx polarizability: 200.196  -3.682 200.217  15.876 -11.202 170.213

 ******    1 imaginary frequencies (negative Signs) ******

                      1                      2                      3
                      A                      A                      A
 Frequencies --   -393.8751                53.1012                61.8652
 Red. masses --      5.2605                 3.7672                 3.5862
 Frc consts  --      0.4808                 0.0063                 0.0081
 IR Inten    --    592.8850                 0.4646                 1.7526

                      4                      5                      6
                      A                      A                      A
 Frequencies --     80.8706                99.5039               110.9335
 Red. masses --      2.9655                 2.4827                 2.0965
 Frc consts  --      0.0114                 0.0145                 0.0152
 IR Inten    --      2.1353                 1.7759                 7.9908

                      7                      8                      9
                      A                      A                      A
 Frequencies --    114.7953               134.3441               151.3838
 Red. masses --      1.7955                 1.6395                 3.7703
 Frc consts  --      0.0139                 0.0174                 0.0509
 IR Inten    --      4.2833                 8.9298                12.1079

                     10                     11                     12
                      A                      A                      A
 Frequencies --    170.9338               183.8397               203.4346
 Red. masses --      1.9528                 1.7569                 2.0722
 Frc consts  --      0.0336                 0.0350                 0.0505
 IR Inten    --     10.7437                 4.3840                 3.9903

                     13                     14                     15
                      A                      A                      A
 Frequencies --    221.2875               268.6979               281.6779
 Red. masses --      1.5684                 2.3895                 2.3681
 Frc consts  --      0.0452                 0.1016                 0.1107
 IR Inten    --      2.8205                17.3220                 3.3591

                     16                     17                     18
                      A                      A                      A
 Frequencies --    294.6165               310.1762               322.3917
 Red. masses --      2.7377                 1.5243                 3.6124
 Frc consts  --      0.1400                 0.0864                 0.2212
 IR Inten    --     15.3960                 0.6021                 9.6269

                     19                     20                     21
                      A                      A                      A
 Frequencies --    362.4531               366.7020               384.0128
 Red. masses --      3.3968                 2.9058                 4.3607
 Frc consts  --      0.2629                 0.2302                 0.3789
 IR Inten    --      5.7132                 5.5971                38.1536

                     22                     23                     24
                      A                      A                      A
 Frequencies --    427.1417               432.7689               544.3070
 Red. masses --      3.3613                 3.4530                 4.3528
 Frc consts  --      0.3613                 0.3810                 0.7598
 IR Inten    --      3.5511                 2.5353                54.2121

                     25                     26                     27
                      A                      A                      A
 Frequencies --    566.9902               593.4669               639.2986
 Red. masses --      3.2630                 3.1564                 6.3029
 Frc consts  --      0.6180                 0.6550                 1.5178
 IR Inten    --      5.4833                79.4805                 0.3086

                     28                     29                     30
                      A                      A                      A
 Frequencies --    658.0523               702.3136               730.0879
 Red. masses --      4.4353                 1.5891                 1.6697
 Frc consts  --      1.1316                 0.4618                 0.5244
 IR Inten    --     21.6885                84.4066                76.8634

                     31                     32                     33
                      A                      A                      A
 Frequencies --    756.9033               795.0015               802.0980
 Red. masses --      3.2969                 2.3292                 5.7138
 Frc consts  --      1.1128                 0.8674                 2.1658
 IR Inten    --     13.9291                56.4030                58.3920

                     34                     35                     36
                      A                      A                      A
 Frequencies --    842.4788               882.2353               956.4036
 Red. masses --      3.7161                 1.2426                 2.0400
 Frc consts  --      1.5540                 0.5698                 1.0994
 IR Inten    --     48.2737                 0.7976                22.1838

                     37                     38                     39
                      A                      A                      A
 Frequencies --    965.6249              1003.3556              1021.8896
 Red. masses --      1.5628                 1.1535                 1.5705
 Frc consts  --      0.8586                 0.6842                 0.9662
 IR Inten    --     22.5711                49.6951                 3.0467

                     40                     41                     42
                      A                      A                      A
 Frequencies --   1026.9275              1029.0568              1033.5497
 Red. masses --      3.1957                 1.5009                 1.5327
 Frc consts  --      1.9856                 0.9365                 0.9647
 IR Inten    --     10.6849                33.7244                34.5085

                     43                     44                     45
                      A                      A                      A
 Frequencies --   1046.7991              1061.0746              1065.5420
 Red. masses --      1.5704                 2.0694                 1.3217
 Frc consts  --      1.0139                 1.3727                 0.8842
 IR Inten    --     63.5513                31.9270                74.1498

                     46                     47                     48
                      A                      A                      A
 Frequencies --   1073.6716              1091.3273              1101.9987
 Red. masses --      1.4559                 3.1212                 1.9817
 Frc consts  --      0.9889                 2.1902                 1.4179
 IR Inten    --     27.3501                 9.7022                19.3500

                     49                     50                     51
                      A                      A                      A
 Frequencies --   1120.4970              1139.2906              1181.8752
 Red. masses --      1.9084                 3.0440                 1.2848
 Frc consts  --      1.4117                 2.3279                 1.0574
 IR Inten    --     83.3675               283.1409                 2.0857

                     52                     53                     54
                      A                      A                      A
 Frequencies --   1183.0026              1189.7304              1213.1239
 Red. masses --      1.1379                 3.0618                 1.2626
 Frc consts  --      0.9383                 2.5534                 1.0948
 IR Inten    --      2.9448               155.6795                19.5448

                     55                     56                     57
                      A                      A                      A
 Frequencies --   1215.0994              1224.1995              1260.7727
 Red. masses --      1.6677                 1.3002                 4.3903
 Frc consts  --      1.4508                 1.1480                 4.1117
 IR Inten    --    223.4020                30.2546               147.2681

                     58                     59                     60
                      A                      A                      A
 Frequencies --   1322.4259              1353.4759              1365.8882
 Red. masses --      4.4217                 1.4346                 4.1531
 Frc consts  --      4.5560                 1.5484                 4.5651
 IR Inten    --      6.7782                11.6281               296.2673

                     61                     62                     63
                      A                      A                      A
 Frequencies --   1371.1134              1401.8961              1412.2254
 Red. masses --      1.4085                 2.2616                 1.3378
 Frc consts  --      1.5601                 2.6188                 1.5720
 IR Inten    --     41.0868               317.2350                47.8399

                     64                     65                     66
                      A                      A                      A
 Frequencies --   1421.7245              1454.8477              1478.9432
 Red. masses --      1.4088                 1.2070                 1.1511
 Frc consts  --      1.6778                 1.5052                 1.4834
 IR Inten    --    157.6181                10.7448                58.2535

                     67                     68                     69
                      A                      A                      A
 Frequencies --   1480.8623              1481.7774              1489.6782
 Red. masses --      1.0691                 1.1530                 1.5027
 Frc consts  --      1.3813                 1.4915                 1.9648
 IR Inten    --     15.9240                13.6217                 1.6431

                     70                     71                     72
                      A                      A                      A
 Frequencies --   1492.5204              1494.9949              1499.8659
 Red. masses --      1.0939                 1.2399                 1.0915
 Frc consts  --      1.4357                 1.6327                 1.4467
 IR Inten    --     27.7079               126.9582                 5.5371

                     73                     74                     75
                      A                      A                      A
 Frequencies --   1502.2435              1505.9774              1509.2591
 Red. masses --      1.0693                 1.1088                 1.0405
 Frc consts  --      1.4218                 1.4816                 1.3964
 IR Inten    --     28.8132                55.2751                 9.3280

                     76                     77                     78
                      A                      A                      A
 Frequencies --   1544.3000              1624.1805              1650.7907
 Red. masses --      2.2232                 2.1531                 3.6928
 Frc consts  --      3.1238                 3.3464                 5.9290
 IR Inten    --     18.0697               482.9338                 9.4132

                     79                     80                     81
                      A                      A                      A
 Frequencies --   1659.5965              1674.4486              3004.1977
 Red. masses --      2.1649                 5.9202                 1.0549
 Frc consts  --      3.5130                 9.7798                 5.6096
 IR Inten    --    167.7394                 4.2563               125.8641

                     82                     83                     84
                      A                      A                      A
 Frequencies --   3053.0826              3063.6473              3066.0916
 Red. masses --      1.0311                 1.0334                 1.0394
 Frc consts  --      5.6628                 5.7145                 5.7568
 IR Inten    --     76.4450                57.3659                15.7040

                     85                     86                     87
                      A                      A                      A
 Frequencies --   3069.7648              3123.8856              3136.2921
 Red. masses --      1.0862                 1.1061                 1.1036
 Frc consts  --      6.0309                 6.3595                 6.3957
 IR Inten    --     68.5251                48.4998                14.4490

                     88                     89                     90
                      A                      A                      A
 Frequencies --   3138.3845              3151.6690              3158.5937
 Red. masses --      1.0980                 1.0940                 1.1046
 Frc consts  --      6.3718                 6.4024                 6.4929
 IR Inten    --     19.2021                23.5661                33.9817

                     91                     92                     93
                      A                      A                      A
 Frequencies --   3159.7505              3163.3478              3193.0939
 Red. masses --      1.1048                 1.1039                 1.0855
 Frc consts  --      6.4991                 6.5084                 6.5207
 IR Inten    --     21.9803                21.2721                 2.7800

                     94                     95                     96
                      A                      A                      A
 Frequencies --   3199.9147              3209.3585              3218.6433
 Red. masses --      1.0883                 1.0923                 1.0949
 Frc consts  --      6.5659                 6.6287                 6.6829
 IR Inten    --      4.5007                34.3724                29.1084

                     97                     98                     99
                      A                      A                      A
 Frequencies --   3224.5204              3443.5979              3599.9685
 Red. masses --      1.0966                 1.0622                 1.0864
 Frc consts  --      6.7178                 7.4213                 8.2957
 IR Inten    --     11.0179                81.6952                62.1282

 - Thermochemistry -
 -------------------
 Temperature   298.150 Kelvin.  Pressure   1.00000 Atm.
 Atom     1 has atomic number  6 and mass  12.00000

 Molecular mass:   221.14158 amu.
 Principal axes and moments of inertia in atomic units:
                           1         2         3
     Eigenvalues --  2490.058394370.561365402.53313
           X            1.00000   0.00176   0.00224
           Y           -0.00177   1.00000   0.00139
           Z           -0.00224  -0.00139   1.00000
 This molecule is an asymmetric top.
 Rotational symmetry number  1.
 Warning -- assumption of classical behavior for rotation
           may cause significant error
 Rotational temperatures (Kelvin)      0.03478     0.01982     0.01603
 Rotational constants (GHZ):           0.72478     0.41293     0.33405
    1 imaginary frequencies ignored.
 Zero-point vibrational energy     791484.2 (Joules/Mol)
                                  189.16925 (Kcal/Mol)
 Warning -- explicit consideration of  25 degrees of freedom as
           vibrations may cause significant error
 Vibrational temperatures:     76.40    89.01   116.35   143.16   159.61
          (Kelvin)            165.16   193.29   217.81   245.94   264.50
                              292.70   318.38   386.60   405.27   423.89
                              446.27   463.85   521.49   527.60   552.51
                              614.56   622.66   783.14   815.77   853.87
                              919.81   946.79  1010.47  1050.43  1089.02
                             1143.83  1154.04  1212.14  1269.34  1376.05
                             1389.32  1443.60  1470.27  1477.52  1480.58
                             1487.05  1506.11  1526.65  1533.08  1544.77
                             1570.18  1585.53  1612.15  1639.19  1700.45
                             1702.08  1711.76  1745.41  1748.26  1761.35
                             1813.97  1902.68  1947.35  1965.21  1972.73
                             2017.02  2031.88  2045.54  2093.20  2127.87
                             2130.63  2131.95  2143.31  2147.40  2150.96
                             2157.97  2161.39  2166.77  2171.49  2221.90
                             2336.83  2375.12  2387.79  2409.16  4322.37
                             4392.70  4407.91  4411.42  4416.71  4494.57
                             4512.42  4515.44  4534.55  4544.51  4546.18
                             4551.35  4594.15  4603.96  4617.55  4630.91
                             4639.37  4954.57  5179.55

 Zero-point correction=                           0.301460 (Hartree/Particle)
 Thermal correction to Energy=                    0.318260
 Thermal correction to Enthalpy=                  0.319204
 Thermal correction to Gibbs Free Energy=         0.257686
 Sum of electronic and zero-point Energies=           -711.727402
 Sum of electronic and thermal Energies=              -711.710603
 Sum of electronic and thermal Enthalpies=            -711.709658
 Sum of electronic and thermal Free Energies=         -711.771176

                     E (Thermal)             CV                S
                      KCal/Mol        Cal/Mol-Kelvin    Cal/Mol-Kelvin
 Total                  199.711             62.847            129.476
 Electronic               0.000              0.000              0.000
 Translational            0.889              2.981             42.084
 Rotational               0.889              2.981             32.442
 Vibrational            197.934             56.886             54.950
 Vibration     1          0.596              1.976              4.698
 Vibration     2          0.597              1.973              4.397
 Vibration     3          0.600              1.962              3.870
 Vibration     4          0.604              1.949              3.464
 Vibration     5          0.607              1.940              3.253
 Vibration     6          0.608              1.937              3.186
 Vibration     7          0.613              1.919              2.883
 Vibration     8          0.619              1.901              2.655
 Vibration     9          0.626              1.878              2.425
 Vibration    10          0.631              1.862              2.289
 Vibration    11          0.639              1.835              2.102
 Vibration    12          0.648              1.809              1.949
 Vibration    13          0.673              1.731              1.605
 Vibration    14          0.681              1.708              1.523
 Vibration    15          0.689              1.684              1.447
 Vibration    16          0.699              1.654              1.361
 Vibration    17          0.707              1.631              1.298
 Vibration    18          0.736              1.550              1.112
 Vibration    19          0.740              1.541              1.094
 Vibration    20          0.753              1.504              1.023
 Vibration    21          0.789              1.411              0.868
 Vibration    22          0.794              1.399              0.850
 Vibration    23          0.899              1.152              0.556
 Vibration    24          0.923              1.103              0.510
 Vibration    25          0.951              1.046              0.461

 Optimization completed.
    -- Stationary point found.
 Normal termination of Gaussian 16 at Sun Feb 14 23:31:23 2021.
