 Gaussian 16, Revision A.03,
 Gaussian 16:  ES64L-G16RevA.03 25-Dec-2016

 ----------------------------------------------------------------------
 # wB97XD def2tzvp, opt=(ts, noeigen, calcfc, maxcycles=70, maxstep=5),
  freq=noraman, scrf=(iefpcm, solvent=water)
 ----------------------------------------------------------------------

 ------------------------
 2_iteration/TS-419-2.out
 ------------------------
 Symbolic Z-matrix:
 Charge =  0 Multiplicity = 1

 SCF Done:  E(RwB97XD) =  -652.854647499     A.U. after   15 cycles
 SCF Done:  E(RwB97XD) =  -652.854647523     A.U. after    7 cycles
 Optimization completed.
    -- Stationary point found.
 Normal termination of Gaussian 16 at Wed Mar 31 06:40:58 2021.

 ---------------------------------------------------------------------
 #N Geom=AllCheck Guess=TCheck SCRF=Check GenChk RwB97XD/def2TZVP Freq
 ---------------------------------------------------------------------

 Structure from the checkpoint file:  "/beegfs/scratch/user/q/tla25/Gau-43468.chk"
 ------------------------
 2_iteration/TS-419-2.out
 ------------------------
 Charge =  0 Multiplicity = 1

                         Standard orientation:
 ---------------------------------------------------------------------
 Center     Atomic      Atomic             Coordinates (Angstroms)
 Number     Number       Type             X           Y           Z
 ---------------------------------------------------------------------
      1          6           0        1.396496   -0.378627    0.562667
      2          6           0        1.507020   -1.259319   -0.547652
      3          8           0        0.852123   -1.145208   -1.614517
      4          6           0        0.367520    0.602114    0.537301
      5          6           0        2.056107    2.187867   -1.049032
      6          1           0        2.726212    1.479150   -0.558437
      7          1           0        2.416494    2.364506   -2.062981
      8          1           0        2.060862    3.127593   -0.500130
      9          7           0        0.718439    1.617399   -1.045190
     10          1           0        0.016158    2.297269   -1.304251
     11          1           0        0.656944    0.802562   -1.661193
     12          6           0        0.397169    1.682361    1.598104
     13          1           0        0.158210    1.243384    2.568808
     14          1           0        1.375521    2.154785    1.669736
     15          1           0       -0.345043    2.451327    1.391514
     16          6           0       -1.059425    0.174610    0.238632
     17          6           0       -2.041292    1.078462   -0.165627
     18          6           0       -3.357968    0.681015   -0.343051
     19          6           0       -3.729165   -0.632716   -0.100542
     20          6           0       -2.769915   -1.537677    0.329229
     21          6           0       -1.454768   -1.134822    0.500205
     22          1           0       -1.797506    2.119116   -0.338267
     23          1           0       -4.095643    1.405080   -0.665612
     24          1           0       -4.757024   -0.944944   -0.235520
     25          1           0       -3.045586   -2.564375    0.536279
     26          1           0       -0.712709   -1.842880    0.843760
     27          6           0        2.474560   -0.412344    1.620939
     28          1           0        2.363254    0.389107    2.347803
     29          1           0        2.452827   -1.343822    2.201111
     30          1           0        3.484596   -0.327175    1.203802
     31          7           0        2.473145   -2.248491   -0.496763
     32          1           0        2.772063   -2.588217    0.401035
     33          1           0        2.394272   -2.948701   -1.214684
 ---------------------------------------------------------------------

 SCF Done:  E(RwB97XD) =  -652.854647523     A.U. after    1 cycles

 The electronic state is 1-A.
 Alpha  occ. eigenvalues --  -19.18779 -14.46790 -14.42536 -10.35759 -10.34623
 Alpha  occ. eigenvalues --  -10.30952 -10.29965 -10.29035 -10.28902 -10.28793
 Alpha  occ. eigenvalues --  -10.28722 -10.28484 -10.27873 -10.26688 -10.24137
 Alpha  occ. eigenvalues --   -1.10717  -1.02769  -0.97765  -0.96773  -0.91146
 Alpha  occ. eigenvalues --   -0.85220  -0.84679  -0.81863  -0.78193  -0.75900
 Alpha  occ. eigenvalues --   -0.71211  -0.70128  -0.67657  -0.63298  -0.61636
 Alpha  occ. eigenvalues --   -0.61361  -0.58526  -0.56752  -0.55430  -0.54658
 Alpha  occ. eigenvalues --   -0.53484  -0.53098  -0.51651  -0.50704  -0.49602
 Alpha  occ. eigenvalues --   -0.48946  -0.48272  -0.47624  -0.46498  -0.45810
 Alpha  occ. eigenvalues --   -0.45626  -0.45156  -0.44628  -0.42361  -0.41680
 Alpha  occ. eigenvalues --   -0.40204  -0.34960  -0.33567  -0.33231  -0.31779
 Alpha  occ. eigenvalues --   -0.25082
 Alpha virt. eigenvalues --    0.03667   0.05574   0.08682   0.10207   0.12104
 Alpha virt. eigenvalues --    0.13557   0.14313   0.15190   0.16141   0.16418
 Alpha virt. eigenvalues --    0.16637   0.17084   0.18183   0.18802   0.19028

 Mulliken charges:
               1
     1  C   -0.358049
     2  C    0.330507
     3  O   -0.611647
     4  C    0.321941
     5  C   -0.311946
     6  H    0.153527
     7  H    0.150684
     8  H    0.155617
     9  N   -0.302441
    10  H    0.259027
    11  H    0.272165
    12  C   -0.419956
    13  H    0.158151
    14  H    0.148174
    15  H    0.145408
    16  C    0.196938
    17  C   -0.283441
    18  C   -0.174609
    19  C   -0.145193
    20  C   -0.148564
    21  C   -0.230697
    22  H    0.149984
    23  H    0.140382
    24  H    0.142198
    25  H    0.139124
    26  H    0.155436
    27  C   -0.438458
    28  H    0.132847
    29  H    0.123161
    30  H    0.124098
    31  N   -0.486309
    32  H    0.261431
    33  H    0.250511
 Sum of Mulliken charges =  -0.00000

 Dipole moment (field-independent basis, Debye):
    X=              0.3930    Y=              4.4564    Z=              1.8292  Tot=              4.8332
 Quadrupole moment (field-independent basis, Debye-Ang):
   XX=            -85.6119   YY=            -73.6049   ZZ=            -96.3065
   XY=             -0.0951   XZ=              3.1065   YZ=             -8.8752

  Exact polarizability: 250.364 -11.369 244.925  12.006  -9.856 182.644
 Approx polarizability: 192.655  -7.650 199.131  11.081  -9.552 156.983

 ******    1 imaginary frequencies (negative Signs) ******

                      1                      2                      3
                      A                      A                      A
 Frequencies --   -413.5661                56.1982                76.4036
 Red. masses --      4.9339                 3.8322                 2.8430
 Frc consts  --      0.4972                 0.0071                 0.0098
 IR Inten    --    642.6626                 0.8728                 2.7953

                      4                      5                      6
                      A                      A                      A
 Frequencies --     89.5795               104.1654               133.7411
 Red. masses --      3.7946                 3.1536                 2.4130
 Frc consts  --      0.0179                 0.0202                 0.0254
 IR Inten    --      4.8371                 7.4856                 7.9749

                      7                      8                      9
                      A                      A                      A
 Frequencies --    142.4526               159.1664               184.7193
 Red. masses --      1.4831                 2.5395                 1.6916
 Frc consts  --      0.0177                 0.0379                 0.0340
 IR Inten    --      3.3975                13.8093                20.1182

                     10                     11                     12
                      A                      A                      A
 Frequencies --    219.2648               232.8146               287.1269
 Red. masses --      2.5368                 2.0597                 2.4815
 Frc consts  --      0.0719                 0.0658                 0.1205
 IR Inten    --      1.8990                30.2786                 6.7523

                     13                     14                     15
                      A                      A                      A
 Frequencies --    289.6572               313.6995               320.5756
 Red. masses --      2.9039                 1.3721                 3.3328
 Frc consts  --      0.1435                 0.0796                 0.2018
 IR Inten    --      1.6641                 1.5232                31.2885

                     16                     17                     18
                      A                      A                      A
 Frequencies --    359.7535               369.7858               382.9776
 Red. masses --      3.4138                 3.1037                 2.2989
 Frc consts  --      0.2603                 0.2501                 0.1987
 IR Inten    --     16.4118                19.4156                 3.3590

                     19                     20                     21
                      A                      A                      A
 Frequencies --    426.0734               430.9953               433.0254
 Red. masses --      3.1936                 3.1239                 1.3322
 Frc consts  --      0.3416                 0.3419                 0.1472
 IR Inten    --      7.3919                13.7931               384.2458

                     22                     23                     24
                      A                      A                      A
 Frequencies --    487.4163               549.6682               560.7371
 Red. masses --      1.1608                 3.3479                 3.2300
 Frc consts  --      0.1625                 0.5960                 0.5984
 IR Inten    --     50.4687                57.0031                28.5554

                     25                     26                     27
                      A                      A                      A
 Frequencies --    594.3848               620.5237               639.7141
 Red. masses --      3.1790                 4.0736                 6.3211
 Frc consts  --      0.6617                 0.9242                 1.5241
 IR Inten    --     68.6236                12.5305                 1.4123

                     28                     29                     30
                      A                      A                      A
 Frequencies --    705.4566               726.6708               728.9881
 Red. masses --      4.0395                 1.4823                 1.6297
 Frc consts  --      1.1845                 0.4612                 0.5103
 IR Inten    --     26.1172               103.6409                20.9221

                     31                     32                     33
                      A                      A                      A
 Frequencies --    793.2894               801.8710               849.2884
 Red. masses --      2.3233                 5.0896                 2.6765
 Frc consts  --      0.8614                 1.9282                 1.1375
 IR Inten    --     71.2465                52.1472                 8.8439

                     34                     35                     36
                      A                      A                      A
 Frequencies --    878.3201               957.6536               973.1007
 Red. masses --      1.2451                 1.4177                 1.7595
 Frc consts  --      0.5659                 0.7660                 0.9817
 IR Inten    --      0.3752                15.4079                69.0293

                     37                     38                     39
                      A                      A                      A
 Frequencies --    998.1131              1017.4273              1026.0567
 Red. masses --      1.1302                 1.3938                 4.6439
 Frc consts  --      0.6634                 0.8501                 2.8805
 IR Inten    --     61.6577                 7.1440                 4.3076

                     40                     41                     42
                      A                      A                      A
 Frequencies --   1028.9912              1045.9285              1058.1969
 Red. masses --      1.3131                 1.4855                 2.0308
 Frc consts  --      0.8192                 0.9575                 1.3398
 IR Inten    --      1.4262                70.4410                19.2768

                     43                     44                     45
                      A                      A                      A
 Frequencies --   1063.7647              1074.8399              1087.4948
 Red. masses --      1.6903                 1.4148                 1.6819
 Frc consts  --      1.1270                 0.9630                 1.1719
 IR Inten    --     55.4179                20.2899                94.6588

                     46                     47                     48
                      A                      A                      A
 Frequencies --   1092.9507              1105.0920              1118.3348
 Red. masses --      2.4051                 2.0982                 1.6476
 Frc consts  --      1.6927                 1.5097                 1.2141
 IR Inten    --      8.5998                31.8234                63.9889

                     49                     50                     51
                      A                      A                      A
 Frequencies --   1140.0498              1182.8448              1205.3324
 Red. masses --      1.7554                 1.1246                 2.3419
 Frc consts  --      1.3443                 0.9270                 2.0046
 IR Inten    --     28.0462                 0.1108                33.4854

                     52                     53                     54
                      A                      A                      A
 Frequencies --   1215.6134              1223.0699              1272.4242
 Red. masses --      1.4240                 1.4222                 3.7793
 Frc consts  --      1.2398                 1.2535                 3.6051
 IR Inten    --      7.3435                44.9882                47.5993

                     55                     56                     57
                      A                      A                      A
 Frequencies --   1322.3801              1351.3491              1364.2013
 Red. masses --      4.4190                 1.4149                 1.3987
 Frc consts  --      4.5529                 1.5223                 1.5336
 IR Inten    --      2.0561                16.5070                 4.8081

                     58                     59                     60
                      A                      A                      A
 Frequencies --   1392.1569              1408.3786              1418.5909
 Red. masses --      3.9321                 1.9009                 1.5321
 Frc consts  --      4.4900                 2.2215                 1.8166
 IR Inten    --     77.5696               452.4160               163.0073

                     61                     62                     63
                      A                      A                      A
 Frequencies --   1425.5645              1458.1492              1482.5873
 Red. masses --      1.4824                 1.2025                 1.1432
 Frc consts  --      1.7750                 1.5064                 1.4805
 IR Inten    --    304.5115                19.6644                13.0236

                     64                     65                     66
                      A                      A                      A
 Frequencies --   1488.3980              1491.3672              1495.4203
 Red. masses --      1.2359                 1.5459                 1.0650
 Frc consts  --      1.6131                 2.0258                 1.4033
 IR Inten    --     38.7371                48.3035                25.8160

                     67                     68                     69
                      A                      A                      A
 Frequencies --   1501.0397              1510.5157              1517.5354
 Red. masses --      1.1230                 1.0371                 1.0707
 Frc consts  --      1.4908                 1.3942                 1.4528
 IR Inten    --     51.5014                44.2524                58.3948

                     70                     71                     72
                      A                      A                      A
 Frequencies --   1542.2348              1594.5463              1629.5437
 Red. masses --      2.2296                 3.4951                 1.2634
 Frc consts  --      3.1245                 5.2359                 1.9766
 IR Inten    --     22.4677               450.8799               311.0960

                     73                     74                     75
                      A                      A                      A
 Frequencies --   1650.6134              1656.3507              1673.7846
 Red. masses --      4.2178                 1.2973                 5.9253
 Frc consts  --      6.7707                 2.0970                 9.7805
 IR Inten    --      3.7967                10.4717                 4.3586

                     76                     77                     78
                      A                      A                      A
 Frequencies --   2999.0904              3036.1935              3058.5646
 Red. masses --      1.0479                 1.0973                 1.0335
 Frc consts  --      5.5531                 5.9598                 5.6961
 IR Inten    --    146.2181                74.2351                58.7636

                     79                     80                     81
                      A                      A                      A
 Frequencies --   3067.4502              3128.8271              3140.4557
 Red. masses --      1.0383                 1.1036                 1.0989
 Frc consts  --      5.7561                 6.3655                 6.3852
 IR Inten    --     17.4214                14.3196                18.8428

                     82                     83                     84
                      A                      A                      A
 Frequencies --   3148.2707              3157.7946              3162.3395
 Red. masses --      1.0919                 1.1043                 1.1025
 Frc consts  --      6.3762                 6.4880                 6.4960
 IR Inten    --     30.5584                22.7362                28.8746

                     85                     86                     87
                      A                      A                      A
 Frequencies --   3191.9757              3198.1824              3207.7666
 Red. masses --      1.0854                 1.0883                 1.0923
 Frc consts  --      6.5159                 6.5584                 6.6222
 IR Inten    --      4.2062                 3.8446                32.7374

                     88                     89                     90
                      A                      A                      A
 Frequencies --   3217.2896              3223.2411              3381.4095
 Red. masses --      1.0944                 1.0972                 1.0667
 Frc consts  --      6.6743                 6.7162                 7.1860
 IR Inten    --     29.2204                14.0804               154.3276

                     91                     92                     93
                      A                      A                      A
 Frequencies --   3598.1954              3607.1096              3722.4659
 Red. masses --      1.0827                 1.0465                 1.1015
 Frc consts  --      8.2589                 8.0226                 8.9931
 IR Inten    --     57.7294                39.5990                45.8490

 - Thermochemistry -
 -------------------
 Temperature   298.150 Kelvin.  Pressure   1.00000 Atm.
 Atom     1 has atomic number  6 and mass  12.00000

 Molecular mass:   206.14191 amu.
 Principal axes and moments of inertia in atomic units:
                           1         2         3
     Eigenvalues --  2054.865993804.625884508.88692
           X            0.99984   0.01198   0.01325
           Y           -0.01162   0.99956  -0.02711
           Z           -0.01357   0.02695   0.99954
 This molecule is an asymmetric top.
 Rotational symmetry number  1.
 Warning -- assumption of classical behavior for rotation
           may cause significant error
 Rotational temperatures (Kelvin)      0.04215     0.02277     0.01921
 Rotational constants (GHZ):           0.87828     0.47435     0.40026
    1 imaginary frequencies ignored.
 Zero-point vibrational energy     750400.2 (Joules/Mol)
                                  179.34995 (Kcal/Mol)
 Warning -- explicit consideration of  25 degrees of freedom as
           vibrations may cause significant error
 Vibrational temperatures:     80.86   109.93   128.88   149.87   192.42
          (Kelvin)            204.96   229.01   265.77   315.47   334.97
                              413.11   416.75   451.34   461.24   517.61
                              532.04   551.02   613.02   620.11   623.03
                              701.28   790.85   806.78   855.19   892.80
                              920.41  1014.99  1045.52  1048.85  1141.37
                             1153.71  1221.94  1263.71  1377.85  1400.07
                             1436.06  1463.85  1476.27  1480.49  1504.86
                             1522.51  1530.52  1546.45  1564.66  1572.51
                             1589.98  1609.03  1640.28  1701.85  1734.20
                             1749.00  1759.72  1830.73  1902.61  1944.29
                             1962.78  2003.00  2026.34  2041.04  2051.07
                             2097.95  2133.11  2141.47  2145.74  2151.58
                             2159.66  2173.30  2183.39  2218.93  2294.20
                             2344.55  2374.86  2383.12  2408.20  4315.02
                             4368.41  4400.59  4413.38  4501.68  4518.42
                             4529.66  4543.36  4549.90  4592.54  4601.47
                             4615.26  4628.96  4637.53  4865.09  5177.00
                             5189.83  5355.80

 Zero-point correction=                           0.285812 (Hartree/Particle)
 Thermal correction to Energy=                    0.301148
 Thermal correction to Enthalpy=                  0.302092
 Thermal correction to Gibbs Free Energy=         0.244409
 Sum of electronic and zero-point Energies=           -652.568835
 Sum of electronic and thermal Energies=              -652.553500
 Sum of electronic and thermal Enthalpies=            -652.552556
 Sum of electronic and thermal Free Energies=         -652.610238

                     E (Thermal)             CV                S
                      KCal/Mol        Cal/Mol-Kelvin    Cal/Mol-Kelvin
 Total                  188.973             59.331            121.403
 Electronic               0.000              0.000              0.000
 Translational            0.889              2.981             41.874
 Rotational               0.889              2.981             31.933
 Vibrational            187.195             53.370             47.596
 Vibration     1          0.596              1.975              4.586
 Vibration     2          0.599              1.965              3.981
 Vibration     3          0.602              1.957              3.669
 Vibration     4          0.605              1.946              3.375
 Vibration     5          0.613              1.920              2.892
 Vibration     6          0.616              1.911              2.771
 Vibration     7          0.621              1.892              2.560
 Vibration     8          0.631              1.861              2.280
 Vibration     9          0.647              1.812              1.965
 Vibration    10          0.654              1.791              1.857
 Vibration    11          0.684              1.698              1.491
 Vibration    12          0.686              1.693              1.476
 Vibration    13          0.702              1.648              1.343
 Vibration    14          0.706              1.634              1.307
 Vibration    15          0.734              1.555              1.123
 Vibration    16          0.742              1.534              1.081
 Vibration    17          0.752              1.506              1.027
 Vibration    18          0.788              1.414              0.872
 Vibration    19          0.792              1.403              0.855
 Vibration    20          0.794              1.398              0.849
 Vibration    21          0.843              1.278              0.690
 Vibration    22          0.905              1.140              0.545
 Vibration    23          0.916              1.116              0.522
 Vibration    24          0.952              1.044              0.459
 Vibration    25          0.981              0.989              0.416

 Optimization completed.
    -- Stationary point found.
 Normal termination of Gaussian 16 at Wed Mar 31 07:57:18 2021.
