 Gaussian 16, Revision A.03,
 Gaussian 16:  ES64L-G16RevA.03 25-Dec-2016

 ----------------------------------------------------------------------
 # wB97XD def2tzvp, opt=(ts, noeigen, calcfc, maxcycles=70, maxstep=8),
  freq=noraman, scrf=(iefpcm, solvent=water)
 ----------------------------------------------------------------------

 ------------------------
 1_iteration/TS-471-1.out
 ------------------------
 Symbolic Z-matrix:
 Charge =  0 Multiplicity = 1

 SCF Done:  E(RwB97XD) =  -3187.15984142     A.U. after   14 cycles
 SCF Done:  E(RwB97XD) =  -3187.15984197     A.U. after    8 cycles
 SCF Done:  E(RwB97XD) =  -3187.15984190     A.U. after    6 cycles
 Optimization completed.
    -- Stationary point found.
 Normal termination of Gaussian 16 at Sun Feb 14 08:02:41 2021.

 ---------------------------------------------------------------------
 #N Geom=AllCheck Guess=TCheck SCRF=Check GenChk RwB97XD/def2TZVP Freq
 ---------------------------------------------------------------------

 Structure from the checkpoint file:  "/beegfs/scratch/user/q/tla25/Gau-89396.chk"
 ------------------------
 1_iteration/TS-471-1.out
 ------------------------
 Charge =  0 Multiplicity = 1

                         Standard orientation:
 ---------------------------------------------------------------------
 Center     Atomic      Atomic             Coordinates (Angstroms)
 Number     Number       Type             X           Y           Z
 ---------------------------------------------------------------------
      1          6           0       -1.327807    0.042744   -0.525173
      2          6           0        0.008667    0.571281   -0.491652
      3          8           0        0.213551    1.779912   -0.680494
      4          6           0       -2.388871    0.894633   -0.828762
      5          6           0       -2.814507    1.429618    1.924232
      6          1           0       -2.012331    0.698067    2.019463
      7          1           0       -2.757022    2.129116    2.758551
      8          1           0       -3.771455    0.912085    1.957781
      9          7           0       -2.671791    2.103658    0.639438
     10          1           0       -3.440311    2.736618    0.451099
     11          1           0       -1.805139    2.628585    0.595033
     12          6           0       -3.780443    0.394317   -1.078831
     13          1           0       -3.774811   -0.246014   -1.962962
     14          1           0       -4.155125   -0.198835   -0.245160
     15          1           0       -4.464980    1.220894   -1.262013
     16          1           0       -2.088415    1.718932   -1.465445
     17         35           0       -1.682165   -1.741134    0.092287
     18          7           0        1.039350   -0.308424   -0.247674
     19          6           0        2.405682   -0.062982   -0.103525
     20          6           0        3.008165    1.181793   -0.296523
     21          6           0        4.379743    1.316854   -0.128754
     22          6           0        5.173906    0.237257    0.223959
     23          6           0        4.575024   -1.001851    0.411730
     24          6           0        3.210056   -1.151669    0.251792
     25          1           0        0.764879   -1.267082   -0.109458
     26          1           0        2.401488    2.027267   -0.575281
     27          1           0        4.829783    2.290333   -0.281634
     28          1           0        6.242099    0.356460    0.349823
     29          1           0        5.173883   -1.861166    0.686832
     30          1           0        2.754217   -2.123471    0.403986
 ---------------------------------------------------------------------

 SCF Done:  E(RwB97XD) =  -3187.15984190     A.U. after    1 cycles

 The electronic state is 1-A.
 Alpha  occ. eigenvalues -- -483.12432 -62.67261 -56.46356 -56.46039 -56.46023
 Alpha  occ. eigenvalues --  -19.20464 -14.47686 -14.46142 -10.38590 -10.34019
 Alpha  occ. eigenvalues --  -10.33762 -10.31442 -10.29874 -10.28978 -10.28819
 Alpha  occ. eigenvalues --  -10.28732 -10.28320 -10.28150 -10.28059  -8.81371
 Alpha  occ. eigenvalues --   -6.63453  -6.62440  -6.62388  -2.73854  -2.73567
 Alpha  occ. eigenvalues --   -2.73523  -2.72705  -2.72704  -1.13294  -1.03898
 Alpha  occ. eigenvalues --   -1.03264  -0.95503  -0.92682  -0.86489  -0.85015
 Alpha  occ. eigenvalues --   -0.84600  -0.79428  -0.78524  -0.73694  -0.71266
 Alpha  occ. eigenvalues --   -0.67584  -0.63913  -0.62570  -0.62407  -0.59291
 Alpha  occ. eigenvalues --   -0.57762  -0.57090  -0.54233  -0.53646  -0.52437
 Alpha  occ. eigenvalues --   -0.51984  -0.51685  -0.50443  -0.49760  -0.49232
 Alpha  occ. eigenvalues --   -0.47586  -0.47123  -0.46659  -0.44598  -0.43666
 Alpha  occ. eigenvalues --   -0.42731  -0.41491  -0.39466  -0.39329  -0.37889
 Alpha  occ. eigenvalues --   -0.33828  -0.33613  -0.30181  -0.26314
 Alpha virt. eigenvalues --    0.04256   0.05465   0.08100   0.09147   0.10222
 Alpha virt. eigenvalues --    0.12889   0.13499   0.14488   0.14739   0.16042
 Alpha virt. eigenvalues --    0.16229   0.17457   0.17973   0.18415   0.18697

 Mulliken charges:
               1
     1  C   -0.309654
     2  C    0.450379
     3  O   -0.568832
     4  C    0.028488
     5  C   -0.300314
     6  H    0.152425
     7  H    0.153545
     8  H    0.154256
     9  N   -0.331547
    10  H    0.281045
    11  H    0.279380
    12  C   -0.368076
    13  H    0.152477
    14  H    0.140934
    15  H    0.143039
    16  H    0.155447
    17  Br  -0.177529
    18  N   -0.278907
    19  C    0.303414
    20  C   -0.297969
    21  C   -0.110203
    22  C   -0.200155
    23  C   -0.098553
    24  C   -0.313018
    25  H    0.236993
    26  H    0.159848
    27  H    0.140395
    28  H    0.139820
    29  H    0.142644
    30  H    0.140229
 Sum of Mulliken charges =  -0.00000

 Dipole moment (field-independent basis, Debye):
    X=             -6.4472    Y=              2.4138    Z=              2.7641  Tot=              7.4184
 Quadrupole moment (field-independent basis, Debye-Ang):
   XX=            -80.0219   YY=            -93.4399   ZZ=           -103.7999
   XY=            -19.5368   XZ=             -1.4909   YZ=              3.4480

  Exact polarizability: 322.449 -10.999 250.473   5.593 -10.237 165.910
 Approx polarizability: 228.256  -3.818 212.894   4.809 -10.975 144.839

 ******    1 imaginary frequencies (negative Signs) ******

                      1                      2                      3
                      A                      A                      A
 Frequencies --   -385.9774                22.0209                28.3073
 Red. masses --      5.6675                 3.8619                 3.6645
 Frc consts  --      0.4975                 0.0011                 0.0017
 IR Inten    --   1016.2091                 2.0733                 1.2971

                      4                      5                      6
                      A                      A                      A
 Frequencies --     55.2100                74.1315                85.6830
 Red. masses --      3.6000                 3.4272                 5.4088
 Frc consts  --      0.0065                 0.0111                 0.0234
 IR Inten    --      1.6554                 6.6210                12.0818

                      7                      8                      9
                      A                      A                      A
 Frequencies --     92.5116               139.5267               171.4293
 Red. masses --      6.0737                 3.3392                 3.5915
 Frc consts  --      0.0306                 0.0383                 0.0622
 IR Inten    --      7.6988                26.7052                 7.1699

                     10                     11                     12
                      A                      A                      A
 Frequencies --    199.5504               205.9175               231.9078
 Red. masses --      2.3166                 1.6702                 2.4654
 Frc consts  --      0.0543                 0.0417                 0.0781
 IR Inten    --      2.5439                 8.2566                 4.1568

                     13                     14                     15
                      A                      A                      A
 Frequencies --    243.2175               251.4153               275.9801
 Red. masses --      2.0821                 1.8352                 3.5755
 Frc consts  --      0.0726                 0.0683                 0.1605
 IR Inten    --      0.3317                 2.7928                11.2777

                     16                     17                     18
                      A                      A                      A
 Frequencies --    346.8433               379.1173               410.9980
 Red. masses --      4.6839                 5.7414                 6.1059
 Frc consts  --      0.3320                 0.4862                 0.6077
 IR Inten    --      8.7404                 1.1636                25.0175

                     19                     20                     21
                      A                      A                      A
 Frequencies --    423.4237               444.3149               527.7360
 Red. masses --      2.9998                 3.6902                 2.7367
 Frc consts  --      0.3169                 0.4292                 0.4491
 IR Inten    --      0.3882                50.9195                33.0154

                     22                     23                     24
                      A                      A                      A
 Frequencies --    556.1979               564.2318               617.4586
 Red. masses --      1.1854                 3.3533                 4.2513
 Frc consts  --      0.2161                 0.6290                 0.9550
 IR Inten    --     81.8150                15.0514                27.8533

                     25                     26                     27
                      A                      A                      A
 Frequencies --    636.8221               695.4294               719.0046
 Red. masses --      6.2510                 1.4640                 1.9036
 Frc consts  --      1.4936                 0.4172                 0.5798
 IR Inten    --      4.3473                96.8982                62.3950

                     28                     29                     30
                      A                      A                      A
 Frequencies --    768.3575               783.0565               794.5633
 Red. masses --      8.2306                 1.8542                 6.3320
 Frc consts  --      2.8629                 0.6699                 2.3553
 IR Inten    --     27.0506                98.1680                16.1098

                     31                     32                     33
                      A                      A                      A
 Frequencies --    862.4274               867.7090               931.5079
 Red. masses --      1.2617                 5.1754                 1.4654
 Frc consts  --      0.5529                 2.2959                 0.7492
 IR Inten    --      0.1824                 5.7016                13.0749

                     34                     35                     36
                      A                      A                      A
 Frequencies --    961.1383              1001.3097              1006.6884
 Red. masses --      1.4926                 1.3442                 1.1455
 Frc consts  --      0.8124                 0.7941                 0.6840
 IR Inten    --     13.4938                 0.0056                70.8210

                     37                     38                     39
                      A                      A                      A
 Frequencies --   1014.0093              1016.6109              1019.4500
 Red. masses --      1.4919                 1.2797                 5.3355
 Frc consts  --      0.9038                 0.7792                 3.2671
 IR Inten    --     84.0298                 1.7751                20.6318

                     40                     41                     42
                      A                      A                      A
 Frequencies --   1031.9059              1057.0149              1060.3948
 Red. masses --      2.0245                 1.9231                 2.1863
 Frc consts  --      1.2701                 1.2660                 1.4484
 IR Inten    --    112.6780                37.6709                29.8083

                     43                     44                     45
                      A                      A                      A
 Frequencies --   1077.5462              1120.3771              1150.8087
 Red. masses --      2.0915                 1.5664                 2.6350
 Frc consts  --      1.4308                 1.1585                 2.0561
 IR Inten    --     95.5848                19.8878                56.6230

                     46                     47                     48
                      A                      A                      A
 Frequencies --   1181.6890              1205.0212              1207.5946
 Red. masses --      1.1209                 1.4457                 1.1670
 Frc consts  --      0.9222                 1.2368                 1.0026
 IR Inten    --      2.9697               246.5978                 3.1887

                     49                     50                     51
                      A                      A                      A
 Frequencies --   1220.5752              1260.1835              1270.1841
 Red. masses --      1.3724                 1.4567                 2.2310
 Frc consts  --      1.2046                 1.3630                 2.1207
 IR Inten    --     51.2956                24.8205               417.8091

                     52                     53                     54
                      A                      A                      A
 Frequencies --   1300.2726              1348.8480              1352.0845
 Red. masses --      3.2347                 2.3086                 1.6783
 Frc consts  --      3.2222                 2.4747                 1.8078
 IR Inten    --    107.2302               381.7033               155.9094

                     55                     56                     57
                      A                      A                      A
 Frequencies --   1360.5853              1413.4094              1453.5515
 Red. masses --      1.6014                 1.2722                 1.5104
 Frc consts  --      1.7466                 1.4974                 1.8802
 IR Inten    --     17.9605                32.0673               210.3492

                     58                     59                     60
                      A                      A                      A
 Frequencies --   1467.2732              1479.9226              1489.3472
 Red. masses --      1.4387                 2.1430                 1.0578
 Frc consts  --      1.8249                 2.7653                 1.3824
 IR Inten    --    118.8227               398.9019                15.4950

                     61                     62                     63
                      A                      A                      A
 Frequencies --   1492.7614              1499.4111              1509.6710
 Red. masses --      1.0687                 1.3865                 1.0334
 Frc consts  --      1.4032                 1.8366                 1.3876
 IR Inten    --     32.4479               288.7626                 7.1697

                     64                     65                     66
                      A                      A                      A
 Frequencies --   1546.2996              1565.8174              1641.5814
 Red. masses --      2.4985                 2.2572                 3.1953
 Frc consts  --      3.5198                 3.2606                 5.0732
 IR Inten    --    230.8347               777.0464               460.4186

                     67                     68                     69
                      A                      A                      A
 Frequencies --   1655.0570              1661.5196              1677.2372
 Red. masses --      1.3324                 3.7491                 6.1259
 Frc consts  --      2.1503                 6.0980                10.1533
 IR Inten    --      0.7502                99.9174               197.4672

                     70                     71                     72
                      A                      A                      A
 Frequencies --   3065.5342              3066.3833              3136.6258
 Red. masses --      1.0358                 1.0344                 1.1000
 Frc consts  --      5.7353                 5.7304                 6.3764
 IR Inten    --     22.5802                31.6251                17.8935

                     73                     74                     75
                      A                      A                      A
 Frequencies --   3141.4299              3153.3134              3161.6878
 Red. masses --      1.1047                 1.1026                 1.1053
 Frc consts  --      6.4230                 6.4598                 6.5096
 IR Inten    --     15.6690                21.6704                16.4380

                     76                     77                     78
                      A                      A                      A
 Frequencies --   3180.7088              3186.3487              3195.8151
 Red. masses --      1.0902                 1.0881                 1.0883
 Frc consts  --      6.4982                 6.5086                 6.5488
 IR Inten    --     16.3409                14.4815                 3.1234

                     79                     80                     81
                      A                      A                      A
 Frequencies --   3205.9046              3221.1606              3275.0788
 Red. masses --      1.0931                 1.0980                 1.0919
 Frc consts  --      6.6192                 6.7122                 6.9001
 IR Inten    --     31.2477                23.7442                 5.8997

                     82                     83                     84
                      A                      A                      A
 Frequencies --   3520.5744              3604.8444              3628.5598
 Red. masses --      1.0504                 1.0965                 1.0762
 Frc consts  --      7.6710                 8.3952                 8.3488
 IR Inten    --     28.7453                57.0114                96.2590

 - Thermochemistry -
 -------------------
 Temperature   298.150 Kelvin.  Pressure   1.00000 Atm.
 Atom     1 has atomic number  6 and mass  12.00000

 Molecular mass:   270.03677 amu.
 Principal axes and moments of inertia in atomic units:
                           1         2         3
     Eigenvalues --  2200.999667570.554148933.96010
           X            0.99932  -0.03690   0.00002
           Y            0.03689   0.99919   0.01637
           Z           -0.00062  -0.01636   0.99987
 This molecule is an asymmetric top.
 Rotational symmetry number  1.
 Warning -- assumption of classical behavior for rotation
           may cause significant error
 Rotational temperatures (Kelvin)      0.03935     0.01144     0.00969
 Rotational constants (GHZ):           0.81996     0.23839     0.20201
    1 imaginary frequencies ignored.
 Zero-point vibrational energy     651528.9 (Joules/Mol)
                                  155.71915 (Kcal/Mol)
 Warning -- explicit consideration of  23 degrees of freedom as
           vibrations may cause significant error
 Vibrational temperatures:     31.68    40.73    79.43   106.66   123.28
          (Kelvin)            133.10   200.75   246.65   287.11   296.27
                              333.66   349.94   361.73   397.07   499.03
                              545.47   591.33   609.21   639.27   759.29
                              800.24   811.80   888.39   916.24  1000.57
                             1034.49  1105.50  1126.64  1143.20  1240.84
                             1248.44  1340.23  1382.86  1440.66  1448.40
                             1458.93  1462.68  1466.76  1484.68  1520.81
                             1525.67  1550.35  1611.97  1655.76  1700.19
                             1733.76  1737.46  1756.14  1813.12  1827.51
                             1870.80  1940.69  1945.35  1957.58  2033.58
                             2091.34  2111.08  2129.28  2142.84  2147.75
                             2157.32  2172.08  2224.78  2252.86  2361.87
                             2381.26  2390.56  2413.17  4410.62  4411.84
                             4512.90  4519.82  4536.91  4548.96  4576.33
                             4584.45  4598.07  4612.58  4634.53  4712.11
                             5065.32  5186.57  5220.69

 Zero-point correction=                           0.248154 (Hartree/Particle)
 Thermal correction to Energy=                    0.263836
 Thermal correction to Enthalpy=                  0.264780
 Thermal correction to Gibbs Free Energy=         0.202418
 Sum of electronic and zero-point Energies=          -3186.911688
 Sum of electronic and thermal Energies=             -3186.896006
 Sum of electronic and thermal Enthalpies=           -3186.895062
 Sum of electronic and thermal Free Energies=        -3186.957424

                     E (Thermal)             CV                S
                      KCal/Mol        Cal/Mol-Kelvin    Cal/Mol-Kelvin
 Total                  165.560             56.872            131.252
 Electronic               0.000              0.000              0.000
 Translational            0.889              2.981             42.679
 Rotational               0.889              2.981             33.365
 Vibrational            163.782             50.910             55.208
 Vibration     1          0.593              1.985              6.443
 Vibration     2          0.593              1.984              5.945
 Vibration     3          0.596              1.975              4.621
 Vibration     4          0.599              1.966              4.041
 Vibration     5          0.601              1.959              3.756
 Vibration     6          0.602              1.955              3.606
 Vibration     7          0.615              1.914              2.810
 Vibration     8          0.626              1.878              2.420
 Vibration     9          0.638              1.841              2.137
 Vibration    10          0.640              1.831              2.080
 Vibration    11          0.653              1.792              1.864
 Vibration    12          0.659              1.774              1.779
 Vibration    13          0.663              1.760              1.721
 Vibration    14          0.678              1.718              1.558
 Vibration    15          0.725              1.582              1.180
 Vibration    16          0.749              1.515              1.043
 Vibration    17          0.775              1.446              0.923
 Vibration    18          0.786              1.419              0.880
 Vibration    19          0.804              1.373              0.813
 Vibration    20          0.883              1.189              0.592
 Vibration    21          0.912              1.126              0.531
 Vibration    22          0.920              1.109              0.515
 Vibration    23          0.977              0.995              0.421

 Optimization completed.
    -- Stationary point found.
 Normal termination of Gaussian 16 at Sun Feb 14 08:56:11 2021.
