 Gaussian 16, Revision A.03,
 Gaussian 16:  ES64L-G16RevA.03 25-Dec-2016

 ----------------------------------------------------------------------
 # wB97XD def2tzvp, opt=(ts, noeigen, calcfc, maxcycles=70, maxstep=8),
  freq=noraman, scrf=(iefpcm, solvent=water)
 ----------------------------------------------------------------------

 ------------------------
 1_iteration/TS-449-1.out
 ------------------------
 Symbolic Z-matrix:
 Charge =  0 Multiplicity = 1

 SCF Done:  E(RwB97XD) =  -327.107308049     A.U. after   15 cycles
 SCF Done:  E(RwB97XD) =  -327.108150035     A.U. after   13 cycles
 SCF Done:  E(RwB97XD) =  -327.108718165     A.U. after   12 cycles
 SCF Done:  E(RwB97XD) =  -327.108937451     A.U. after   12 cycles
 SCF Done:  E(RwB97XD) =  -327.108947452     A.U. after   11 cycles
 SCF Done:  E(RwB97XD) =  -327.108948154     A.U. after   11 cycles
 SCF Done:  E(RwB97XD) =  -327.108948861     A.U. after    9 cycles
 SCF Done:  E(RwB97XD) =  -327.108939170     A.U. after   11 cycles
 SCF Done:  E(RwB97XD) =  -327.108948952     A.U. after   11 cycles
 SCF Done:  E(RwB97XD) =  -327.108948906     A.U. after    8 cycles
 SCF Done:  E(RwB97XD) =  -327.108948911     A.U. after    6 cycles
 Optimization completed.
    -- Stationary point found.
 Normal termination of Gaussian 16 at Sat Feb 13 06:41:47 2021.

 ---------------------------------------------------------------------
 #N Geom=AllCheck Guess=TCheck SCRF=Check GenChk RwB97XD/def2TZVP Freq
 ---------------------------------------------------------------------

 Structure from the checkpoint file:  "/beegfs/scratch/user/q/tla25/Gau-46680.chk"
 ------------------------
 1_iteration/TS-449-1.out
 ------------------------
 Charge =  0 Multiplicity = 1

                         Standard orientation:
 ---------------------------------------------------------------------
 Center     Atomic      Atomic             Coordinates (Angstroms)
 Number     Number       Type             X           Y           Z
 ---------------------------------------------------------------------
      1          6           0        0.717722    0.663245   -0.307185
      2          6           0        1.809779    0.009623    0.291165
      3          8           0        2.950221   -0.131788   -0.171165
      4          6           0       -0.515400    0.745272    0.341405
      5          6           0       -0.919485   -2.035108   -0.005374
      6          1           0        0.035763   -1.945260   -0.523255
      7          1           0       -0.727021   -2.215535    1.051256
      8          1           0       -1.473096   -2.878095   -0.419191
      9          7           0       -1.643030   -0.780406   -0.151209
     10          1           0       -1.908161   -0.618095   -1.115705
     11          1           0       -2.486472   -0.766534    0.409970
     12          6           0       -1.479698    1.844491   -0.004650
     13          1           0       -1.109365    2.777452    0.424892
     14          1           0       -1.549265    1.980669   -1.084829
     15          1           0       -2.476973    1.666946    0.396882
     16          1           0       -0.514814    0.457891    1.389799
     17          1           0        0.836790    1.094040   -1.296748
     18          1           0        1.594558   -0.401478    1.302548
 ---------------------------------------------------------------------

 SCF Done:  E(RwB97XD) =  -327.108948911     A.U. after    1 cycles

 The electronic state is 1-A.
 Alpha  occ. eigenvalues --  -19.19678 -14.47563 -10.33661 -10.33483 -10.31281
 Alpha  occ. eigenvalues --  -10.28098 -10.24404  -1.09665  -1.03146  -0.89946
 Alpha  occ. eigenvalues --   -0.81106  -0.77995  -0.68981  -0.64761  -0.62160
 Alpha  occ. eigenvalues --   -0.56399  -0.55374  -0.54390  -0.51884  -0.49268
 Alpha  occ. eigenvalues --   -0.48028  -0.47450  -0.46355  -0.44944  -0.43984
 Alpha  occ. eigenvalues --   -0.40454  -0.31503  -0.27850
 Alpha virt. eigenvalues --    0.05861   0.10275   0.12817   0.13917   0.14681
 Alpha virt. eigenvalues --    0.15743   0.17464   0.18121   0.18987   0.19702
 Alpha virt. eigenvalues --    0.19976   0.21611   0.22574   0.23783   0.25501

 Mulliken charges:
               1
     1  C   -0.295659
     2  C    0.120954
     3  O   -0.542129
     4  C   -0.045805
     5  C   -0.297954
     6  H    0.155137
     7  H    0.151815
     8  H    0.152700
     9  N   -0.348361
    10  H    0.277532
    11  H    0.282832
    12  C   -0.337454
    13  H    0.140771
    14  H    0.136846
    15  H    0.133570
    16  H    0.154968
    17  H    0.112052
    18  H    0.048186
 Sum of Mulliken charges =  -0.00000

 Dipole moment (field-independent basis, Debye):
    X=            -11.9088    Y=             -1.6739    Z=              0.8524  Tot=             12.0561
 Quadrupole moment (field-independent basis, Debye-Ang):
   XX=            -58.9129   YY=            -40.5188   ZZ=            -41.5084
   XY=              2.8894   XZ=              2.7486   YZ=             -0.2051

  Exact polarizability: 146.464   0.992  97.214  -2.950  -3.052  85.604
 Approx polarizability: 111.221  -0.220  76.544  -4.055  -1.626  73.400

 ******    1 imaginary frequencies (negative Signs) ******

                      1                      2                      3
                      A                      A                      A
 Frequencies --   -349.9620                35.7771                97.0673
 Red. masses --      5.5420                 1.8681                 4.8520
 Frc consts  --      0.3999                 0.0014                 0.0269
 IR Inten    --    809.1479                 2.7617                 3.5743

                      4                      5                      6
                      A                      A                      A
 Frequencies --    152.8565               205.7400               214.0399
 Red. masses --      1.1188                 1.4391                 2.2802
 Frc consts  --      0.0154                 0.0359                 0.0615
 IR Inten    --      2.7599                 6.9484                 4.2628

                      7                      8                      9
                      A                      A                      A
 Frequencies --    240.2977               267.4622               316.7395
 Red. masses --      2.0023                 2.0313                 2.7281
 Frc consts  --      0.0681                 0.0856                 0.1613
 IR Inten    --      2.8358                11.2481                 4.4326

                     10                     11                     12
                      A                      A                      A
 Frequencies --    419.6000               479.1399               556.5090
 Red. masses --      2.2888                 3.0762                 3.4513
 Frc consts  --      0.2374                 0.4161                 0.6298
 IR Inten    --     38.8887                35.7587                44.0984

                     13                     14                     15
                      A                      A                      A
 Frequencies --    665.8293               789.6451               941.6095
 Red. masses --      1.4905                 1.3544                 1.4425
 Frc consts  --      0.3893                 0.4976                 0.7535
 IR Inten    --     20.1188               116.4976                36.5688

                     16                     17                     18
                      A                      A                      A
 Frequencies --    989.3759              1000.2387              1034.7365
 Red. masses --      1.1495                 1.1044                 1.4748
 Frc consts  --      0.6629                 0.6510                 0.9303
 IR Inten    --    146.1895                15.3967                 3.8070

                     19                     20                     21
                      A                      A                      A
 Frequencies --   1047.9216              1087.6318              1129.8643
 Red. masses --      1.4365                 3.7360                 2.5521
 Frc consts  --      0.9294                 2.6039                 1.9196
 IR Inten    --     17.7810                19.8589                14.0204

                     22                     23                     24
                      A                      A                      A
 Frequencies --   1168.4722              1212.0604              1221.4342
 Red. masses --      1.2024                 1.4211                 1.5897
 Frc consts  --      0.9673                 1.2300                 1.3973
 IR Inten    --    186.0876                14.0119               216.6179

                     25                     26                     27
                      A                      A                      A
 Frequencies --   1275.3199              1302.8273              1348.0228
 Red. masses --      1.5407                 2.0170                 1.3279
 Frc consts  --      1.4764                 2.0171                 1.4218
 IR Inten    --     53.4150                18.5668                 1.9679

                     28                     29                     30
                      A                      A                      A
 Frequencies --   1409.2520              1422.8077              1449.3157
 Red. masses --      1.2625                 1.3270                 1.1811
 Frc consts  --      1.4772                 1.5828                 1.4618
 IR Inten    --    118.1880                98.0306                 7.9748

                     31                     32                     33
                      A                      A                      A
 Frequencies --   1483.0538              1485.0828              1492.2617
 Red. masses --      1.0692                 1.0818                 1.0388
 Frc consts  --      1.3855                 1.4057                 1.3629
 IR Inten    --     11.7371                 5.0825                16.3701

                     34                     35                     36
                      A                      A                      A
 Frequencies --   1500.8066              1543.8539              1644.7792
 Red. masses --      1.0425                 2.8558                 1.0979
 Frc consts  --      1.3835                 4.0104                 1.7500
 IR Inten    --     18.6087               245.3766               114.7682

                     37                     38                     39
                      A                      A                      A
 Frequencies --   1656.3679              2860.7896              3057.4225
 Red. masses --      5.4854                 1.0793                 1.0361
 Frc consts  --      8.8669                 5.2043                 5.7063
 IR Inten    --   1311.5353               199.4274                21.7060

                     40                     41                     42
                      A                      A                      A
 Frequencies --   3062.9632              3128.1401              3137.6643
 Red. masses --      1.0327                 1.1006                 1.0998
 Frc consts  --      5.7083                 6.3455                 6.3796
 IR Inten    --     35.2965                18.7496                11.9310

                     43                     44                     45
                      A                      A                      A
 Frequencies --   3140.8937              3153.8379              3154.6263
 Red. masses --      1.1047                 1.0941                 1.1054
 Frc consts  --      6.4210                 6.4120                 6.4816
 IR Inten    --     12.8776                46.7659                15.9565

                     46                     47                     48
                      A                      A                      A
 Frequencies --   3167.3609              3523.9050              3608.4433
 Red. masses --      1.0886                 1.0504                 1.0964
 Frc consts  --      6.4343                 7.6853                 8.4114
 IR Inten    --     32.1961                33.5613                36.3378

 - Thermochemistry -
 -------------------
 Temperature   298.150 Kelvin.  Pressure   1.00000 Atm.
 Atom     1 has atomic number  6 and mass  12.00000

 Molecular mass:   101.08406 amu.
 Principal axes and moments of inertia in atomic units:
                           1         2         3
     Eigenvalues --   570.120631076.264051545.08767
           X            0.99995  -0.00899   0.00511
           Y            0.00904   0.99991  -0.01022
           Z           -0.00501   0.01027   0.99993
 This molecule is an asymmetric top.
 Rotational symmetry number  1.
 Warning -- assumption of classical behavior for rotation
           may cause significant error
 Rotational temperatures (Kelvin)      0.15192     0.08048     0.05606
 Rotational constants (GHZ):           3.16554     1.67686     1.16805
    1 imaginary frequencies ignored.
 Zero-point vibrational energy     414409.4 (Joules/Mol)
                                   99.04623 (Kcal/Mol)
 Warning -- explicit consideration of  11 degrees of freedom as
           vibrations may cause significant error
 Vibrational temperatures:     51.48   139.66   219.93   296.01   307.96
          (Kelvin)            345.73   384.82   455.72   603.71   689.38
                              800.69   957.98  1136.12  1354.77  1423.49
                             1439.12  1488.76  1507.73  1564.86  1625.62
                             1681.17  1743.88  1757.37  1834.90  1874.48
                             1939.50  2027.60  2047.10  2085.24  2133.78
                             2136.70  2147.03  2159.33  2221.26  2366.47
                             2383.14  4116.04  4398.95  4406.92  4500.70
                             4514.40  4519.05  4537.67  4538.80  4557.13
                             5070.11  5191.75

 Zero-point correction=                           0.157840 (Hartree/Particle)
 Thermal correction to Energy=                    0.166660
 Thermal correction to Enthalpy=                  0.167604
 Thermal correction to Gibbs Free Energy=         0.123814
 Sum of electronic and zero-point Energies=           -326.951109
 Sum of electronic and thermal Energies=              -326.942289
 Sum of electronic and thermal Enthalpies=            -326.941345
 Sum of electronic and thermal Free Energies=         -326.985135

                     E (Thermal)             CV                S
                      KCal/Mol        Cal/Mol-Kelvin    Cal/Mol-Kelvin
 Total                  104.581             30.240             92.163
 Electronic               0.000              0.000              0.000
 Translational            0.889              2.981             39.750
 Rotational               0.889              2.981             28.341
 Vibrational            102.803             24.278             24.073
 Vibration     1          0.594              1.982              5.480
 Vibration     2          0.603              1.951              3.512
 Vibration     3          0.619              1.899              2.636
 Vibration     4          0.640              1.832              2.081
 Vibration     5          0.644              1.820              2.009
 Vibration     6          0.657              1.779              1.801
 Vibration     7          0.673              1.733              1.613
 Vibration     8          0.704              1.642              1.327
 Vibration     9          0.782              1.428              0.893
 Vibration    10          0.836              1.296              0.712
 Vibration    11          0.912              1.125              0.531

 Optimization completed.
    -- Stationary point found.
 Normal termination of Gaussian 16 at Sat Feb 13 06:47:30 2021.
