 Gaussian 16, Revision A.03,
 Gaussian 16:  ES64L-G16RevA.03 25-Dec-2016

 ----------------------------------------------------------------------
 # wB97XD def2tzvp, opt=(ts, noeigen, calcfc, maxcycles=70, maxstep=8),
  freq=noraman, scrf=(iefpcm, solvent=water)
 ----------------------------------------------------------------------

 ------------------------
 1_iteration/TS-472-1.out
 ------------------------
 Symbolic Z-matrix:
 Charge =  0 Multiplicity = 1

 SCF Done:  E(RwB97XD) =  -3131.76614370     A.U. after   15 cycles
 SCF Done:  E(RwB97XD) =  -3131.77018349     A.U. after   13 cycles
 SCF Done:  E(RwB97XD) =  -3131.77435769     A.U. after   13 cycles
 SCF Done:  E(RwB97XD) =  -3131.77826495     A.U. after   13 cycles
 SCF Done:  E(RwB97XD) =  -3131.78096021     A.U. after   13 cycles
 SCF Done:  E(RwB97XD) =  -3131.78216127     A.U. after   14 cycles
 SCF Done:  E(RwB97XD) =  -3131.78254834     A.U. after   13 cycles
 SCF Done:  E(RwB97XD) =  -3131.78221543     A.U. after   13 cycles
 SCF Done:  E(RwB97XD) =  -3131.78228788     A.U. after   13 cycles
 SCF Done:  E(RwB97XD) =  -3131.78218535     A.U. after   13 cycles
 SCF Done:  E(RwB97XD) =  -3131.78272951     A.U. after   12 cycles
 SCF Done:  E(RwB97XD) =  -3131.78274372     A.U. after   12 cycles
 SCF Done:  E(RwB97XD) =  -3131.78274977     A.U. after   10 cycles
 SCF Done:  E(RwB97XD) =  -3131.78274981     A.U. after   10 cycles
 SCF Done:  E(RwB97XD) =  -3131.78270500     A.U. after   12 cycles
 SCF Done:  E(RwB97XD) =  -3131.78274986     A.U. after   12 cycles
 SCF Done:  E(RwB97XD) =  -3131.78275005     A.U. after    8 cycles
 SCF Done:  E(RwB97XD) =  -3131.78275012     A.U. after    7 cycles
 SCF Done:  E(RwB97XD) =  -3131.78275016     A.U. after    6 cycles
 Optimization completed.
    -- Stationary point found.
 Normal termination of Gaussian 16 at Sun Feb 14 03:21:44 2021.

 ---------------------------------------------------------------------
 #N Geom=AllCheck Guess=TCheck SCRF=Check GenChk RwB97XD/def2TZVP Freq
 ---------------------------------------------------------------------

 Structure from the checkpoint file:  "/beegfs/scratch/user/q/tla25/Gau-94717.chk"
 ------------------------
 1_iteration/TS-472-1.out
 ------------------------
 Charge =  0 Multiplicity = 1

                         Standard orientation:
 ---------------------------------------------------------------------
 Center     Atomic      Atomic             Coordinates (Angstroms)
 Number     Number       Type             X           Y           Z
 ---------------------------------------------------------------------
      1          6           0        0.966444   -0.213599    0.232125
      2          6           0        0.033197   -1.219458   -0.146067
      3          8           0        0.325686   -2.319455   -0.620349
      4          6           0        0.614619    1.065025    0.651161
      5          6           0       -1.054788    2.952724   -0.742448
      6          1           0       -1.309830    3.559107   -1.612535
      7          1           0       -1.862567    2.244713   -0.556315
      8          1           0       -0.953562    3.605351    0.124053
      9          7           0        0.189414    2.211017   -0.930134
     10          1           0        0.115455    1.546344   -1.690487
     11          1           0        0.967360    2.827966   -1.131988
     12          6           0        1.556210    1.991950    1.356026
     13          1           0        1.785689    1.570631    2.337351
     14          1           0        2.494219    2.107482    0.815737
     15          1           0        1.102520    2.970397    1.505504
     16          1           0       -0.412411    1.145649    0.983900
     17         35           0        2.807306   -0.616606   -0.101556
     18          6           0       -1.430239   -0.888726    0.024058
     19          6           0       -2.022785   -0.818843    1.279880
     20          6           0       -3.376601   -0.539582    1.399595
     21          6           0       -4.145504   -0.319436    0.265642
     22          6           0       -3.558669   -0.392171   -0.990191
     23          6           0       -2.208065   -0.682972   -1.110640
     24          1           0       -1.421222   -0.978351    2.166801
     25          1           0       -3.830444   -0.490458    2.381321
     26          1           0       -5.199998   -0.093572    0.359974
     27          1           0       -4.153654   -0.221341   -1.878452
     28          1           0       -1.751572   -0.743662   -2.091518
 ---------------------------------------------------------------------

 SCF Done:  E(RwB97XD) =  -3131.78275016     A.U. after    1 cycles

 The electronic state is 1-A.
 Alpha  occ. eigenvalues -- -483.11875 -62.66717 -56.45814 -56.45489 -56.45479
 Alpha  occ. eigenvalues --  -19.21454 -14.47419 -10.36364 -10.34945 -10.31706
 Alpha  occ. eigenvalues --  -10.30834 -10.30204 -10.29521 -10.29510 -10.29401
 Alpha  occ. eigenvalues --  -10.29385 -10.29256 -10.28665  -8.80834  -6.62929
 Alpha  occ. eigenvalues --   -6.61886  -6.61858  -2.73330  -2.73024  -2.73002
 Alpha  occ. eigenvalues --   -2.72158  -2.72158  -1.12274  -1.03059  -0.97109
 Alpha  occ. eigenvalues --   -0.93492  -0.86935  -0.86186  -0.85547  -0.80274
 Alpha  occ. eigenvalues --   -0.78587  -0.72642  -0.70868  -0.68865  -0.63642
 Alpha  occ. eigenvalues --   -0.62489  -0.60799  -0.57468  -0.55810  -0.55273
 Alpha  occ. eigenvalues --   -0.54256  -0.53730  -0.52806  -0.51388  -0.50070
 Alpha  occ. eigenvalues --   -0.49265  -0.48901  -0.47699  -0.47303  -0.46165
 Alpha  occ. eigenvalues --   -0.45084  -0.43391  -0.42997  -0.41350  -0.38431
 Alpha  occ. eigenvalues --   -0.36638  -0.34762  -0.34146  -0.32299  -0.28041
 Alpha virt. eigenvalues --    0.03223   0.04754   0.04934   0.08928   0.10083
 Alpha virt. eigenvalues --    0.13081   0.13125   0.13562   0.14387   0.15577
 Alpha virt. eigenvalues --    0.16274   0.17647   0.18307   0.18675   0.18804

 Mulliken charges:
               1
     1  C   -0.173027
     2  C    0.195173
     3  O   -0.481709
     4  C   -0.047371
     5  C   -0.284851
     6  H    0.151910
     7  H    0.151109
     8  H    0.152270
     9  N   -0.370604
    10  H    0.273130
    11  H    0.281554
    12  C   -0.349844
    13  H    0.152837
    14  H    0.146652
    15  H    0.144972
    16  H    0.176874
    17  Br  -0.161776
    18  C    0.198358
    19  C   -0.237228
    20  C   -0.114732
    21  C   -0.152351
    22  C   -0.119155
    23  C   -0.274601
    24  H    0.153907
    25  H    0.146023
    26  H    0.146799
    27  H    0.145328
    28  H    0.150353
 Sum of Mulliken charges =  -0.00000

 Dipole moment (field-independent basis, Debye):
    X=             -4.2025    Y=             11.8477    Z=             -0.0094  Tot=             12.5709
 Quadrupole moment (field-independent basis, Debye-Ang):
   XX=            -94.4756   YY=            -97.1439   ZZ=            -87.1868
   XY=              4.1045   XZ=              0.7787   YZ=             -7.7171

  Exact polarizability: 260.084 -15.555 221.727   1.537   2.901 203.044
 Approx polarizability: 199.380 -13.428 178.633  -0.526   3.754 177.736

 ******    1 imaginary frequencies (negative Signs) ******

                      1                      2                      3
                      A                      A                      A
 Frequencies --   -335.3844                30.7780                41.0803
 Red. masses --      5.5146                 3.9212                 4.7720
 Frc consts  --      0.3655                 0.0022                 0.0047
 IR Inten    --    854.1075                 1.6704                 1.9238

                      4                      5                      6
                      A                      A                      A
 Frequencies --     63.0254                76.9265                93.3933
 Red. masses --      5.6325                 3.7467                 2.8676
 Frc consts  --      0.0132                 0.0131                 0.0147
 IR Inten    --      3.3112                 1.2478                 1.0111

                      7                      8                      9
                      A                      A                      A
 Frequencies --    116.3215               173.1277               176.4815
 Red. masses --      2.9858                 2.0756                 4.7198
 Frc consts  --      0.0238                 0.0367                 0.0866
 IR Inten    --      9.6078                 1.5420                 4.5195

                     10                     11                     12
                      A                      A                      A
 Frequencies --    180.1204               215.9618               225.8344
 Red. masses --      2.2416                 1.9867                 3.5052
 Frc consts  --      0.0428                 0.0546                 0.1053
 IR Inten    --      3.4690                 5.8022                 6.2382

                     13                     14                     15
                      A                      A                      A
 Frequencies --    258.4096               267.6759               311.0177
 Red. masses --      2.5508                 1.7696                 2.5940
 Frc consts  --      0.1004                 0.0747                 0.1478
 IR Inten    --      5.1024                 4.2244                 4.5614

                     16                     17                     18
                      A                      A                      A
 Frequencies --    360.5589               414.5599               446.4996
 Red. masses --      5.2842                 2.8727                 4.0524
 Frc consts  --      0.4047                 0.2909                 0.4760
 IR Inten    --     12.6311                 1.0642                47.5109

                     19                     20                     21
                      A                      A                      A
 Frequencies --    486.3078               530.8187               611.5804
 Red. masses --      4.1831                 4.2686                 2.9268
 Frc consts  --      0.5829                 0.7086                 0.6450
 IR Inten    --     97.4466                15.1697                12.6974

                     22                     23                     24
                      A                      A                      A
 Frequencies --    634.5920               638.6634               660.8980
 Red. masses --      5.4970                 1.6179                 4.8343
 Frc consts  --      1.3043                 0.3888                 1.2441
 IR Inten    --      2.6445                72.1508                61.9523

                     25                     26                     27
                      A                      A                      A
 Frequencies --    727.8287               769.6490               805.6891
 Red. masses --      1.5433                 5.0308                 3.8993
 Frc consts  --      0.4817                 1.7558                 1.4913
 IR Inten    --     83.0099                53.5197                53.0654

                     28                     29                     30
                      A                      A                      A
 Frequencies --    831.0716               881.6325               959.3872
 Red. masses --      3.3156                 1.2478                 1.4032
 Frc consts  --      1.3492                 0.5714                 0.7610
 IR Inten    --     55.4318                 0.0778                41.2319

                     31                     32                     33
                      A                      A                      A
 Frequencies --    962.1503               991.3613              1010.3090
 Red. masses --      1.4928                 1.1311                 1.1286
 Frc consts  --      0.8142                 0.6550                 0.6788
 IR Inten    --     34.7190                14.8451                79.3507

                     34                     35                     36
                      A                      A                      A
 Frequencies --   1014.2759              1025.4768              1033.4453
 Red. masses --      1.3804                 6.1045                 1.3195
 Frc consts  --      0.8367                 3.7822                 0.8303
 IR Inten    --      0.5307                 1.0867                 1.6420

                     37                     38                     39
                      A                      A                      A
 Frequencies --   1040.2803              1061.6932              1076.2116
 Red. masses --      1.5914                 2.1016                 4.2032
 Frc consts  --      1.0147                 1.3957                 2.8683
 IR Inten    --     25.7079                12.3949                66.9155

                     40                     41                     42
                      A                      A                      A
 Frequencies --   1110.9743              1120.9133              1156.4707
 Red. masses --      1.5878                 2.5071                 1.3593
 Frc consts  --      1.1547                 1.8559                 1.0711
 IR Inten    --     10.2461                45.0210                90.6041

                     43                     44                     45
                      A                      A                      A
 Frequencies --   1179.9583              1184.2654              1208.4865
 Red. masses --      2.6175                 1.1408                 1.1237
 Frc consts  --      2.1472                 0.9427                 0.9669
 IR Inten    --     44.8558                 0.0377                 0.8532

                     46                     47                     48
                      A                      A                      A
 Frequencies --   1215.2208              1287.8574              1319.4577
 Red. masses --      1.4303                 1.3922                 4.3751
 Frc consts  --      1.2445                 1.3604                 4.4878
 IR Inten    --     16.7368               147.3760                 3.0778

                     49                     50                     51
                      A                      A                      A
 Frequencies --   1339.7726              1344.1603              1360.7826
 Red. masses --      1.9390                 2.4876                 1.4541
 Frc consts  --      2.0506                 2.6481                 1.5864
 IR Inten    --     60.5765               112.9687                 8.0196

                     52                     53                     54
                      A                      A                      A
 Frequencies --   1414.3418              1458.4412              1474.5577
 Red. masses --      1.2504                 1.3381                 1.2446
 Frc consts  --      1.4737                 1.6770                 1.5945
 IR Inten    --     21.0034               217.2971               138.3295

                     55                     56                     57
                      A                      A                      A
 Frequencies --   1487.8248              1487.9505              1492.8754
 Red. masses --      2.0190                 1.0945                 1.0470
 Frc consts  --      2.6332                 1.4277                 1.3748
 IR Inten    --     13.6013                 0.2881                 5.6374

                     58                     59                     60
                      A                      A                      A
 Frequencies --   1507.4601              1511.8571              1540.3020
 Red. masses --      1.9339                 1.0467                 2.3141
 Frc consts  --      2.5893                 1.4096                 3.2348
 IR Inten    --    544.4769                 4.6413                14.5693

                     61                     62                     63
                      A                      A                      A
 Frequencies --   1643.7863              1649.7216              1652.1204
 Red. masses --      8.1702                 1.1127                 6.4929
 Frc consts  --     13.0069                 1.7842                10.4417
 IR Inten    --    465.2239                66.3166               312.9401

                     64                     65                     66
                      A                      A                      A
 Frequencies --   1673.4397              3060.7904              3065.0019
 Red. masses --      5.8274                 1.0333                 1.0379
 Frc consts  --      9.6149                 5.7035                 5.7447
 IR Inten    --      0.3821                53.8624                12.2293

                     67                     68                     69
                      A                      A                      A
 Frequencies --   3137.0850              3137.5269              3153.1235
 Red. masses --      1.1022                 1.1015                 1.1054
 Frc consts  --      6.3910                 6.3889                 6.4749
 IR Inten    --      6.7761                31.6507                14.3571

                     70                     71                     72
                      A                      A                      A
 Frequencies --   3160.3453              3192.1796              3194.9067
 Red. masses --      1.1036                 1.0866                 1.0885
 Frc consts  --      6.4944                 6.5235                 6.5461
 IR Inten    --     14.8923                 3.3076                 1.7150

                     73                     74                     75
                      A                      A                      A
 Frequencies --   3200.4227              3203.6536              3212.2487
 Red. masses --      1.0891                 1.0912                 1.0950
 Frc consts  --      6.5724                 6.5988                 6.6571
 IR Inten    --      6.5403                 6.8625                33.9263

                     76                     77                     78
                      A                      A                      A
 Frequencies --   3222.5816              3529.6667              3614.3479
 Red. masses --      1.0989                 1.0504                 1.0963
 Frc consts  --      6.7236                 7.7106                 8.4383
 IR Inten    --     19.0185                21.5034                37.9598

 - Thermochemistry -
 -------------------
 Temperature   298.150 Kelvin.  Pressure   1.00000 Atm.
 Atom     1 has atomic number  6 and mass  12.00000

 Molecular mass:   255.02588 amu.
 Principal axes and moments of inertia in atomic units:
                           1         2         3
     Eigenvalues --  2197.916125519.862616579.87128
           X            0.99976   0.02061   0.00693
           Y           -0.02054   0.99974  -0.00962
           Z           -0.00713   0.00948   0.99993
 This molecule is an asymmetric top.
 Rotational symmetry number  1.
 Warning -- assumption of classical behavior for rotation
           may cause significant error
 Rotational temperatures (Kelvin)      0.03941     0.01569     0.01316
 Rotational constants (GHZ):           0.82111     0.32695     0.27428
    1 imaginary frequencies ignored.
 Zero-point vibrational energy     604783.9 (Joules/Mol)
                                  144.54682 (Kcal/Mol)
 Warning -- explicit consideration of  20 degrees of freedom as
           vibrations may cause significant error
 Vibrational temperatures:     44.28    59.11    90.68   110.68   134.37
          (Kelvin)            167.36   249.09   253.92   259.15   310.72
                              324.93   371.79   385.13   447.49   518.76
                              596.46   642.41   699.69   763.73   879.93
                              913.04   918.89   950.88  1047.18  1107.35
                             1159.21  1195.73  1268.47  1380.34  1384.32
                             1426.35  1453.61  1459.32  1475.43  1486.90
                             1496.73  1527.54  1548.43  1598.44  1612.74
                             1663.90  1697.70  1703.89  1738.74  1748.43
                             1852.94  1898.41  1927.63  1933.95  1957.86
                             2034.92  2098.37  2121.56  2140.65  2140.83
                             2147.91  2168.90  2175.23  2216.15  2365.04
                             2373.58  2377.03  2407.71  4403.79  4409.85
                             4513.57  4514.20  4536.64  4547.03  4592.83
                             4596.76  4604.69  4609.34  4621.71  4636.58
                             5078.40  5200.24

 Zero-point correction=                           0.230350 (Hartree/Particle)
 Thermal correction to Energy=                    0.245044
 Thermal correction to Enthalpy=                  0.245989
 Thermal correction to Gibbs Free Energy=         0.186523
 Sum of electronic and zero-point Energies=          -3131.552400
 Sum of electronic and thermal Energies=             -3131.537706
 Sum of electronic and thermal Enthalpies=           -3131.536762
 Sum of electronic and thermal Free Energies=        -3131.596227

                     E (Thermal)             CV                S
                      KCal/Mol        Cal/Mol-Kelvin    Cal/Mol-Kelvin
 Total                  153.768             52.767            125.156
 Electronic               0.000              0.000              0.000
 Translational            0.889              2.981             42.509
 Rotational               0.889              2.981             32.745
 Vibrational            151.990             46.805             49.902
 Vibration     1          0.594              1.984              5.779
 Vibration     2          0.594              1.981              5.206
 Vibration     3          0.597              1.972              4.360
 Vibration     4          0.599              1.965              3.968
 Vibration     5          0.602              1.954              3.588
 Vibration     6          0.608              1.936              3.161
 Vibration     7          0.627              1.876              2.401
 Vibration     8          0.628              1.871              2.365
 Vibration     9          0.629              1.867              2.327
 Vibration    10          0.645              1.817              1.993
 Vibration    11          0.650              1.802              1.912
 Vibration    12          0.667              1.749              1.672
 Vibration    13          0.673              1.733              1.611
 Vibration    14          0.700              1.653              1.357
 Vibration    15          0.735              1.554              1.120
 Vibration    16          0.778              1.439              0.911
 Vibration    17          0.806              1.369              0.806
 Vibration    18          0.842              1.280              0.693
 Vibration    19          0.886              1.182              0.585
 Vibration    20          0.971              1.007              0.430

 Optimization completed.
    -- Stationary point found.
 Normal termination of Gaussian 16 at Sun Feb 14 04:13:48 2021.
