 Gaussian 16, Revision A.03,
 Gaussian 16:  ES64L-G16RevA.03 25-Dec-2016

 ----------------------------------------------------------------------
 # wB97XD def2tzvp, opt=(ts, noeigen, calcfc, maxcycles=70, maxstep=8),
  freq=noraman, scrf=(iefpcm, solvent=water)
 ----------------------------------------------------------------------

 ------------------------
 1_iteration/TS-456-1.out
 ------------------------
 Symbolic Z-matrix:
 Charge =  0 Multiplicity = 1

 SCF Done:  E(RwB97XD) =  -558.167196040     A.U. after   15 cycles
 Optimization completed.
    -- Stationary point found.
 Normal termination of Gaussian 16 at Sat Feb 13 23:58:28 2021.

 ---------------------------------------------------------------------
 #N Geom=AllCheck Guess=TCheck SCRF=Check GenChk RwB97XD/def2TZVP Freq
 ---------------------------------------------------------------------

 Structure from the checkpoint file:  "/beegfs/scratch/user/q/tla25/Gau-45444.chk"
 ------------------------
 1_iteration/TS-456-1.out
 ------------------------
 Charge =  0 Multiplicity = 1

                         Standard orientation:
 ---------------------------------------------------------------------
 Center     Atomic      Atomic             Coordinates (Angstroms)
 Number     Number       Type             X           Y           Z
 ---------------------------------------------------------------------
      1          6           0       -0.861920    0.807161    0.067200
      2          6           0        0.020770   -0.231789    0.460890
      3          8           0       -0.364390   -1.276319    1.018780
      4          6           0       -2.205190    0.742341    0.410140
      5          6           0       -4.368320   -1.179198   -0.408750
      6          1           0       -4.630590   -2.095138   -0.942700
      7          1           0       -4.419280   -1.373828    0.662900
      8          1           0       -5.099160   -0.410988   -0.655930
      9          7           0       -3.031840   -0.702498   -0.739430
     10          1           0       -2.324970   -1.408849   -0.572460
     11          1           0       -2.955580   -0.389629   -1.698790
     12          6           0       -3.125740    1.890192    0.138040
     13          1           0       -2.953149    2.663471    0.890460
     14          1           0       -2.935670    2.326871   -0.842920
     15          1           0       -4.173020    1.598722    0.203230
     16          1           0       -2.451550    0.140781    1.278840
     17          1           0       -0.522330    1.587131   -0.601350
     18          6           0        1.490720   -0.086489    0.160200
     19          6           0        2.272570   -1.235139    0.063460
     20          6           0        3.629000   -1.149380   -0.206450
     21          6           0        4.227740    0.092690   -0.370760
     22          6           0        3.461160    1.244591   -0.264800
     23          6           0        2.101380    1.154841   -0.005730
     24          1           0        1.798910   -2.198349    0.202520
     25          1           0        4.221890   -2.051940   -0.287910
     26          1           0        5.288450    0.162650   -0.577070
     27          1           0        3.923680    2.216770   -0.380940
     28          1           0        1.517340    2.061441    0.087220
 ---------------------------------------------------------------------

 SCF Done:  E(RwB97XD) =  -558.167196040     A.U. after    1 cycles

 The electronic state is 1-A.
 Alpha  occ. eigenvalues --  -19.20160 -14.46085 -10.34776 -10.33064 -10.31180
 Alpha  occ. eigenvalues --  -10.29264 -10.29113 -10.29086 -10.28962 -10.28936
 Alpha  occ. eigenvalues --  -10.28770 -10.27942 -10.24487  -1.10651  -1.01816
 Alpha  occ. eigenvalues --   -0.96437  -0.89673  -0.86178  -0.85020  -0.80301
 Alpha  occ. eigenvalues --   -0.77916  -0.72745  -0.70295  -0.67423  -0.62884
 Alpha  occ. eigenvalues --   -0.61588  -0.60200  -0.56239  -0.55593  -0.54319
 Alpha  occ. eigenvalues --   -0.53616  -0.52821  -0.51856  -0.50903  -0.49346
 Alpha  occ. eigenvalues --   -0.48599  -0.47973  -0.47490  -0.46138  -0.44717
 Alpha  occ. eigenvalues --   -0.43904  -0.43398  -0.42163  -0.39444  -0.33814
 Alpha  occ. eigenvalues --   -0.33586  -0.32137  -0.27684
 Alpha virt. eigenvalues --    0.01614   0.05370   0.07913   0.10539   0.13374
 Alpha virt. eigenvalues --    0.13969   0.14306   0.15479   0.15955   0.16442
 Alpha virt. eigenvalues --    0.17034   0.18653   0.18712   0.19336   0.19968

 Mulliken charges:
               1
     1  C   -0.422572
     2  C    0.342702
     3  O   -0.552612
     4  C    0.026807
     5  C   -0.275285
     6  H    0.144173
     7  H    0.144002
     8  H    0.146368
     9  N   -0.385492
    10  H    0.270616
    11  H    0.268844
    12  C   -0.338584
    13  H    0.143482
    14  H    0.132575
    15  H    0.134504
    16  H    0.135199
    17  H    0.134254
    18  C    0.130103
    19  C   -0.235106
    20  C   -0.130543
    21  C   -0.139556
    22  C   -0.146223
    23  C   -0.240351
    24  H    0.136793
    25  H    0.141898
    26  H    0.144816
    27  H    0.142093
    28  H    0.147097
 Sum of Mulliken charges =  -0.00000

 Dipole moment (field-independent basis, Debye):
    X=             -5.4275    Y=              1.6218    Z=             -4.0221  Tot=              6.9473
 Quadrupole moment (field-independent basis, Debye-Ang):
   XX=            -48.7376   YY=            -75.0310   ZZ=            -81.8001
   XY=              2.3931   XZ=              3.7094   YZ=              3.9539

  Exact polarizability: 286.222  -1.071 204.689  -1.636  -4.042 134.903
 Approx polarizability: 196.796   0.655 172.946  -4.019  -5.324 119.408

 ******    1 imaginary frequencies (negative Signs) ******

                      1                      2                      3
                      A                      A                      A
 Frequencies --   -342.7259                34.3637                36.6511
 Red. masses --      5.7456                 3.3228                 2.9442
 Frc consts  --      0.3976                 0.0023                 0.0023
 IR Inten    --    859.1665                 1.1595                 2.8231

                      4                      5                      6
                      A                      A                      A
 Frequencies --     48.7401                69.6566               117.8689
 Red. masses --      2.8180                 3.2159                 4.0873
 Frc consts  --      0.0039                 0.0092                 0.0335
 IR Inten    --      4.0614                27.0964                 9.8052

                      7                      8                      9
                      A                      A                      A
 Frequencies --    145.9701               174.1284               200.4402
 Red. masses --      1.8266                 1.7922                 1.2795
 Frc consts  --      0.0229                 0.0320                 0.0303
 IR Inten    --      2.3202                 0.4437                10.2367

                     10                     11                     12
                      A                      A                      A
 Frequencies --    205.2191               225.5134               283.3457
 Red. masses --      3.4869                 2.3614                 3.1824
 Frc consts  --      0.0865                 0.0708                 0.1505
 IR Inten    --      1.8787                20.3011                 4.7507

                     13                     14                     15
                      A                      A                      A
 Frequencies --    350.7059               383.0799               420.4609
 Red. masses --      3.0703                 4.0785                 2.8657
 Frc consts  --      0.2225                 0.3526                 0.2985
 IR Inten    --     11.6952                 8.6281                 0.6652

                     16                     17                     18
                      A                      A                      A
 Frequencies --    438.5457               461.3002               535.0886
 Red. masses --      3.7796                 3.6358                 3.2349
 Frc consts  --      0.4283                 0.4558                 0.5457
 IR Inten    --     11.0429                57.3322                 3.5123

                     19                     20                     21
                      A                      A                      A
 Frequencies --    599.5568               635.7449               683.0474
 Red. masses --      1.3366                 6.3942                 6.1931
 Frc consts  --      0.2831                 1.5226                 1.7024
 IR Inten    --     73.1662                 0.1348                16.2605

                     22                     23                     24
                      A                      A                      A
 Frequencies --    719.5293               726.5855               752.6526
 Red. masses --      2.4079                 1.4003                 1.5561
 Frc consts  --      0.7345                 0.4355                 0.5194
 IR Inten    --     27.2891                60.6879               199.3431

                     25                     26                     27
                      A                      A                      A
 Frequencies --    834.9507               864.0209               881.4064
 Red. masses --      3.0202                 5.3167                 1.2507
 Frc consts  --      1.2405                 2.3385                 0.5725
 IR Inten    --     15.6189                18.0838                 0.4073

                     28                     29                     30
                      A                      A                      A
 Frequencies --    931.9811               972.0602               978.9158
 Red. masses --      1.5657                 1.4746                 1.1474
 Frc consts  --      0.8013                 0.8209                 0.6478
 IR Inten    --     57.8261                16.4220               109.0815

                     31                     32                     33
                      A                      A                      A
 Frequencies --   1005.3650              1017.5767              1025.6558
 Red. masses --      1.1007                 1.3871                 4.8360
 Frc consts  --      0.6555                 0.8463                 2.9974
 IR Inten    --     91.4662                 0.8944                 2.1880

                     34                     35                     36
                      A                      A                      A
 Frequencies --   1028.3256              1032.2560              1058.1412
 Red. masses --      1.4651                 1.3182                 2.1697
 Frc consts  --      0.9128                 0.8276                 1.4313
 IR Inten    --     33.7045                 1.2049                25.5667

                     37                     38                     39
                      A                      A                      A
 Frequencies --   1074.0962              1102.3584              1123.2577
 Red. masses --      3.4954                 1.6142                 2.0936
 Frc consts  --      2.3759                 1.1557                 1.5563
 IR Inten    --    194.4395                30.9470                 1.2101

                     40                     41                     42
                      A                      A                      A
 Frequencies --   1138.4663              1165.4778              1182.1914
 Red. masses --      2.2280                 1.3021                 1.1356
 Frc consts  --      1.7014                 1.0420                 0.9351
 IR Inten    --     16.3343               213.9438                 0.6072

                     43                     44                     45
                      A                      A                      A
 Frequencies --   1190.6817              1201.7046              1245.6049
 Red. masses --      1.4222                 1.1395                 1.8325
 Frc consts  --      1.1880                 0.9695                 1.6752
 IR Inten    --     21.7956                14.2695                27.0381

                     46                     47                     48
                      A                      A                      A
 Frequencies --   1279.8883              1327.5183              1344.5291
 Red. masses --      1.5459                 3.1741                 1.3324
 Frc consts  --      1.4920                 3.2957                 1.4192
 IR Inten    --    284.3502                11.4674                 4.0647

                     49                     50                     51
                      A                      A                      A
 Frequencies --   1349.7660              1373.6644              1414.1863
 Red. masses --      1.7713                 2.0517                 1.3508
 Frc consts  --      1.9013                 2.2810                 1.5917
 IR Inten    --     11.8023                20.6002                19.9151

                     52                     53                     54
                      A                      A                      A
 Frequencies --   1460.2795              1478.4079              1480.3357
 Red. masses --      1.2062                 1.0807                 1.3082
 Frc consts  --      1.5154                 1.3917                 1.6890
 IR Inten    --     78.8021                41.3677               135.0173

                     55                     56                     57
                      A                      A                      A
 Frequencies --   1488.7394              1491.3639              1509.7580
 Red. masses --      1.6424                 1.0435                 1.0540
 Frc consts  --      2.1447                 1.3674                 1.4155
 IR Inten    --     17.2891                10.2733                76.2011

                     58                     59                     60
                      A                      A                      A
 Frequencies --   1528.4096              1543.5790              1618.5548
 Red. masses --      2.5703                 2.5809                 5.8304
 Frc consts  --      3.5376                 3.6231                 8.9992
 IR Inten    --    712.0619               383.1072               316.9642

                     61                     62                     63
                      A                      A                      A
 Frequencies --   1644.7281              1659.8954              1672.3051
 Red. masses --      1.1403                 5.8433                 5.9689
 Frc consts  --      1.8174                 9.4857                 9.8349
 IR Inten    --     46.1517                75.3521                 8.5658

                     64                     65                     66
                      A                      A                      A
 Frequencies --   3052.1253              3058.8806              3122.9525
 Red. masses --      1.0364                 1.0375                 1.1019
 Frc consts  --      5.6880                 5.7196                 6.3319
 IR Inten    --     78.5741                19.4523                26.9084

                     67                     68                     69
                      A                      A                      A
 Frequencies --   3126.3743              3148.4690              3153.5892
 Red. masses --      1.0996                 1.1014                 1.1038
 Frc consts  --      6.3322                 6.4327                 6.4679
 IR Inten    --     23.0907                16.0114                23.9488

                     70                     71                     72
                      A                      A                      A
 Frequencies --   3171.7637              3192.6564              3199.9655
 Red. masses --      1.0919                 1.0858                 1.0888
 Frc consts  --      6.4720                 6.5207                 6.5689
 IR Inten    --     36.3590                 0.9337                10.1201

                     73                     74                     75
                      A                      A                      A
 Frequencies --   3205.3626              3211.6936              3218.0464
 Red. masses --      1.0903                 1.0913                 1.0934
 Frc consts  --      6.5999                 6.6325                 6.6712
 IR Inten    --     10.2186                14.2936                32.9716

                     76                     77                     78
                      A                      A                      A
 Frequencies --   3222.7920              3526.4871              3615.9944
 Red. masses --      1.0976                 1.0511                 1.0965
 Frc consts  --      6.7167                 7.7013                 8.4470
 IR Inten    --     16.7862                12.1761                43.6236

 - Thermochemistry -
 -------------------
 Temperature   298.150 Kelvin.  Pressure   1.00000 Atm.
 Atom     1 has atomic number  6 and mass  12.00000

 Molecular mass:   177.11536 amu.
 Principal axes and moments of inertia in atomic units:
                           1         2         3
     Eigenvalues --   945.880235123.839985758.45997
           X            1.00000  -0.00039   0.00170
           Y            0.00037   0.99993   0.01167
           Z           -0.00171  -0.01167   0.99993
 This molecule is an asymmetric top.
 Rotational symmetry number  1.
 Warning -- assumption of classical behavior for rotation
           may cause significant error
 Rotational temperatures (Kelvin)      0.09157     0.01690     0.01504
 Rotational constants (GHZ):           1.90800     0.35222     0.31341
    1 imaginary frequencies ignored.
 Zero-point vibrational energy     629210.3 (Joules/Mol)
                                  150.38488 (Kcal/Mol)
 Warning -- explicit consideration of  18 degrees of freedom as
           vibrations may cause significant error
 Vibrational temperatures:     49.44    52.73    70.13   100.22   169.59
          (Kelvin)            210.02   250.53   288.39   295.26   324.46
                              407.67   504.59   551.17   604.95   630.97
                              663.71   769.87   862.63   914.70   982.75
                             1035.24  1045.39  1082.90  1201.31  1243.13
                             1268.15  1340.91  1398.58  1408.44  1446.50
                             1464.07  1475.69  1479.53  1485.19  1522.43
                             1545.38  1586.05  1616.12  1638.00  1676.86
                             1700.91  1713.13  1728.98  1792.15  1841.47
                             1910.00  1934.48  1942.01  1976.40  2034.70
                             2101.02  2127.10  2129.87  2141.96  2145.74
                             2172.20  2199.04  2220.87  2328.74  2366.40
                             2388.22  2406.07  4391.33  4401.05  4493.23
                             4498.16  4529.94  4537.31  4563.46  4593.52
                             4604.04  4611.80  4620.91  4630.05  4636.88
                             5073.83  5202.61

 Zero-point correction=                           0.239654 (Hartree/Particle)
 Thermal correction to Energy=                    0.253109
 Thermal correction to Enthalpy=                  0.254053
 Thermal correction to Gibbs Free Energy=         0.197846
 Sum of electronic and zero-point Energies=           -557.927542
 Sum of electronic and thermal Energies=              -557.914087
 Sum of electronic and thermal Enthalpies=            -557.913143
 Sum of electronic and thermal Free Energies=         -557.969351

                     E (Thermal)             CV                S
                      KCal/Mol        Cal/Mol-Kelvin    Cal/Mol-Kelvin
 Total                  158.828             49.025            118.299
 Electronic               0.000              0.000              0.000
 Translational            0.889              2.981             41.422
 Rotational               0.889              2.981             31.701
 Vibrational            157.051             43.063             45.176
 Vibration     1          0.594              1.983              5.560
 Vibration     2          0.594              1.982              5.432
 Vibration     3          0.595              1.978              4.868
 Vibration     4          0.598              1.969              4.163
 Vibration     5          0.608              1.934              3.135
 Vibration     6          0.617              1.907              2.724
 Vibration     7          0.627              1.874              2.390
 Vibration     8          0.638              1.839              2.129
 Vibration     9          0.640              1.832              2.086
 Vibration    10          0.650              1.802              1.914
 Vibration    11          0.682              1.705              1.513
 Vibration    12          0.728              1.574              1.163
 Vibration    13          0.752              1.506              1.027
 Vibration    14          0.783              1.426              0.890
 Vibration    15          0.799              1.386              0.831
 Vibration    16          0.819              1.336              0.762
 Vibration    17          0.890              1.172              0.576
 Vibration    18          0.958              1.033              0.450

 Optimization completed.
    -- Stationary point found.
 Normal termination of Gaussian 16 at Sun Feb 14 00:32:46 2021.
