 Gaussian 16, Revision A.03,
 Gaussian 16:  ES64L-G16RevA.03 25-Dec-2016

 ----------------------------------------------------------------------
 # wB97XD def2tzvp, opt=(ts, noeigen, calcfc, maxcycles=70, maxstep=1),
  freq=noraman, scrf=(iefpcm, solvent=water)
 ----------------------------------------------------------------------

 ------------------------
 0_iteration/TS-491-0.out
 ------------------------
 Symbolic Z-matrix:
 Charge =  0 Multiplicity = 1

 SCF Done:  E(RwB97XD) =  -421.812359274     A.U. after   14 cycles
 SCF Done:  E(RwB97XD) =  -421.812317979     A.U. after   10 cycles
 SCF Done:  E(RwB97XD) =  -421.812282340     A.U. after   10 cycles
 SCF Done:  E(RwB97XD) =  -421.812253261     A.U. after   10 cycles
 SCF Done:  E(RwB97XD) =  -421.812231884     A.U. after   10 cycles
 SCF Done:  E(RwB97XD) =  -421.812216152     A.U. after   10 cycles
 SCF Done:  E(RwB97XD) =  -421.812203191     A.U. after   10 cycles
 SCF Done:  E(RwB97XD) =  -421.812195383     A.U. after   10 cycles
 SCF Done:  E(RwB97XD) =  -421.812194692     A.U. after   10 cycles
 SCF Done:  E(RwB97XD) =  -421.812211052     A.U. after   11 cycles
 SCF Done:  E(RwB97XD) =  -421.812498643     A.U. after   10 cycles
 SCF Done:  E(RwB97XD) =  -421.812536209     A.U. after   10 cycles
 SCF Done:  E(RwB97XD) =  -421.812568650     A.U. after   10 cycles
 SCF Done:  E(RwB97XD) =  -421.812595740     A.U. after   10 cycles
 SCF Done:  E(RwB97XD) =  -421.812617387     A.U. after   10 cycles
 SCF Done:  E(RwB97XD) =  -421.812633533     A.U. after   10 cycles
 SCF Done:  E(RwB97XD) =  -421.812644078     A.U. after   10 cycles
 SCF Done:  E(RwB97XD) =  -421.812648738     A.U. after   10 cycles
 SCF Done:  E(RwB97XD) =  -421.812648893     A.U. after    8 cycles
 Optimization completed.
    -- Stationary point found.
 Normal termination of Gaussian 16 at Sat Feb 13 06:09:44 2021.

 ---------------------------------------------------------------------
 #N Geom=AllCheck Guess=TCheck SCRF=Check GenChk RwB97XD/def2TZVP Freq
 ---------------------------------------------------------------------

 Structure from the checkpoint file:  "/beegfs/scratch/user/q/tla25/Gau-12308.chk"
 ------------------------
 0_iteration/TS-491-0.out
 ------------------------
 Charge =  0 Multiplicity = 1

                         Standard orientation:
 ---------------------------------------------------------------------
 Center     Atomic      Atomic             Coordinates (Angstroms)
 Number     Number       Type             X           Y           Z
 ---------------------------------------------------------------------
      1          6           0        0.508219   -0.400943   -0.766558
      2          6           0        1.657803   -0.037707   -0.013231
      3          8           0        1.677558    0.146634    1.223453
      4          6           0       -0.737711   -0.691184   -0.175335
      5          6           0       -1.346591    2.067359   -0.166566
      6          1           0       -1.255988    3.011527    0.371054
      7          1           0       -0.526465    1.986660   -0.883816
      8          1           0       -2.293223    2.051390   -0.703309
      9          7           0       -1.271589    0.920845    0.725187
     10          1           0       -0.466469    0.984968    1.343377
     11          1           0       -2.109868    0.811534    1.282672
     12          6           0       -1.883394   -0.899049   -1.136599
     13          1           0       -1.874190   -0.158542   -1.936373
     14          1           0       -1.788043   -1.887492   -1.590996
     15          1           0       -2.845715   -0.859466   -0.625039
     16          6           0       -0.813830   -1.600256    1.032957
     17          1           0       -0.668297   -2.626621    0.688277
     18          1           0       -0.035655   -1.366376    1.754547
     19          1           0       -1.792097   -1.550701    1.514885
     20          1           0        0.531804   -0.212516   -1.833532
     21          7           0        2.817152    0.217880   -0.727530
     22          1           0        2.921378   -0.220754   -1.626533
     23          1           0        3.656437    0.262928   -0.174450
 ---------------------------------------------------------------------

 SCF Done:  E(RwB97XD) =  -421.812648893     A.U. after    1 cycles

 The electronic state is 1-A.
 Alpha  occ. eigenvalues --  -19.18822 -14.46971 -14.42344 -10.36087 -10.33842
 Alpha  occ. eigenvalues --  -10.30935 -10.27477 -10.26849 -10.23002  -1.10742
 Alpha  occ. eigenvalues --   -1.02790  -0.97591  -0.90747  -0.79736  -0.79470
 Alpha  occ. eigenvalues --   -0.77302  -0.68079  -0.62251  -0.61751  -0.58360
 Alpha  occ. eigenvalues --   -0.56423  -0.56044  -0.54684  -0.52081  -0.49751
 Alpha  occ. eigenvalues --   -0.49153  -0.47755  -0.47045  -0.46896  -0.45332
 Alpha  occ. eigenvalues --   -0.43804  -0.42975  -0.39321  -0.34397  -0.32466
 Alpha  occ. eigenvalues --   -0.26194
 Alpha virt. eigenvalues --    0.07417   0.10285   0.13099   0.13644   0.14602
 Alpha virt. eigenvalues --    0.16251   0.16314   0.17428   0.18355   0.19367
 Alpha virt. eigenvalues --    0.19630   0.20686   0.21063   0.22310   0.23055

 Mulliken charges:
               1
     1  C   -0.555596
     2  C    0.372821
     3  O   -0.601240
     4  C    0.206317
     5  C   -0.293132
     6  H    0.149235
     7  H    0.143984
     8  H    0.153874
     9  N   -0.327588
    10  H    0.267977
    11  H    0.276332
    12  C   -0.377799
    13  H    0.140005
    14  H    0.143844
    15  H    0.137561
    16  C   -0.367621
    17  H    0.129762
    18  H    0.145572
    19  H    0.122875
    20  H    0.123730
    21  N   -0.508078
    22  H    0.264380
    23  H    0.252786
 Sum of Mulliken charges =  -0.00000

 Dipole moment (field-independent basis, Debye):
    X=             -5.2962    Y=              1.2490    Z=             -1.6015  Tot=              5.6723
 Quadrupole moment (field-independent basis, Debye-Ang):
   XX=            -48.1262   YY=            -55.0367   ZZ=            -57.4481
   XY=             -4.5024   XZ=             -9.1016   YZ=              1.5197

  Exact polarizability: 157.925  -1.000 120.631  -6.891   5.583 122.882
 Approx polarizability: 117.055  -0.188  96.666  -4.750   5.025 105.356

 ******    1 imaginary frequencies (negative Signs) ******

                      1                      2                      3
                      A                      A                      A
 Frequencies --   -400.2037                75.5942                84.1663
 Red. masses --      4.7262                 3.5711                 4.5070
 Frc consts  --      0.4460                 0.0120                 0.0188
 IR Inten    --    695.6840                12.1133                32.6944

                      4                      5                      6
                      A                      A                      A
 Frequencies --    122.7345               191.6823               200.9204
 Red. masses --      2.0358                 1.3787                 1.8334
 Frc consts  --      0.0181                 0.0298                 0.0436
 IR Inten    --     26.4269                 0.5475                 9.8800

                      7                      8                      9
                      A                      A                      A
 Frequencies --    216.4449               229.6603               262.3901
 Red. masses --      1.5203                 1.6813                 1.1107
 Frc consts  --      0.0420                 0.0522                 0.0451
 IR Inten    --      2.1050                 3.3033                 2.4198

                     10                     11                     12
                      A                      A                      A
 Frequencies --    301.6976               330.6399               356.9795
 Red. masses --      2.4208                 3.0535                 2.7370
 Frc consts  --      0.1298                 0.1967                 0.2055
 IR Inten    --      8.4457                23.4506                 9.9354

                     13                     14                     15
                      A                      A                      A
 Frequencies --    395.9314               431.2860               450.7715
 Red. masses --      2.9116                 1.3492                 1.0761
 Frc consts  --      0.2689                 0.1479                 0.1288
 IR Inten    --     53.6968               383.6249                67.0595

                     16                     17                     18
                      A                      A                      A
 Frequencies --    490.3435               501.8869               651.2414
 Red. masses --      2.4281                 2.5611                 2.5034
 Frc consts  --      0.3440                 0.3801                 0.6255
 IR Inten    --     29.2413                 2.9086                25.3748

                     19                     20                     21
                      A                      A                      A
 Frequencies --    672.8240               700.4435               796.4884
 Red. masses --      1.3648                 1.5411                 8.2804
 Frc consts  --      0.3640                 0.4455                 3.0950
 IR Inten    --    123.2571                53.2075                62.6374

                     22                     23                     24
                      A                      A                      A
 Frequencies --    863.0162               950.9586               971.1143
 Red. masses --      3.2395                 1.3629                 2.3054
 Frc consts  --      1.4215                 0.7262                 1.2810
 IR Inten    --      7.0825                 4.0171                 4.8456

                     25                     26                     27
                      A                      A                      A
 Frequencies --   1001.9535              1024.2892              1056.4097
 Red. masses --      1.1346                 1.3148                 1.2159
 Frc consts  --      0.6711                 0.8128                 0.7995
 IR Inten    --     94.9222                15.5236               143.3182

                     28                     29                     30
                      A                      A                      A
 Frequencies --   1078.4528              1083.5988              1095.2816
 Red. masses --      2.1147                 2.1499                 1.4662
 Frc consts  --      1.4491                 1.4873                 1.0363
 IR Inten    --    103.1121                21.5117                63.4495

                     31                     32                     33
                      A                      A                      A
 Frequencies --   1118.1131              1209.5708              1220.6449
 Red. masses --      2.2139                 1.5934                 1.6904
 Frc consts  --      1.6307                 1.3735                 1.4840
 IR Inten    --     16.0369                20.0924               100.9155

                     34                     35                     36
                      A                      A                      A
 Frequencies --   1311.3941              1353.3631              1372.6227
 Red. masses --      2.3359                 1.3547                 2.1540
 Frc consts  --      2.3669                 1.4619                 2.3911
 IR Inten    --    275.2939                12.6104                15.7440

                     37                     38                     39
                      A                      A                      A
 Frequencies --   1408.2887              1419.3164              1452.1684
 Red. masses --      1.3885                 1.3413                 1.1864
 Frc consts  --      1.6225                 1.5919                 1.4741
 IR Inten    --     37.2211                 8.3379                18.2624

                     40                     41                     42
                      A                      A                      A
 Frequencies --   1471.5040              1481.6543              1484.2512
 Red. masses --      1.2627                 1.1434                 1.1044
 Frc consts  --      1.6109                 1.4790                 1.4335
 IR Inten    --    310.0795               121.6670                62.4263

                     43                     44                     45
                      A                      A                      A
 Frequencies --   1495.1672              1503.0964              1507.2386
 Red. masses --      1.0492                 1.0766                 1.0522
 Frc consts  --      1.3819                 1.4331                 1.4084
 IR Inten    --     12.2788                49.7183                58.3626

                     46                     47                     48
                      A                      A                      A
 Frequencies --   1522.6188              1605.8106              1628.4820
 Red. masses --      1.7762                 2.0992                 1.6831
 Frc consts  --      2.4262                 3.1892                 2.6299
 IR Inten    --    417.0823               370.3448               430.5132

                     49                     50                     51
                      A                      A                      A
 Frequencies --   1653.3062              3053.0115              3054.3347
 Red. masses --      1.1890                 1.0347                 1.0390
 Frc consts  --      1.9148                 5.6824                 5.7108
 IR Inten    --      7.9985                57.2319                30.0333

                     52                     53                     54
                      A                      A                      A
 Frequencies --   3058.2605              3116.5149              3124.8203
 Red. masses --      1.0368                 1.1014                 1.1031
 Frc consts  --      5.7134                 6.3027                 6.3460
 IR Inten    --     38.1014                32.5852                14.3646

                     55                     56                     57
                      A                      A                      A
 Frequencies --   3129.6155              3144.3577              3157.5201
 Red. masses --      1.1009                 1.1037                 1.1043
 Frc consts  --      6.3528                 6.4292                 6.4870
 IR Inten    --     35.8246                35.3583                18.1574

                     58                     59                     60
                      A                      A                      A
 Frequencies --   3180.6117              3182.4570              3484.0981
 Red. masses --      1.0882                 1.0983                 1.0556
 Frc consts  --      6.4859                 6.5536                 7.5498
 IR Inten    --     21.4612                 6.4844                38.9136

                     61                     62                     63
                      A                      A                      A
 Frequencies --   3594.1071              3603.2871              3719.2006
 Red. masses --      1.0922                 1.0466                 1.1014
 Frc consts  --      8.3122                 8.0059                 8.9762
 IR Inten    --     69.1058                47.3689                39.1755

 - Thermochemistry -
 -------------------
 Temperature   298.150 Kelvin.  Pressure   1.00000 Atm.
 Atom     1 has atomic number  6 and mass  12.00000

 Molecular mass:   130.11061 amu.
 Principal axes and moments of inertia in atomic units:
                           1         2         3
     Eigenvalues --   876.207901586.441741760.96680
           X            0.99992  -0.00455  -0.01147
           Y            0.00415   0.99938  -0.03487
           Z            0.01162   0.03482   0.99933
 This molecule is an asymmetric top.
 Rotational symmetry number  1.
 Warning -- assumption of classical behavior for rotation
           may cause significant error
 Rotational temperatures (Kelvin)      0.09885     0.05460     0.04919
 Rotational constants (GHZ):           2.05972     1.13760     1.02486
    1 imaginary frequencies ignored.
 Zero-point vibrational energy     534790.6 (Joules/Mol)
                                  127.81803 (Kcal/Mol)
 Warning -- explicit consideration of  16 degrees of freedom as
           vibrations may cause significant error
 Vibrational temperatures:    108.76   121.10   176.59   275.79   289.08
          (Kelvin)            311.42   330.43   377.52   434.08   475.72
                              513.61   569.66   620.52   648.56   705.49
                              722.10   936.99   968.04  1007.78  1145.97
                             1241.69  1368.22  1397.22  1441.59  1473.72
                             1519.94  1551.65  1559.06  1575.87  1608.72
                             1740.30  1756.24  1886.80  1947.19  1974.90
                             2026.21  2042.08  2089.35  2117.17  2131.77
                             2135.51  2151.21  2162.62  2168.58  2190.71
                             2310.40  2343.02  2378.74  4392.60  4394.51
                             4400.15  4483.97  4495.92  4502.82  4524.03
                             4542.97  4576.19  4578.85  5012.84  5171.12
                             5184.33  5351.10

 Zero-point correction=                           0.203691 (Hartree/Particle)
 Thermal correction to Energy=                    0.214806
 Thermal correction to Enthalpy=                  0.215750
 Thermal correction to Gibbs Free Energy=         0.167922
 Sum of electronic and zero-point Energies=           -421.608958
 Sum of electronic and thermal Energies=              -421.597843
 Sum of electronic and thermal Enthalpies=            -421.596899
 Sum of electronic and thermal Free Energies=         -421.644727

                     E (Thermal)             CV                S
                      KCal/Mol        Cal/Mol-Kelvin    Cal/Mol-Kelvin
 Total                  134.793             41.082            100.663
 Electronic               0.000              0.000              0.000
 Translational            0.889              2.981             40.503
 Rotational               0.889              2.981             29.283
 Vibrational            133.015             35.120             30.877
 Vibration     1          0.599              1.965              4.002
 Vibration     2          0.601              1.960              3.791
 Vibration     3          0.610              1.930              3.057
 Vibration     4          0.634              1.851              2.211
 Vibration     5          0.638              1.839              2.125
 Vibration     6          0.645              1.816              1.989
 Vibration     7          0.652              1.796              1.882
 Vibration     8          0.670              1.742              1.646
 Vibration     9          0.694              1.670              1.407
 Vibration    10          0.713              1.614              1.257
 Vibration    11          0.732              1.561              1.135
 Vibration    12          0.763              1.479              0.978
 Vibration    13          0.792              1.402              0.854
 Vibration    14          0.810              1.359              0.793
 Vibration    15          0.846              1.271              0.683
 Vibration    16          0.857              1.246              0.653

 Optimization completed.
    -- Stationary point found.
 Normal termination of Gaussian 16 at Sat Feb 13 06:22:46 2021.
