 Gaussian 16, Revision A.03,
 Gaussian 16:  ES64L-G16RevA.03 25-Dec-2016

 ----------------------------------------------------------------------
 # wB97XD def2tzvp, opt=(ts, noeigen, calcfc, maxcycles=70, maxstep=3),
  freq=noraman, scrf=(iefpcm, solvent=water)
 ----------------------------------------------------------------------

 ------------------------
 3_iteration/TS-415-3.out
 ------------------------
 Symbolic Z-matrix:
 Charge =  0 Multiplicity = 1

 SCF Done:  E(RwB97XD) =  -844.591652288     A.U. after   14 cycles
 SCF Done:  E(RwB97XD) =  -844.591672233     A.U. after   11 cycles
 SCF Done:  E(RwB97XD) =  -844.591673001     A.U. after    8 cycles
 SCF Done:  E(RwB97XD) =  -844.591673004     A.U. after    7 cycles
 SCF Done:  E(RwB97XD) =  -844.591672992     A.U. after    6 cycles
 Optimization completed.
    -- Stationary point found.
 Normal termination of Gaussian 16 at Sun Feb 14 22:59:48 2021.

 ---------------------------------------------------------------------
 #N Geom=AllCheck Guess=TCheck SCRF=Check GenChk RwB97XD/def2TZVP Freq
 ---------------------------------------------------------------------

 Structure from the checkpoint file:  "/beegfs/scratch/user/q/tla25/Gau-29442.chk"
 ------------------------
 3_iteration/TS-415-3.out
 ------------------------
 Charge =  0 Multiplicity = 1

                         Standard orientation:
 ---------------------------------------------------------------------
 Center     Atomic      Atomic             Coordinates (Angstroms)
 Number     Number       Type             X           Y           Z
 ---------------------------------------------------------------------
      1          6           0        0.470474    1.027097   -0.982121
      2          6           0       -0.535908    0.331144   -0.256496
      3          8           0       -0.349028   -0.230616    0.838786
      4          6           0        1.819494    1.034240   -0.577202
      5          6           0        1.175289    3.083866    1.268450
      6          1           0        0.756614    3.306907    2.250250
      7          1           0        1.925667    3.832150    1.020777
      8          1           0        0.372398    3.120414    0.528398
      9          7           0        1.769760    1.757772    1.221560
     10          1           0        2.641928    1.712052    1.731763
     11          1           0        1.131170    1.049102    1.581651
     12          6           0        2.695276    2.035855   -1.297546
     13          1           0        2.925205    1.649372   -2.292315
     14          1           0        2.183647    2.990900   -1.411264
     15          1           0        3.638953    2.199934   -0.779787
     16          6           0        2.541617   -0.258759   -0.267645
     17          6           0        3.766429   -0.273414    0.399218
     18          6           0        4.456270   -1.457279    0.609678
     19          6           0        3.940035   -2.656863    0.143141
     20          6           0        2.733859   -2.655426   -0.541428
     21          6           0        2.047349   -1.468784   -0.746995
     22          1           0        4.207786    0.647745    0.759166
     23          1           0        5.402534   -1.438802    1.135512
     24          1           0        4.477478   -3.582780    0.304281
     25          1           0        2.324180   -3.582749   -0.922143
     26          1           0        1.115024   -1.474021   -1.294630
     27          1           0        0.157086    1.774085   -1.700584
     28          7           0       -1.798030    0.350943   -0.838715
     29          6           0       -3.029237   -0.053750   -0.331841
     30          6           0       -3.200523   -0.701626    0.894960
     31          6           0       -4.473016   -1.066067    1.312706
     32          6           0       -5.591337   -0.806981    0.535707
     33          6           0       -5.422191   -0.167228   -0.685622
     34          6           0       -4.161806    0.205603   -1.114360
     35          1           0       -1.837523    0.793951   -1.740944
     36          1           0       -2.337899   -0.913631    1.504637
     37          1           0       -4.584097   -1.566026    2.267491
     38          1           0       -6.577514   -1.098417    0.872814
     39          1           0       -6.279253    0.046700   -1.312303
     40          1           0       -4.045717    0.707274   -2.068603
 ---------------------------------------------------------------------

 SCF Done:  E(RwB97XD) =  -844.591672992     A.U. after    1 cycles

 The electronic state is 1-A.
 Alpha  occ. eigenvalues --  -19.19937 -14.46998 -14.45538 -10.37369 -10.34885
 Alpha  occ. eigenvalues --  -10.33502 -10.31017 -10.30175 -10.29232 -10.29038
 Alpha  occ. eigenvalues --  -10.28961 -10.28871 -10.28830 -10.28747 -10.28665
 Alpha  occ. eigenvalues --  -10.28498 -10.28008 -10.27923 -10.27790 -10.23973
 Alpha  occ. eigenvalues --   -1.12399  -1.03354  -1.02747  -0.96982  -0.95068
 Alpha  occ. eigenvalues --   -0.91090  -0.85434  -0.85039  -0.84780  -0.83701
 Alpha  occ. eigenvalues --   -0.79702  -0.78208  -0.73455  -0.71333  -0.70567
 Alpha  occ. eigenvalues --   -0.69944  -0.66479  -0.64138  -0.62419  -0.62182
 Alpha  occ. eigenvalues --   -0.60602  -0.57763  -0.57380  -0.56799  -0.55414
 Alpha  occ. eigenvalues --   -0.54077  -0.53529  -0.52939  -0.52147  -0.51779
 Alpha  occ. eigenvalues --   -0.51104  -0.50564  -0.50053  -0.49049  -0.48762
 Alpha  occ. eigenvalues --   -0.47552  -0.46659  -0.46138  -0.46062  -0.45896
 Alpha  occ. eigenvalues --   -0.44406  -0.42640  -0.42438  -0.42257  -0.40447
 Alpha  occ. eigenvalues --   -0.39147  -0.34213  -0.33665  -0.33522  -0.32337
 Alpha  occ. eigenvalues --   -0.30138  -0.26137
 Alpha virt. eigenvalues --    0.02777   0.05420   0.05619   0.05873   0.09470
 Alpha virt. eigenvalues --    0.10539   0.12389   0.13569   0.13874   0.14664
 Alpha virt. eigenvalues --    0.14875   0.15342   0.16431   0.16757   0.17074

 Mulliken charges:
               1
     1  C   -0.640067
     2  C    0.453958
     3  O   -0.596681
     4  C    0.338901
     5  C   -0.302730
     6  H    0.151343
     7  H    0.155256
     8  H    0.147549
     9  N   -0.322981
    10  H    0.264316
    11  H    0.271812
    12  C   -0.378893
    13  H    0.149459
    14  H    0.144689
    15  H    0.144027
    16  C    0.161154
    17  C   -0.280949
    18  C   -0.171155
    19  C   -0.144677
    20  C   -0.145058
    21  C   -0.227762
    22  H    0.158914
    23  H    0.141909
    24  H    0.143464
    25  H    0.140643
    26  H    0.155327
    27  H    0.131104
    28  N   -0.279999
    29  C    0.307323
    30  C   -0.304941
    31  C   -0.107941
    32  C   -0.205919
    33  C   -0.097434
    34  C   -0.317529
    35  H    0.249299
    36  H    0.157879
    37  H    0.139125
    38  H    0.138328
    39  H    0.141170
    40  H    0.137769
 Sum of Mulliken charges =  -0.00000

 Dipole moment (field-independent basis, Debye):
    X=              4.7324    Y=              5.1958    Z=             -0.0834  Tot=              7.0285
 Quadrupole moment (field-independent basis, Debye-Ang):
   XX=           -105.6439   YY=           -106.8177   ZZ=           -112.9607
   XY=              5.3192   XZ=             12.2067   YZ=              1.6472

  Exact polarizability: 398.677  17.128 283.090  23.068 -13.576 264.351
 Approx polarizability: 287.334  10.792 230.766  20.763 -13.157 230.278

 ******    1 imaginary frequencies (negative Signs) ******

                      1                      2                      3
                      A                      A                      A
 Frequencies --   -398.2660                23.5240                30.7082
 Red. masses --      4.8684                 4.8120                 3.9192
 Frc consts  --      0.4550                 0.0016                 0.0022
 IR Inten    --    815.6982                 1.3395                 0.2017

                      4                      5                      6
                      A                      A                      A
 Frequencies --     52.3860                73.7647                78.8703
 Red. masses --      4.4083                 3.8990                 4.9475
 Frc consts  --      0.0071                 0.0125                 0.0181
 IR Inten    --      2.2472                 2.1630                 2.3617

                      7                      8                      9
                      A                      A                      A
 Frequencies --    100.7148               116.5922               134.8347
 Red. masses --      2.9864                 4.1936                 4.1561
 Frc consts  --      0.0178                 0.0336                 0.0445
 IR Inten    --      2.7731                24.0295                24.6467

                     10                     11                     12
                      A                      A                      A
 Frequencies --    169.2760               196.0171               216.8751
 Red. masses --      2.2976                 1.1511                 3.4373
 Frc consts  --      0.0388                 0.0261                 0.0953
 IR Inten    --     24.1208                 5.6039                 2.4031

                     13                     14                     15
                      A                      A                      A
 Frequencies --    231.0213               243.3163               251.9477
 Red. masses --      2.0392                 2.0020                 3.8067
 Frc consts  --      0.0641                 0.0698                 0.1424
 IR Inten    --      1.3000                 3.7735                10.6503

                     16                     17                     18
                      A                      A                      A
 Frequencies --    272.3620               298.9161               317.2213
 Red. masses --      3.2302                 2.7148                 3.9417
 Frc consts  --      0.1412                 0.1429                 0.2337
 IR Inten    --      0.3641                 3.5266                33.4056

                     19                     20                     21
                      A                      A                      A
 Frequencies --    353.7515               359.1486               408.2622
 Red. masses --      4.9554                 5.5261                 3.6139
 Frc consts  --      0.3654                 0.4200                 0.3549
 IR Inten    --     22.6985                 0.8977                 1.8793

                     22                     23                     24
                      A                      A                      A
 Frequencies --    423.7466               431.0700               499.9681
 Red. masses --      3.0259                 2.9918                 4.2169
 Frc consts  --      0.3201                 0.3276                 0.6211
 IR Inten    --      0.0544                 0.2487                68.0052

                     25                     26                     27
                      A                      A                      A
 Frequencies --    527.9525               544.8416               561.4311
 Red. masses --      2.5894                 1.1693                 3.2557
 Frc consts  --      0.4252                 0.2045                 0.6046
 IR Inten    --     33.0949                60.4521                28.8878

                     28                     29                     30
                      A                      A                      A
 Frequencies --    578.5752               621.2277               634.7421
 Red. masses --      2.8549                 3.9697                 6.2928
 Frc consts  --      0.5631                 0.9026                 1.4938
 IR Inten    --     38.4275                 5.3278                 2.9984

                     31                     32                     33
                      A                      A                      A
 Frequencies --    639.2119               663.1333               697.4940
 Red. masses --      6.2931                 1.3431                 1.7373
 Frc consts  --      1.5150                 0.3480                 0.4980
 IR Inten    --      0.2099               204.5375               123.9425

                     34                     35                     36
                      A                      A                      A
 Frequencies --    719.6146               733.7775               767.9673
 Red. masses --      1.8887                 1.6889                 4.4968
 Frc consts  --      0.5762                 0.5358                 1.5626
 IR Inten    --     68.0476                88.6278                 7.8636

                     37                     38                     39
                      A                      A                      A
 Frequencies --    781.6310               789.8623               796.3482
 Red. masses --      1.8087                 4.0328                 2.5186
 Frc consts  --      0.6510                 1.4824                 0.9411
 IR Inten    --     78.8060                76.6024                45.5435

                     40                     41                     42
                      A                      A                      A
 Frequencies --    810.7078               861.5690               867.8925
 Red. masses --      4.7306                 1.2685                 4.7492
 Frc consts  --      1.8319                 0.5548                 2.1077
 IR Inten    --      8.0027                 0.0476                 4.0658

                     43                     44                     45
                      A                      A                      A
 Frequencies --    885.9856               929.9019               968.0961
 Red. masses --      1.2387                 1.4689                 1.3773
 Frc consts  --      0.5729                 0.7484                 0.7605
 IR Inten    --      1.1465                14.8749                23.3729

                     46                     47                     48
                      A                      A                      A
 Frequencies --    997.7607               999.2806              1004.2692
 Red. masses --      2.0309                 1.3366                 1.2473
 Frc consts  --      1.1912                 0.7863                 0.7411
 IR Inten    --     17.6248                 0.0725                45.9510

                     49                     50                     51
                      A                      A                      A
 Frequencies --   1014.3899              1017.1446              1025.6731
 Red. masses --      1.2979                 5.1451                 1.4685
 Frc consts  --      0.7869                 3.1362                 0.9102
 IR Inten    --      0.9300                17.3861                 4.0003

                     52                     53                     54
                      A                      A                      A
 Frequencies --   1026.9221              1030.3345              1038.1860
 Red. masses --      3.8443                 1.5557                 1.8521
 Frc consts  --      2.3886                 0.9730                 1.1761
 IR Inten    --      3.8560                37.1488                83.7194

                     55                     56                     57
                      A                      A                      A
 Frequencies --   1056.6020              1060.9248              1066.3415
 Red. masses --      1.8173                 1.8859                 1.8183
 Frc consts  --      1.1953                 1.2507                 1.2181
 IR Inten    --     32.3589                14.5699                17.3518

                     58                     59                     60
                      A                      A                      A
 Frequencies --   1074.7195              1092.6560              1118.3203
 Red. masses --      1.6409                 3.3515                 1.5845
 Frc consts  --      1.1167                 2.3575                 1.1675
 IR Inten    --     61.0286                22.0374                31.8959

                     61                     62                     63
                      A                      A                      A
 Frequencies --   1122.8666              1124.9602              1180.3135
 Red. masses --      2.1116                 1.6285                 1.1265
 Frc consts  --      1.5686                 1.2143                 0.9247
 IR Inten    --     13.6075                20.5327                11.4206

                     64                     65                     66
                      A                      A                      A
 Frequencies --   1184.7112              1189.8182              1207.6155
 Red. masses --      1.1267                 1.7279                 1.1581
 Frc consts  --      0.9317                 1.4412                 0.9950
 IR Inten    --      0.0284               738.1632                 5.0365

                     67                     68                     69
                      A                      A                      A
 Frequencies --   1213.3862              1223.9749              1252.1182
 Red. masses --      1.3117                 1.1976                 3.6174
 Frc consts  --      1.1379                 1.0570                 3.3415
 IR Inten    --     35.2831                13.7907               159.7774

                     70                     71                     72
                      A                      A                      A
 Frequencies --   1278.6203              1324.2885              1336.8594
 Red. masses --      2.8830                 4.6080                 3.1155
 Frc consts  --      2.7770                 4.7613                 3.2806
 IR Inten    --    118.6906                 6.0605               554.9533

                     73                     74                     75
                      A                      A                      A
 Frequencies --   1351.7946              1358.3769              1368.9717
 Red. masses --      1.3856                 1.7276                 1.4005
 Frc consts  --      1.4918                 1.8781                 1.5464
 IR Inten    --      8.4611                 5.8919                 4.0696

                     76                     77                     78
                      A                      A                      A
 Frequencies --   1378.2654              1413.2092              1457.9499
 Red. masses --      2.3053                 1.2421                 1.2332
 Frc consts  --      2.5801                 1.4615                 1.5444
 IR Inten    --     26.5317                 5.2190                72.4914

                     79                     80                     81
                      A                      A                      A
 Frequencies --   1465.6078              1476.5027              1483.4602
 Red. masses --      1.8531                 1.7037                 1.5290
 Frc consts  --      2.3453                 2.1883                 1.9824
 IR Inten    --     45.8183               783.1593                95.5929

                     82                     83                     84
                      A                      A                      A
 Frequencies --   1488.5408              1496.9313              1502.1067
 Red. masses --      1.0541                 1.0723                 2.0582
 Frc consts  --      1.3761                 1.4157                 2.7362
 IR Inten    --     20.4003                30.2746               681.0624

                     85                     86                     87
                      A                      A                      A
 Frequencies --   1509.9008              1545.3184              1547.4733
 Red. masses --      1.0557                 2.4021                 2.4043
 Frc consts  --      1.4180                 3.3797                 3.3922
 IR Inten    --     10.5747               119.2323                84.8696

                     88                     89                     90
                      A                      A                      A
 Frequencies --   1552.5594              1634.7237              1651.6913
 Red. masses --      2.1958                 1.8813                 3.3161
 Frc consts  --      3.1184                 2.9620                 5.3302
 IR Inten    --    466.9918               328.7837                10.8484

                     91                     92                     93
                      A                      A                      A
 Frequencies --   1654.8104              1664.9547              1675.2963
 Red. masses --      3.4043                 2.6260                 5.7322
 Frc consts  --      5.4926                 4.2889                 9.4789
 IR Inten    --     28.1538                68.7744                92.0808

                     94                     95                     96
                      A                      A                      A
 Frequencies --   1676.1516              3053.5243              3065.0189
 Red. masses --      5.6716                 1.0344                 1.0368
 Frc consts  --      9.3883                 5.6826                 5.7387
 IR Inten    --    188.9009                54.9982                19.5237

                     97                     98                     99
                      A                      A                      A
 Frequencies --   3124.0995              3138.1468              3155.8107
 Red. masses --      1.1028                 1.1004                 1.1039
 Frc consts  --      6.3416                 6.3848                 6.4775
 IR Inten    --     14.8068                21.6610                35.4397

                    100                    101                    102
                      A                      A                      A
 Frequencies --   3158.1901              3182.5715              3189.9763
 Red. masses --      1.1042                 1.0881                 1.0889
 Frc consts  --      6.4888                 6.4935                 6.5285
 IR Inten    --     16.7682                15.8063                19.6217

                    103                    104                    105
                      A                      A                      A
 Frequencies --   3193.2716              3193.4251              3199.4710
 Red. masses --      1.0881                 1.0857                 1.0885
 Frc consts  --      6.5374                 6.5231                 6.5652
 IR Inten    --      2.9449                 4.8584                 3.8892

                    106                    107                    108
                      A                      A                      A
 Frequencies --   3203.0931              3209.1301              3219.3764
 Red. masses --      1.0930                 1.0928                 1.0978
 Frc consts  --      6.6069                 6.6310                 6.7037
 IR Inten    --     32.9466                33.6812                25.4672

                    109                    110                    111
                      A                      A                      A
 Frequencies --   3220.3619              3230.1282              3271.1659
 Red. masses --      1.0969                 1.0940                 1.0920
 Frc consts  --      6.7021                 6.7250                 6.8845
 IR Inten    --     26.1582                 9.3888                 6.3152

                    112                    113                    114
                      A                      A                      A
 Frequencies --   3436.2393              3601.7503              3649.1270
 Red. masses --      1.0634                 1.0855                 1.0766
 Frc consts  --      7.3979                 8.2968                 8.4469
 IR Inten    --     92.2752                69.5423                41.1761

 - Thermochemistry -
 -------------------
 Temperature   298.150 Kelvin.  Pressure   1.00000 Atm.
 Atom     1 has atomic number  6 and mass  12.00000

 Molecular mass:   268.15756 amu.
 Principal axes and moments of inertia in atomic units:
                           1         2         3
     Eigenvalues --  2850.37107********************
           X            0.99996   0.00820   0.00182
           Y           -0.00820   0.99996  -0.00237
           Z           -0.00183   0.00236   1.00000
 This molecule is an asymmetric top.
 Rotational symmetry number  1.
 Warning -- assumption of classical behavior for rotation
           may cause significant error
 Rotational temperatures (Kelvin)      0.03039     0.00830     0.00738
 Rotational constants (GHZ):           0.63316     0.17300     0.15371
    1 imaginary frequencies ignored.
 Zero-point vibrational energy     891085.1 (Joules/Mol)
                                  212.97444 (Kcal/Mol)
 Warning -- explicit consideration of  27 degrees of freedom as
           vibrations may cause significant error
 Vibrational temperatures:     33.85    44.18    75.37   106.13   113.48
          (Kelvin)            144.91   167.75   194.00   243.55   282.02
                              312.03   332.39   350.08   362.50   391.87
                              430.07   456.41   508.97   516.73   587.40
                              609.68   620.21   719.34   759.61   783.91
                              807.77   832.44   893.81   913.25   919.68
                              954.10  1003.54  1035.36  1055.74  1104.93
                             1124.59  1136.44  1145.77  1166.43  1239.61
                             1248.70  1274.74  1337.92  1392.87  1435.56
                             1437.74  1444.92  1459.48  1463.44  1475.71
                             1477.51  1482.42  1493.72  1520.21  1526.43
                             1534.23  1546.28  1572.09  1609.01  1615.55
                             1618.57  1698.21  1704.54  1711.88  1737.49
                             1745.79  1761.03  1801.52  1839.65  1905.36
                             1923.44  1944.93  1954.40  1969.64  1983.02
                             2033.29  2097.66  2108.68  2124.36  2134.37
                             2141.68  2153.75  2161.20  2172.41  2223.37
                             2226.47  2233.79  2352.00  2376.42  2380.90
                             2395.50  2410.38  2411.61  4393.34  4409.88
                             4494.88  4515.09  4540.51  4543.93  4579.01
                             4589.66  4594.41  4594.63  4603.33  4608.54
                             4617.22  4631.96  4633.38  4647.43  4706.48
                             4943.98  5182.12  5250.28

 Zero-point correction=                           0.339396 (Hartree/Particle)
 Thermal correction to Energy=                    0.357862
 Thermal correction to Enthalpy=                  0.358806
 Thermal correction to Gibbs Free Energy=         0.291666
 Sum of electronic and zero-point Energies=           -844.252277
 Sum of electronic and thermal Energies=              -844.233811
 Sum of electronic and thermal Enthalpies=            -844.232867
 Sum of electronic and thermal Free Energies=         -844.300007

                     E (Thermal)             CV                S
                      KCal/Mol        Cal/Mol-Kelvin    Cal/Mol-Kelvin
 Total                  224.562             71.792            141.309
 Electronic               0.000              0.000              0.000
 Translational            0.889              2.981             42.658
 Rotational               0.889              2.981             34.212
 Vibrational            222.784             65.830             64.439
 Vibration     1          0.593              1.985              6.312
 Vibration     2          0.594              1.984              5.783
 Vibration     3          0.596              1.977              4.725
 Vibration     4          0.599              1.966              4.050
 Vibration     5          0.600              1.963              3.919
 Vibration     6          0.604              1.949              3.440
 Vibration     7          0.608              1.936              3.156
 Vibration     8          0.613              1.919              2.876
 Vibration     9          0.625              1.880              2.444
 Vibration    10          0.636              1.845              2.170
 Vibration    11          0.646              1.815              1.985
 Vibration    12          0.653              1.794              1.871
 Vibration    13          0.659              1.774              1.778
 Vibration    14          0.664              1.759              1.717
 Vibration    15          0.675              1.724              1.581
 Vibration    16          0.692              1.676              1.423
 Vibration    17          0.704              1.641              1.324
 Vibration    18          0.730              1.568              1.149
 Vibration    19          0.734              1.556              1.126
 Vibration    20          0.773              1.452              0.933
 Vibration    21          0.786              1.419              0.879
 Vibration    22          0.792              1.403              0.855
 Vibration    23          0.855              1.250              0.658
 Vibration    24          0.883              1.188              0.592
 Vibration    25          0.900              1.151              0.555
 Vibration    26          0.917              1.115              0.521
 Vibration    27          0.935              1.078              0.488

 Optimization completed.
    -- Stationary point found.
 Normal termination of Gaussian 16 at Mon Feb 15 01:17:48 2021.
