 Gaussian 16, Revision A.03,
 Gaussian 16:  ES64L-G16RevA.03 25-Dec-2016

 ----------------------------------------------------------------------
 # wB97XD def2tzvp, opt=(ts, noeigen, calcfc, maxcycles=70, maxstep=1),
  freq=noraman, scrf=(iefpcm, solvent=water)
 ----------------------------------------------------------------------

 ------------------------
 0_iteration/TS-453-0.out
 ------------------------
 Symbolic Z-matrix:
 Charge =  0 Multiplicity = 1

 SCF Done:  E(RwB97XD) =  -421.795294290     A.U. after   14 cycles
 SCF Done:  E(RwB97XD) =  -421.795242537     A.U. after   10 cycles
 SCF Done:  E(RwB97XD) =  -421.795194746     A.U. after   10 cycles
 SCF Done:  E(RwB97XD) =  -421.795151029     A.U. after   10 cycles
 SCF Done:  E(RwB97XD) =  -421.795111500     A.U. after   10 cycles
 SCF Done:  E(RwB97XD) =  -421.795076328     A.U. after   10 cycles
 SCF Done:  E(RwB97XD) =  -421.795045764     A.U. after   10 cycles
 SCF Done:  E(RwB97XD) =  -421.795020235     A.U. after   10 cycles
 SCF Done:  E(RwB97XD) =  -421.795000476     A.U. after   10 cycles
 SCF Done:  E(RwB97XD) =  -421.794987675     A.U. after   10 cycles
 SCF Done:  E(RwB97XD) =  -421.796208622     A.U. after    9 cycles
 SCF Done:  E(RwB97XD) =  -421.796254243     A.U. after    9 cycles
 SCF Done:  E(RwB97XD) =  -421.796291746     A.U. after    9 cycles
 SCF Done:  E(RwB97XD) =  -421.796317681     A.U. after   10 cycles
 SCF Done:  E(RwB97XD) =  -421.796330758     A.U. after   10 cycles
 SCF Done:  E(RwB97XD) =  -421.796334419     A.U. after   10 cycles
 SCF Done:  E(RwB97XD) =  -421.796334303     A.U. after    9 cycles
 SCF Done:  E(RwB97XD) =  -421.796334651     A.U. after    8 cycles
 SCF Done:  E(RwB97XD) =  -421.796334671     A.U. after    6 cycles
 Optimization completed.
    -- Stationary point found.
 Normal termination of Gaussian 16 at Sat Feb 13 07:32:45 2021.

 ---------------------------------------------------------------------
 #N Geom=AllCheck Guess=TCheck SCRF=Check GenChk RwB97XD/def2TZVP Freq
 ---------------------------------------------------------------------

 Structure from the checkpoint file:  "/beegfs/scratch/user/q/tla25/Gau-43685.chk"
 ------------------------
 0_iteration/TS-453-0.out
 ------------------------
 Charge =  0 Multiplicity = 1

                         Standard orientation:
 ---------------------------------------------------------------------
 Center     Atomic      Atomic             Coordinates (Angstroms)
 Number     Number       Type             X           Y           Z
 ---------------------------------------------------------------------
      1          6           0       -0.114027   -1.201256   -0.117331
      2          6           0       -1.399831   -0.593221   -0.205162
      3          8           0       -2.376495   -1.124756   -0.768734
      4          6           0        1.034282   -0.598766    0.429917
      5          6           0        2.600522    1.681228   -0.198770
      6          1           0        2.785915    2.470937   -0.926349
      7          1           0        2.172327    2.119608    0.701750
      8          1           0        3.543694    1.202328    0.053345
      9          7           0        1.669390    0.679750   -0.722444
     10          1           0        0.805458    1.109635   -1.036102
     11          1           0        2.058407    0.174287   -1.511089
     12          6           0        2.245615   -1.468853    0.652252
     13          1           0        3.141831   -0.888159    0.868756
     14          1           0        2.059777   -2.120226    1.507006
     15          1           0        2.434376   -2.099452   -0.217933
     16          1           0        0.892007    0.110998    1.245061
     17          1           0        0.004189   -2.126119   -0.669246
     18          7           0       -1.558439    0.680638    0.324416
     19          6           0       -2.881324    1.240178    0.491170
     20          1           0       -0.889181    0.965533    1.018240
     21          1           0       -3.502939    0.665288    1.186217
     22          1           0       -2.784432    2.256586    0.870766
     23          1           0       -3.397547    1.278225   -0.466801
 ---------------------------------------------------------------------

 SCF Done:  E(RwB97XD) =  -421.796334671     A.U. after    1 cycles

 The electronic state is 1-A.
 Alpha  occ. eigenvalues --  -19.18036 -14.49016 -14.43102 -10.35488 -10.33585
 Alpha  occ. eigenvalues --  -10.32109 -10.29864 -10.27917 -10.22860  -1.10350
 Alpha  occ. eigenvalues --   -1.04513  -0.99436  -0.89251  -0.81322  -0.79369
 Alpha  occ. eigenvalues --   -0.75812  -0.69090  -0.64317  -0.63444  -0.59862
 Alpha  occ. eigenvalues --   -0.56721  -0.55131  -0.53504  -0.52324  -0.50512
 Alpha  occ. eigenvalues --   -0.49320  -0.48612  -0.48025  -0.46361  -0.45174
 Alpha  occ. eigenvalues --   -0.45128  -0.43074  -0.42149  -0.33009  -0.31767
 Alpha  occ. eigenvalues --   -0.25637
 Alpha virt. eigenvalues --    0.08640   0.09800   0.12379   0.13604   0.14579
 Alpha virt. eigenvalues --    0.15303   0.16434   0.17353   0.17601   0.18712
 Alpha virt. eigenvalues --    0.19459   0.20207   0.20522   0.21351   0.21882

 Mulliken charges:
               1
     1  C   -0.452416
     2  C    0.350568
     3  O   -0.598111
     4  C   -0.059401
     5  C   -0.279290
     6  H    0.158508
     7  H    0.151476
     8  H    0.151490
     9  N   -0.268259
    10  H    0.275271
    11  H    0.279728
    12  C   -0.356533
    13  H    0.130093
    14  H    0.140140
    15  H    0.134220
    16  H    0.137557
    17  H    0.102018
    18  N   -0.340680
    19  C   -0.260517
    20  H    0.236039
    21  H    0.111843
    22  H    0.132140
    23  H    0.124117
 Sum of Mulliken charges =  -0.00000

 Dipole moment (field-independent basis, Debye):
    X=             10.3671    Y=              7.0191    Z=              1.4845  Tot=             12.6075
 Quadrupole moment (field-independent basis, Debye-Ang):
   XX=            -58.4210   YY=            -57.7158   ZZ=            -54.9447
   XY=             -6.6089   XZ=             -9.4026   YZ=             -1.9762

  Exact polarizability: 166.650   9.708 130.662   3.291   2.580 106.782
 Approx polarizability: 120.706   7.925 104.315   3.932   3.078  91.716

 ******    1 imaginary frequencies (negative Signs) ******

                      1                      2                      3
                      A                      A                      A
 Frequencies --   -362.7419                49.6980                81.3703
 Red. masses --      5.8635                 3.4612                 2.7152
 Frc consts  --      0.4546                 0.0050                 0.0106
 IR Inten    --    769.8640                 4.3078                17.0470

                      4                      5                      6
                      A                      A                      A
 Frequencies --     90.8948               130.8962               157.4967
 Red. masses --      2.1150                 2.2195                 1.2105
 Frc consts  --      0.0103                 0.0224                 0.0177
 IR Inten    --      4.5640                11.6887                 0.7551

                      7                      8                      9
                      A                      A                      A
 Frequencies --    182.5602               192.1635               212.2251
 Red. masses --      1.6866                 1.6536                 1.2127
 Frc consts  --      0.0331                 0.0360                 0.0322
 IR Inten    --      6.4083                 4.9506                 4.5265

                     10                     11                     12
                      A                      A                      A
 Frequencies --    240.4112               289.4951               333.9178
 Red. masses --      2.7253                 2.9826                 2.4388
 Frc consts  --      0.0928                 0.1473                 0.1602
 IR Inten    --      5.5784                48.2986                 2.4060

                     13                     14                     15
                      A                      A                      A
 Frequencies --    370.2961               446.7735               484.8030
 Red. masses --      2.7651                 2.0607                 1.9849
 Frc consts  --      0.2234                 0.2423                 0.2749
 IR Inten    --     23.9948                13.7238               263.9326

                     16                     17                     18
                      A                      A                      A
 Frequencies --    568.0533               644.4423               700.0057
 Red. masses --      3.9262                 1.2106                 1.9702
 Frc consts  --      0.7465                 0.2962                 0.5688
 IR Inten    --     51.4761                83.6452                48.1432

                     19                     20                     21
                      A                      A                      A
 Frequencies --    715.7216               792.7158               879.4668
 Red. masses --      1.7029                 8.8832                 2.5026
 Frc consts  --      0.5139                 3.2889                 1.1405
 IR Inten    --     44.6360                76.6898                14.6454

                     22                     23                     24
                      A                      A                      A
 Frequencies --    961.3445              1008.5759              1042.3863
 Red. masses --      1.5917                 1.1308                 1.6947
 Frc consts  --      0.8667                 0.6777                 1.0849
 IR Inten    --     49.2615                 8.2750                74.6105

                     25                     26                     27
                      A                      A                      A
 Frequencies --   1052.5334              1092.1012              1135.4039
 Red. masses --      1.4330                 1.9840                 1.5356
 Frc consts  --      0.9354                 1.3942                 1.1663
 IR Inten    --     28.1750               113.6745                 3.4884

                     28                     29                     30
                      A                      A                      A
 Frequencies --   1141.5317              1160.9602              1181.2652
 Red. masses --      2.0495                 1.7324                 2.2511
 Frc consts  --      1.5735                 1.3757                 1.8507
 IR Inten    --     23.6032                63.1995                54.2797

                     31                     32                     33
                      A                      A                      A
 Frequencies --   1221.8608              1245.7074              1276.6319
 Red. masses --      1.2937                 1.4743                 1.4114
 Frc consts  --      1.1379                 1.3479                 1.3553
 IR Inten    --    327.2998                28.8816                26.9634

                     34                     35                     36
                      A                      A                      A
 Frequencies --   1291.9900              1336.4761              1346.9907
 Red. masses --      1.4110                 2.1719                 1.3200
 Frc consts  --      1.3877                 2.2857                 1.4110
 IR Inten    --    159.2532               239.8222                13.3232

                     37                     38                     39
                      A                      A                      A
 Frequencies --   1414.6494              1450.4199              1462.1469
 Red. masses --      1.2491                 1.1977                 1.2099
 Frc consts  --      1.4728                 1.4846                 1.5240
 IR Inten    --      5.2041                23.4547                24.0348

                     40                     41                     42
                      A                      A                      A
 Frequencies --   1478.5941              1480.5569              1484.9146
 Red. masses --      1.0983                 1.2950                 1.0496
 Frc consts  --      1.4147                 1.6725                 1.3635
 IR Inten    --     45.8124                67.2858                 4.1610

                     43                     44                     45
                      A                      A                      A
 Frequencies --   1493.7817              1500.2914              1507.0276
 Red. masses --      1.0453                 1.2254                 1.1578
 Frc consts  --      1.3743                 1.6251                 1.5493
 IR Inten    --     20.7362                24.1336                81.9084

                     46                     47                     48
                      A                      A                      A
 Frequencies --   1515.5144              1534.6888              1631.6166
 Red. masses --      1.3597                 1.5519                 5.0923
 Frc consts  --      1.8400                 2.1535                 7.9873
 IR Inten    --     60.9722               326.2855              1173.1042

                     49                     50                     51
                      A                      A                      A
 Frequencies --   1643.1764              3025.3363              3061.5368
 Red. masses --      1.0898                 1.0489                 1.0364
 Frc consts  --      1.7337                 5.6562                 5.7237
 IR Inten    --     33.6145               116.9100                22.2436

                     52                     53                     54
                      A                      A                      A
 Frequencies --   3074.2269              3095.8768              3109.8757
 Red. masses --      1.0335                 1.0879                 1.0861
 Frc consts  --      5.7550                 6.1432                 6.1889
 IR Inten    --     42.8205                34.5244                46.8039

                     55                     56                     57
                      A                      A                      A
 Frequencies --   3136.6841              3145.4401              3150.4185
 Red. masses --      1.1018                 1.1025                 1.1042
 Frc consts  --      6.3871                 6.4270                 6.4572
 IR Inten    --     26.3238                44.7390                26.7733

                     58                     59                     60
                      A                      A                      A
 Frequencies --   3152.5751              3172.8667              3186.4782
 Red. masses --      1.1056                 1.1054                 1.0879
 Frc consts  --      6.4742                 6.5563                 6.5079
 IR Inten    --     14.5539                15.4612                23.3451

                     61                     62                     63
                      A                      A                      A
 Frequencies --   3511.0216              3591.2312              3654.0514
 Red. masses --      1.0517                 1.0966                 1.0761
 Frc consts  --      7.6386                 8.3328                 8.4655
 IR Inten    --     18.7388                55.1466                14.5591

 - Thermochemistry -
 -------------------
 Temperature   298.150 Kelvin.  Pressure   1.00000 Atm.
 Atom     1 has atomic number  6 and mass  12.00000

 Molecular mass:   130.11061 amu.
 Principal axes and moments of inertia in atomic units:
                           1         2         3
     Eigenvalues --   769.988262025.980282490.20522
           X            0.99967  -0.02438  -0.00834
           Y            0.02433   0.99969  -0.00593
           Z            0.00849   0.00573   0.99995
 This molecule is an asymmetric top.
 Rotational symmetry number  1.
 Warning -- assumption of classical behavior for rotation
           may cause significant error
 Rotational temperatures (Kelvin)      0.11249     0.04275     0.03478
 Rotational constants (GHZ):           2.34386     0.89080     0.72474
    1 imaginary frequencies ignored.
 Zero-point vibrational energy     536669.7 (Joules/Mol)
                                  128.26713 (Kcal/Mol)
 Warning -- explicit consideration of  15 degrees of freedom as
           vibrations may cause significant error
 Vibrational temperatures:     71.50   117.07   130.78   188.33   226.60
          (Kelvin)            262.66   276.48   305.34   345.90   416.52
                              480.43   532.77   642.81   697.52   817.30
                              927.21  1007.15  1029.76  1140.54  1265.36
                             1383.16  1451.12  1499.76  1514.36  1571.29
                             1633.59  1642.41  1670.36  1699.58  1757.99
                             1792.30  1836.79  1858.89  1922.89  1938.02
                             2035.36  2086.83  2103.70  2127.37  2130.19
                             2136.46  2149.22  2158.58  2168.28  2180.49
                             2208.07  2347.53  2364.16  4352.78  4404.87
                             4423.13  4454.28  4474.42  4512.99  4525.59
                             4532.75  4535.85  4565.05  4584.63  5051.58
                             5166.98  5257.36

 Zero-point correction=                           0.204407 (Hartree/Particle)
 Thermal correction to Energy=                    0.215819
 Thermal correction to Enthalpy=                  0.216763
 Thermal correction to Gibbs Free Energy=         0.167107
 Sum of electronic and zero-point Energies=           -421.591928
 Sum of electronic and thermal Energies=              -421.580516
 Sum of electronic and thermal Enthalpies=            -421.579572
 Sum of electronic and thermal Free Energies=         -421.629228

                     E (Thermal)             CV                S
                      KCal/Mol        Cal/Mol-Kelvin    Cal/Mol-Kelvin
 Total                  135.428             39.921            104.511
 Electronic               0.000              0.000              0.000
 Translational            0.889              2.981             40.503
 Rotational               0.889              2.981             29.742
 Vibrational            133.651             33.959             34.266
 Vibration     1          0.595              1.978              4.829
 Vibration     2          0.600              1.962              3.858
 Vibration     3          0.602              1.956              3.641
 Vibration     4          0.612              1.922              2.933
 Vibration     5          0.621              1.894              2.580
 Vibration     6          0.630              1.864              2.302
 Vibration     7          0.634              1.851              2.207
 Vibration     8          0.643              1.822              2.024
 Vibration     9          0.657              1.779              1.800
 Vibration    10          0.686              1.693              1.477
 Vibration    11          0.715              1.608              1.241
 Vibration    12          0.742              1.533              1.079
 Vibration    13          0.806              1.368              0.806
 Vibration    14          0.841              1.284              0.697
 Vibration    15          0.924              1.100              0.508

 Optimization completed.
    -- Stationary point found.
 Normal termination of Gaussian 16 at Sat Feb 13 07:44:28 2021.
