 Gaussian 16, Revision A.03,
 Gaussian 16:  ES64L-G16RevA.03 25-Dec-2016

 ----------------------------------------------------------------------
 # wB97XD def2tzvp, opt=(ts, noeigen, calcfc, maxcycles=70, maxstep=8),
  freq=noraman, scrf=(iefpcm, solvent=water)
 ----------------------------------------------------------------------

 ------------------------
 1_iteration/TS-490-1.out
 ------------------------
 Symbolic Z-matrix:
 Charge =  0 Multiplicity = 1

 SCF Done:  E(RwB97XD) =  -405.748217467     A.U. after   14 cycles
 SCF Done:  E(RwB97XD) =  -405.748272781     A.U. after   12 cycles
 SCF Done:  E(RwB97XD) =  -405.748502376     A.U. after   12 cycles
 SCF Done:  E(RwB97XD) =  -405.748866778     A.U. after   12 cycles
 SCF Done:  E(RwB97XD) =  -405.749089548     A.U. after   12 cycles
 SCF Done:  E(RwB97XD) =  -405.749160600     A.U. after   11 cycles
 SCF Done:  E(RwB97XD) =  -405.749174024     A.U. after   11 cycles
 SCF Done:  E(RwB97XD) =  -405.749175129     A.U. after   10 cycles
 SCF Done:  E(RwB97XD) =  -405.749175468     A.U. after    9 cycles
 SCF Done:  E(RwB97XD) =  -405.749175451     A.U. after    9 cycles
 SCF Done:  E(RwB97XD) =  -405.749175408     A.U. after    8 cycles
 Optimization completed.
    -- Stationary point found.
 Normal termination of Gaussian 16 at Sat Feb 13 23:20:50 2021.

 ---------------------------------------------------------------------
 #N Geom=AllCheck Guess=TCheck SCRF=Check GenChk RwB97XD/def2TZVP Freq
 ---------------------------------------------------------------------

 Structure from the checkpoint file:  "/beegfs/scratch/user/q/tla25/Gau-28268.chk"
 ------------------------
 1_iteration/TS-490-1.out
 ------------------------
 Charge =  0 Multiplicity = 1

                         Standard orientation:
 ---------------------------------------------------------------------
 Center     Atomic      Atomic             Coordinates (Angstroms)
 Number     Number       Type             X           Y           Z
 ---------------------------------------------------------------------
      1          6           0        0.509409   -0.372572    0.749328
      2          6           0        1.651749   -0.067724   -0.027683
      3          8           0        1.671481   -0.003707   -1.273878
      4          6           0       -0.743129   -0.725638    0.224619
      5          6           0       -1.353790    2.109786    0.099788
      6          1           0       -1.303498    3.041197   -0.466501
      7          1           0       -2.257094    2.113395    0.707562
      8          1           0       -0.484527    2.052448    0.759446
      9          7           0       -1.348933    0.936327   -0.756567
     10          1           0       -2.221233    0.817538   -1.255809
     11          1           0       -0.587479    0.966852   -1.426315
     12          6           0       -1.866784   -0.876858    1.215337
     13          1           0       -1.766808   -1.844405    1.713530
     14          1           0       -1.834364   -0.100281    1.979176
     15          1           0       -2.838788   -0.856000    0.722520
     16          6           0       -0.857936   -1.644531   -0.965566
     17          1           0       -1.853318   -1.602599   -1.409591
     18          1           0       -0.104758   -1.421943   -1.715520
     19          1           0       -0.700257   -2.666330   -0.609735
     20          1           0        0.559115   -0.146424    1.807826
     21          6           0        2.935887    0.259743    0.712774
     22          1           0        2.832528    0.195720    1.795384
     23          1           0        3.715865   -0.433186    0.390120
     24          1           0        3.262877    1.266148    0.443319
 ---------------------------------------------------------------------

 SCF Done:  E(RwB97XD) =  -405.749175408     A.U. after    1 cycles

 The electronic state is 1-A.
 Alpha  occ. eigenvalues --  -19.19363 -14.46081 -10.34128 -10.34018 -10.30757
 Alpha  occ. eigenvalues --  -10.27673 -10.27046 -10.26548 -10.23825  -1.09685
 Alpha  occ. eigenvalues --   -1.01937  -0.91269  -0.83618  -0.79653  -0.77991
 Alpha  occ. eigenvalues --   -0.77143  -0.66061  -0.61598  -0.58574  -0.56134
 Alpha  occ. eigenvalues --   -0.55092  -0.54438  -0.53093  -0.50788  -0.49331
 Alpha  occ. eigenvalues --   -0.48753  -0.47896  -0.47126  -0.46809  -0.45013
 Alpha  occ. eigenvalues --   -0.43654  -0.42969  -0.41837  -0.38155  -0.31091
 Alpha  occ. eigenvalues --   -0.27504
 Alpha virt. eigenvalues --    0.04579   0.10228   0.13020   0.13585   0.14374
 Alpha virt. eigenvalues --    0.15873   0.16390   0.17148   0.18202   0.19160
 Alpha virt. eigenvalues --    0.19732   0.20575   0.20967   0.21824   0.22154

 Mulliken charges:
               1
     1  C   -0.550917
     2  C    0.360369
     3  O   -0.580095
     4  C    0.230295
     5  C   -0.283460
     6  H    0.145289
     7  H    0.150498
     8  H    0.138994
     9  N   -0.383394
    10  H    0.274534
    11  H    0.267427
    12  C   -0.375562
    13  H    0.147405
    14  H    0.141358
    15  H    0.139129
    16  C   -0.357981
    17  H    0.126702
    18  H    0.146332
    19  H    0.133654
    20  H    0.126573
    21  C   -0.372159
    22  H    0.121041
    23  H    0.128269
    24  H    0.125698
 Sum of Mulliken charges =  -0.00000

 Dipole moment (field-independent basis, Debye):
    X=             -6.4007    Y=              1.9287    Z=              1.5894  Tot=              6.8713
 Quadrupole moment (field-independent basis, Debye-Ang):
   XX=            -54.9627   YY=            -53.6736   ZZ=            -59.5953
   XY=             -1.4709   XZ=              7.9496   YZ=             -0.8234

  Exact polarizability: 167.971  -0.502 127.604   1.302  -5.236 127.948
 Approx polarizability: 122.742  -0.140 102.226   0.004  -4.523 109.363

 ******    1 imaginary frequencies (negative Signs) ******

                      1                      2                      3
                      A                      A                      A
 Frequencies --   -358.7874                63.2170                74.3599
 Red. masses --      4.8548                 3.2653                 2.9029
 Frc consts  --      0.3682                 0.0077                 0.0095
 IR Inten    --    590.3504                12.5241                28.9060

                      4                      5                      6
                      A                      A                      A
 Frequencies --     92.4812               112.3866               183.0897
 Red. masses --      1.3348                 1.5835                 1.1097
 Frc consts  --      0.0067                 0.0118                 0.0219
 IR Inten    --      4.9942                 6.7062                 0.4803

                      7                      8                      9
                      A                      A                      A
 Frequencies --    191.9283               202.4552               224.8245
 Red. masses --      2.5191                 1.8428                 1.4775
 Frc consts  --      0.0547                 0.0445                 0.0440
 IR Inten    --      8.2392                 2.3685                 2.8390

                     10                     11                     12
                      A                      A                      A
 Frequencies --    251.4618               284.1722               311.3796
 Red. masses --      1.0981                 2.5148                 2.8377
 Frc consts  --      0.0409                 0.1196                 0.1621
 IR Inten    --      3.6478                 3.2536                17.5730

                     13                     14                     15
                      A                      A                      A
 Frequencies --    343.6425               393.4305               467.2159
 Red. masses --      2.5950                 3.5203                 2.5259
 Frc consts  --      0.1806                 0.3210                 0.3249
 IR Inten    --      4.4056                 6.3270                26.6775

                     16                     17                     18
                      A                      A                      A
 Frequencies --    474.2487               606.0941               631.2185
 Red. masses --      2.4170                 2.0752                 2.3652
 Frc consts  --      0.3203                 0.4491                 0.5552
 IR Inten    --     16.1172                52.5794                28.3917

                     19                     20                     21
                      A                      A                      A
 Frequencies --    670.8473               739.0726               850.1474
 Red. masses --      1.8884                 1.2717                 3.3716
 Frc consts  --      0.5007                 0.4093                 1.4357
 IR Inten    --      5.2348               131.2897                23.0601

                     22                     23                     24
                      A                      A                      A
 Frequencies --    940.6558               946.9552               978.4115
 Red. masses --      2.4200                 1.6002                 1.1502
 Frc consts  --      1.2616                 0.8455                 0.6487
 IR Inten    --     20.5542                 7.8500               149.4721

                     25                     26                     27
                      A                      A                      A
 Frequencies --   1001.2405              1016.5522              1030.9571
 Red. masses --      1.5443                 1.1835                 1.2982
 Frc consts  --      0.9122                 0.7206                 0.8130
 IR Inten    --     26.6613                14.3085                70.8568

                     28                     29                     30
                      A                      A                      A
 Frequencies --   1049.6207              1069.6234              1080.9334
 Red. masses --      1.7682                 1.6187                 2.0680
 Frc consts  --      1.1477                 1.0911                 1.4236
 IR Inten    --      8.8762                16.6407                89.5512

                     31                     32                     33
                      A                      A                      A
 Frequencies --   1111.2111              1195.3879              1208.9581
 Red. masses --      2.4185                 1.4179                 1.7851
 Frc consts  --      1.7595                 1.1938                 1.5372
 IR Inten    --     20.1985                22.3581                52.4532

                     34                     35                     36
                      A                      A                      A
 Frequencies --   1281.9308              1350.8281              1361.3028
 Red. masses --      2.9921                 1.3348                 1.8148
 Frc consts  --      2.8970                 1.4351                 1.9814
 IR Inten    --     80.8008                15.8015               139.3060

                     37                     38                     39
                      A                      A                      A
 Frequencies --   1384.4483              1407.9044              1416.2611
 Red. masses --      1.2706                 1.4208                 1.3405
 Frc consts  --      1.4349                 1.6593                 1.5842
 IR Inten    --     19.9094                51.4301                20.0950

                     40                     41                     42
                      A                      A                      A
 Frequencies --   1452.8559              1457.9609              1470.0460
 Red. masses --      1.2078                 1.2260                 1.0467
 Frc consts  --      1.5021                 1.5355                 1.3327
 IR Inten    --    103.1656               263.8973                10.7324

                     43                     44                     45
                      A                      A                      A
 Frequencies --   1473.6862              1482.5189              1485.1984
 Red. masses --      1.0651                 1.0573                 1.2018
 Frc consts  --      1.3629                 1.3691                 1.5620
 IR Inten    --      6.2601                 6.7861               111.3826

                     46                     47                     48
                      A                      A                      A
 Frequencies --   1493.2478              1503.2555              1507.2900
 Red. masses --      1.0515                 1.0543                 1.0470
 Frc consts  --      1.3814                 1.4037                 1.4015
 IR Inten    --      9.5505                13.2522                54.3031

                     49                     50                     51
                      A                      A                      A
 Frequencies --   1525.9593              1621.3432              1652.4944
 Red. masses --      2.0578                 5.6950                 1.1277
 Frc consts  --      2.8232                 8.8204                 1.8144
 IR Inten    --    659.7073               422.2415                20.5868

                     52                     53                     54
                      A                      A                      A
 Frequencies --   3048.9722              3052.3244              3052.8763
 Red. masses --      1.0343                 1.0362                 1.0393
 Frc consts  --      5.6651                 5.6877                 5.7071
 IR Inten    --     59.5629                33.0132                16.3275

                     55                     56                     57
                      A                      A                      A
 Frequencies --   3056.4699              3116.1811              3118.2177
 Red. masses --      1.0380                 1.1035                 1.0992
 Frc consts  --      5.7131                 6.3136                 6.2974
 IR Inten    --     31.6765                14.8394                34.9698

                     58                     59                     60
                      A                      A                      A
 Frequencies --   3122.7210              3126.7155              3146.4169
 Red. masses --      1.1008                 1.0989                 1.1031
 Frc consts  --      6.3244                 6.3300                 6.4343
 IR Inten    --     20.5262                34.4882                31.2463

                     61                     62                     63
                      A                      A                      A
 Frequencies --   3148.1687              3151.3091              3178.1770
 Red. masses --      1.1041                 1.1036                 1.1011
 Frc consts  --      6.4473                 6.4575                 6.5528
 IR Inten    --     36.8168                17.1039                 3.8896

                     64                     65                     66
                      A                      A                      A
 Frequencies --   3184.2074              3512.8239              3608.6788
 Red. masses --      1.0884                 1.0523                 1.0950
 Frc consts  --      6.5017                 7.6506                 8.4016
 IR Inten    --     23.3547                18.9390                58.6359

 - Thermochemistry -
 -------------------
 Temperature   298.150 Kelvin.  Pressure   1.00000 Atm.
 Atom     1 has atomic number  6 and mass  12.00000

 Molecular mass:   129.11536 amu.
 Principal axes and moments of inertia in atomic units:
                           1         2         3
     Eigenvalues --   909.064881619.374711808.72793
           X            0.99972   0.00728   0.02236
           Y           -0.00817   0.99917   0.03990
           Z           -0.02205  -0.04007   0.99895
 This molecule is an asymmetric top.
 Rotational symmetry number  1.
 Warning -- assumption of classical behavior for rotation
           may cause significant error
 Rotational temperatures (Kelvin)      0.09528     0.05349     0.04789
 Rotational constants (GHZ):           1.98527     1.11447     0.99780
    1 imaginary frequencies ignored.
 Zero-point vibrational energy     560755.3 (Joules/Mol)
                                  134.02374 (Kcal/Mol)
 Warning -- explicit consideration of  16 degrees of freedom as
           vibrations may cause significant error
 Vibrational temperatures:     90.96   106.99   133.06   161.70   263.43
          (Kelvin)            276.14   291.29   323.47   361.80   408.86
                              448.01   494.42   566.06   672.22   682.34
                              872.03   908.18   965.20  1063.36  1223.17
                             1353.39  1362.46  1407.72  1440.56  1462.59
                             1483.32  1510.17  1538.95  1555.22  1598.78
                             1719.90  1739.42  1844.41  1943.54  1958.61
                             1991.91  2025.66  2037.68  2090.34  2097.68
                             2115.07  2120.31  2133.01  2136.87  2148.45
                             2162.85  2168.65  2195.52  2332.75  2377.57
                             4386.79  4391.61  4392.41  4397.58  4483.49
                             4486.42  4492.90  4498.65  4526.99  4529.51
                             4534.03  4572.69  4581.36  5054.17  5192.08

 Zero-point correction=                           0.213580 (Hartree/Particle)
 Thermal correction to Energy=                    0.225291
 Thermal correction to Enthalpy=                  0.226235
 Thermal correction to Gibbs Free Energy=         0.176500
 Sum of electronic and zero-point Energies=           -405.535595
 Sum of electronic and thermal Energies=              -405.523884
 Sum of electronic and thermal Enthalpies=            -405.522940
 Sum of electronic and thermal Free Energies=         -405.572676

                     E (Thermal)             CV                S
                      KCal/Mol        Cal/Mol-Kelvin    Cal/Mol-Kelvin
 Total                  141.372             41.740            104.677
 Electronic               0.000              0.000              0.000
 Translational            0.889              2.981             40.480
 Rotational               0.889              2.981             29.367
 Vibrational            139.595             35.779             34.831
 Vibration     1          0.597              1.972              4.354
 Vibration     2          0.599              1.966              4.034
 Vibration     3          0.602              1.955              3.607
 Vibration     4          0.607              1.939              3.227
 Vibration     5          0.631              1.863              2.297
 Vibration     6          0.634              1.851              2.209
 Vibration     7          0.639              1.836              2.111
 Vibration     8          0.649              1.803              1.920
 Vibration     9          0.663              1.760              1.720
 Vibration    10          0.683              1.703              1.508
 Vibration    11          0.700              1.652              1.355
 Vibration    12          0.722              1.588              1.195
 Vibration    13          0.761              1.484              0.987
 Vibration    14          0.824              1.323              0.745
 Vibration    15          0.831              1.307              0.726
 Vibration    16          0.965              1.019              0.439

 Optimization completed.
    -- Stationary point found.
 Normal termination of Gaussian 16 at Sat Feb 13 23:34:27 2021.
