 Gaussian 16, Revision A.03,
 Gaussian 16:  ES64L-G16RevA.03 25-Dec-2016

 ----------------------------------------------------------------------
 # wB97XD def2tzvp, opt=(ts, noeigen, calcfc, maxcycles=70, maxstep=8),
  freq=noraman, scrf=(iefpcm, solvent=water)
 ----------------------------------------------------------------------

 ------------------------
 1_iteration/TS-481-1.out
 ------------------------
 Symbolic Z-matrix:
 Charge =  0 Multiplicity = 1

 SCF Done:  E(RwB97XD) =  -597.478771140     A.U. after   15 cycles
 SCF Done:  E(RwB97XD) =  -597.479492738     A.U. after   12 cycles
 SCF Done:  E(RwB97XD) =  -597.479577369     A.U. after   11 cycles
 SCF Done:  E(RwB97XD) =  -597.479616850     A.U. after   12 cycles
 SCF Done:  E(RwB97XD) =  -597.479644215     A.U. after   10 cycles
 SCF Done:  E(RwB97XD) =  -597.479593780     A.U. after   10 cycles
 SCF Done:  E(RwB97XD) =  -597.479649302     A.U. after   10 cycles
 SCF Done:  E(RwB97XD) =  -597.479648287     A.U. after   10 cycles
 SCF Done:  E(RwB97XD) =  -597.479655344     A.U. after    8 cycles
 SCF Done:  E(RwB97XD) =  -597.479655873     A.U. after    7 cycles
 SCF Done:  E(RwB97XD) =  -597.479656303     A.U. after    6 cycles
 Optimization completed.
    -- Stationary point found.
 Normal termination of Gaussian 16 at Sun Feb 14 06:48:00 2021.

 ---------------------------------------------------------------------
 #N Geom=AllCheck Guess=TCheck SCRF=Check GenChk RwB97XD/def2TZVP Freq
 ---------------------------------------------------------------------

 Structure from the checkpoint file:  "/beegfs/scratch/user/q/tla25/Gau-110290.chk"
 ------------------------
 1_iteration/TS-481-1.out
 ------------------------
 Charge =  0 Multiplicity = 1

                         Standard orientation:
 ---------------------------------------------------------------------
 Center     Atomic      Atomic             Coordinates (Angstroms)
 Number     Number       Type             X           Y           Z
 ---------------------------------------------------------------------
      1          6           0        0.507240    0.655270    0.264700
      2          6           0        0.846960    1.952684   -0.158544
      3          8           0        0.073334    2.814789   -0.613133
      4          6           0        1.472160   -0.259447    0.766424
      5          6           0        2.455873   -0.683798   -1.862629
      6          1           0        3.496963   -0.416057   -1.697765
      7          1           0        2.378018   -1.269175   -2.778167
      8          1           0        1.866522    0.229205   -1.971589
      9          7           0        1.952465   -1.415919   -0.707997
     10          1           0        1.075546   -1.876538   -0.923768
     11          1           0        2.604270   -2.128778   -0.401073
     12          6           0        0.985983   -1.352974    1.692522
     13          1           0        0.735390   -0.900798    2.654592
     14          1           0        0.090033   -1.845202    1.318012
     15          1           0        1.759070   -2.101565    1.867001
     16          6           0        2.854376    0.228521    1.142229
     17          1           0        2.781026    0.839742    2.043161
     18          1           0        3.506844   -0.615884    1.364635
     19          1           0        3.325027    0.828507    0.367464
     20          6           0       -0.910521    0.219626    0.100987
     21          6           0       -1.827146    0.305913    1.148315
     22          6           0       -3.141831   -0.107743    0.989321
     23          6           0       -3.570180   -0.616505   -0.229357
     24          6           0       -2.675105   -0.701928   -1.285719
     25          6           0       -1.361515   -0.284856   -1.118535
     26          1           0       -1.498041    0.699904    2.102829
     27          1           0       -3.834517   -0.032990    1.818808
     28          1           0       -4.595570   -0.941033   -0.355128
     29          1           0       -2.999658   -1.091894   -2.242736
     30          1           0       -0.673258   -0.341665   -1.954796
     31          1           0        1.910652    2.228771   -0.048736
 ---------------------------------------------------------------------

 SCF Done:  E(RwB97XD) =  -597.479656303     A.U. after    2 cycles

 The electronic state is 1-A.
 Alpha  occ. eigenvalues --  -19.19146 -14.48348 -10.35311 -10.32975 -10.31591
 Alpha  occ. eigenvalues --  -10.29206 -10.28666 -10.28629 -10.28519 -10.28379
 Alpha  occ. eigenvalues --  -10.28226 -10.28122 -10.27975 -10.25158  -1.09060
 Alpha  occ. eigenvalues --   -1.04011  -0.96316  -0.92338  -0.85931  -0.84556
 Alpha  occ. eigenvalues --   -0.81059  -0.79270  -0.78294  -0.69854  -0.69594
 Alpha  occ. eigenvalues --   -0.68072  -0.63196  -0.62614  -0.58535  -0.57556
 Alpha  occ. eigenvalues --   -0.56786  -0.55794  -0.53949  -0.53637  -0.51852
 Alpha  occ. eigenvalues --   -0.50399  -0.49900  -0.49123  -0.48072  -0.47854
 Alpha  occ. eigenvalues --   -0.47477  -0.46328  -0.45641  -0.44509  -0.44075
 Alpha  occ. eigenvalues --   -0.42246  -0.41141  -0.40279  -0.33366  -0.32689
 Alpha  occ. eigenvalues --   -0.31002  -0.27154
 Alpha virt. eigenvalues --    0.05213   0.05742   0.05970   0.09712   0.12610
 Alpha virt. eigenvalues --    0.13384   0.13542   0.14473   0.15071   0.16290
 Alpha virt. eigenvalues --    0.16967   0.17429   0.18171   0.18695   0.18988

 Mulliken charges:
               1
     1  C   -0.156483
     2  C    0.088592
     3  O   -0.556338
     4  C    0.075477
     5  C   -0.323405
     6  H    0.165808
     7  H    0.162162
     8  H    0.156413
     9  N   -0.325738
    10  H    0.280111
    11  H    0.286898
    12  C   -0.329588
    13  H    0.145812
    14  H    0.153858
    15  H    0.140595
    16  C   -0.375582
    17  H    0.156060
    18  H    0.143456
    19  H    0.146782
    20  C    0.181987
    21  C   -0.242750
    22  C   -0.149966
    23  C   -0.141360
    24  C   -0.162030
    25  C   -0.288108
    26  H    0.135796
    27  H    0.137694
    28  H    0.141005
    29  H    0.137800
    30  H    0.159201
    31  H    0.055839
 Sum of Mulliken charges =   0.00000

 Dipole moment (field-independent basis, Debye):
    X=              6.4448    Y=            -10.7786    Z=              0.4015  Tot=             12.5648
 Quadrupole moment (field-independent basis, Debye-Ang):
   XX=            -67.2690   YY=           -100.8669   ZZ=            -77.7035
   XY=             -3.9290   XZ=             -3.4253   YZ=              9.0183

  Exact polarizability: 234.007  -4.232 205.434  -1.672   7.389 204.297
 Approx polarizability: 182.166  -3.483 168.276  -1.193   5.802 172.505

 ******    1 imaginary frequencies (negative Signs) ******

                      1                      2                      3
                      A                      A                      A
 Frequencies --   -352.6518                40.9406                52.8383
 Red. masses --      5.3388                 3.5560                 3.6207
 Frc consts  --      0.3912                 0.0035                 0.0060
 IR Inten    --    788.0765                 1.2639                 2.5896

                      4                      5                      6
                      A                      A                      A
 Frequencies --     82.6479                89.3709               124.1108
 Red. masses --      4.5089                 3.3436                 2.5608
 Frc consts  --      0.0181                 0.0157                 0.0232
 IR Inten    --     10.0196                 1.3951                 2.7566

                      7                      8                      9
                      A                      A                      A
 Frequencies --    172.2256               191.2642               215.0317
 Red. masses --      1.2254                 3.3921                 2.5177
 Frc consts  --      0.0214                 0.0731                 0.0686
 IR Inten    --      2.4390                 5.7946                20.7419

                     10                     11                     12
                      A                      A                      A
 Frequencies --    252.9330               255.2569               272.0582
 Red. masses --      1.6465                 2.1546                 1.5329
 Frc consts  --      0.0621                 0.0827                 0.0668
 IR Inten    --      6.6422                 4.3480                 1.0366

                     13                     14                     15
                      A                      A                      A
 Frequencies --    281.2521               299.7248               322.8417
 Red. masses --      1.8501                 2.1898                 2.4405
 Frc consts  --      0.0862                 0.1159                 0.1499
 IR Inten    --      4.9303                 5.3672                 3.7024

                     16                     17                     18
                      A                      A                      A
 Frequencies --    375.9190               419.8903               426.0949
 Red. masses --      2.8819                 2.5912                 2.8846
 Frc consts  --      0.2399                 0.2692                 0.3086
 IR Inten    --      6.8637                19.7685                 0.0280

                     19                     20                     21
                      A                      A                      A
 Frequencies --    431.8476               508.8819               556.0704
 Red. masses --      2.9404                 4.0075                 3.7431
 Frc consts  --      0.3231                 0.6114                 0.6819
 IR Inten    --      0.5552                 9.5997                23.4579

                     22                     23                     24
                      A                      A                      A
 Frequencies --    599.8927               619.7556               645.7642
 Red. masses --      3.1476                 3.9043                 4.7710
 Frc consts  --      0.6674                 0.8835                 1.1722
 IR Inten    --     30.0299               101.5132                17.3667

                     25                     26                     27
                      A                      A                      A
 Frequencies --    693.4129               732.0853               744.5116
 Red. masses --      1.5769                 1.6527                 3.2615
 Frc consts  --      0.4467                 0.5219                 1.0651
 IR Inten    --     76.3223                67.7711                44.0926

                     28                     29                     30
                      A                      A                      A
 Frequencies --    806.3480               882.6814               909.7847
 Red. masses --      2.6565                 1.2452                 2.4005
 Frc consts  --      1.0177                 0.5716                 1.1707
 IR Inten    --      2.4967                 0.0991                12.1962

                     31                     32                     33
                      A                      A                      A
 Frequencies --    953.7167               961.4138              1010.6594
 Red. masses --      1.3473                 1.5082                 1.1633
 Frc consts  --      0.7220                 0.8213                 0.7001
 IR Inten    --      2.6298                 2.3737                25.6139

                     34                     35                     36
                      A                      A                      A
 Frequencies --   1013.7119              1018.7223              1024.5093
 Red. masses --      1.2876                 1.3824                 1.6884
 Frc consts  --      0.7796                 0.8453                 1.0441
 IR Inten    --      8.9779                40.2832                29.9502

                     37                     38                     39
                      A                      A                      A
 Frequencies --   1026.3354              1027.1527              1052.2601
 Red. masses --      3.3826                 1.4219                 1.2613
 Frc consts  --      2.0993                 0.8839                 0.8229
 IR Inten    --      1.5063                 0.8883                96.3670

                     40                     41                     42
                      A                      A                      A
 Frequencies --   1055.8561              1076.0911              1086.3455
 Red. masses --      2.4702                 2.2674                 2.0028
 Frc consts  --      1.6225                 1.5470                 1.3926
 IR Inten    --     17.2558                55.7372                 3.2537

                     43                     44                     45
                      A                      A                      A
 Frequencies --   1106.9366              1115.1548              1181.0471
 Red. masses --      1.5524                 2.0806                 1.1356
 Frc consts  --      1.1208                 1.5244                 0.9333
 IR Inten    --     21.6812                30.1799                 0.0626

                     46                     47                     48
                      A                      A                      A
 Frequencies --   1191.4201              1205.0872              1223.0240
 Red. masses --      2.8163                 1.1232                 1.4623
 Frc consts  --      2.3554                 0.9610                 1.2887
 IR Inten    --     16.9508                 0.0812                26.2836

                     49                     50                     51
                      A                      A                      A
 Frequencies --   1244.8899              1307.0893              1347.6289
 Red. masses --      3.0522                 4.5067                 1.3107
 Frc consts  --      2.7870                 4.5365                 1.4024
 IR Inten    --     15.5789                 3.2140                 1.6440

                     52                     53                     54
                      A                      A                      A
 Frequencies --   1355.5039              1366.6524              1410.6961
 Red. masses --      1.4688                 1.9569                 1.5953
 Frc consts  --      1.5901                 2.1534                 1.8705
 IR Inten    --      9.2058               675.8754                88.5315

                     55                     56                     57
                      A                      A                      A
 Frequencies --   1425.8955              1427.0097              1451.0756
 Red. masses --      2.6553                 1.2303                 1.2742
 Frc consts  --      3.1808                 1.4761                 1.5808
 IR Inten    --     46.8522                12.0798                24.9926

                     58                     59                     60
                      A                      A                      A
 Frequencies --   1463.3801              1483.5995              1485.7084
 Red. masses --      1.3455                 1.0733                 2.1566
 Frc consts  --      1.6977                 1.3918                 2.8047
 IR Inten    --     26.1560                 3.3190                 3.9619

                     61                     62                     63
                      A                      A                      A
 Frequencies --   1487.0516              1496.0304              1505.0536
 Red. masses --      1.0562                 1.0571                 1.0518
 Frc consts  --      1.3761                 1.3940                 1.4037
 IR Inten    --      2.4100                 5.5435                14.7354

                     64                     65                     66
                      A                      A                      A
 Frequencies --   1512.0209              1521.2901              1545.8801
 Red. masses --      1.0710                 1.4036                 2.5084
 Frc consts  --      1.4426                 1.9138                 3.5318
 IR Inten    --     26.5194                72.5359                39.0180

                     67                     68                     69
                      A                      A                      A
 Frequencies --   1626.2390              1644.1729              1653.9378
 Red. masses --      5.4992                 5.6692                 1.0927
 Frc consts  --      8.5687                 9.0296                 1.7612
 IR Inten    --   1114.5899                10.0462                33.0678

                     70                     71                     72
                      A                      A                      A
 Frequencies --   1673.3937              2951.5352              3059.4176
 Red. masses --      5.9286                 1.0805                 1.0357
 Frc consts  --      9.7813                 5.5460                 5.7118
 IR Inten    --     40.8366               177.1200                37.5013

                     73                     74                     75
                      A                      A                      A
 Frequencies --   3061.3378              3070.2797              3131.1232
 Red. masses --      1.0373                 1.0386                 1.1010
 Frc consts  --      5.7278                 5.7684                 6.3600
 IR Inten    --     16.4274                27.4255                15.4003

                     76                     77                     78
                      A                      A                      A
 Frequencies --   3134.0759              3137.4932              3156.0687
 Red. masses --      1.1019                 1.1016                 1.1026
 Frc consts  --      6.3771                 6.3893                 6.4710
 IR Inten    --     11.8162                40.0954                30.6392

                     79                     80                     81
                      A                      A                      A
 Frequencies --   3165.8230              3169.3453              3181.0719
 Red. masses --      1.1033                 1.1018                 1.0875
 Frc consts  --      6.5151                 6.5204                 6.4838
 IR Inten    --     16.8175                18.7904                15.2623

                     82                     83                     84
                      A                      A                      A
 Frequencies --   3187.0544              3197.3942              3205.1679
 Red. masses --      1.0870                 1.0906                 1.0948
 Frc consts  --      6.5053                 6.5691                 6.6264
 IR Inten    --      4.3808                10.5979                52.0246

                     85                     86                     87
                      A                      A                      A
 Frequencies --   3217.3683              3523.5826              3604.0146
 Red. masses --      1.0987                 1.0508                 1.0959
 Frc consts  --      6.7006                 7.6869                 8.3865
 IR Inten    --     21.6179                33.3861                51.6940

 - Thermochemistry -
 -------------------
 Temperature   298.150 Kelvin.  Pressure   1.00000 Atm.
 Atom     1 has atomic number  6 and mass  12.00000

 Molecular mass:   191.13101 amu.
 Principal axes and moments of inertia in atomic units:
                           1         2         3
     Eigenvalues --  1795.781773730.913633906.48866
           X            0.99999  -0.00447  -0.00312
           Y            0.00468   0.99748   0.07075
           Z            0.00280  -0.07077   0.99749
 This molecule is an asymmetric top.
 Rotational symmetry number  1.
 Warning -- assumption of classical behavior for rotation
           may cause significant error
 Rotational temperatures (Kelvin)      0.04823     0.02322     0.02217
 Rotational constants (GHZ):           1.00499     0.48373     0.46199
    1 imaginary frequencies ignored.
 Zero-point vibrational energy     705325.6 (Joules/Mol)
                                  168.57687 (Kcal/Mol)
 Warning -- explicit consideration of  22 degrees of freedom as
           vibrations may cause significant error
 Vibrational temperatures:     58.90    76.02   118.91   128.58   178.57
          (Kelvin)            247.79   275.19   309.38   363.91   367.26
                              391.43   404.66   431.24   464.50   540.86
                              604.13   613.06   621.33   732.17   800.06
                              863.11   891.69   929.11   997.67  1053.31
                             1071.19  1160.15  1269.98  1308.98  1372.19
                             1383.26  1454.11  1458.51  1465.71  1474.04
                             1476.67  1477.84  1513.97  1519.14  1548.26
                             1563.01  1592.63  1604.46  1699.26  1714.19
                             1733.85  1759.66  1791.12  1880.61  1938.94
                             1950.27  1966.31  2029.68  2051.55  2053.15
                             2087.77  2105.48  2134.57  2137.60  2139.54
                             2152.45  2165.44  2175.46  2188.80  2224.18
                             2339.80  2365.60  2379.65  2407.64  4246.60
                             4401.82  4404.58  4417.45  4504.99  4509.24
                             4514.15  4540.88  4554.91  4559.98  4576.85
                             4585.46  4600.34  4611.52  4629.08  5069.65
                             5185.37

 Zero-point correction=                           0.268644 (Hartree/Particle)
 Thermal correction to Energy=                    0.282954
 Thermal correction to Enthalpy=                  0.283898
 Thermal correction to Gibbs Free Energy=         0.227528
 Sum of electronic and zero-point Energies=           -597.211012
 Sum of electronic and thermal Energies=              -597.196703
 Sum of electronic and thermal Enthalpies=            -597.195758
 Sum of electronic and thermal Free Energies=         -597.252128

                     E (Thermal)             CV                S
                      KCal/Mol        Cal/Mol-Kelvin    Cal/Mol-Kelvin
 Total                  177.556             54.160            118.640
 Electronic               0.000              0.000              0.000
 Translational            0.889              2.981             41.649
 Rotational               0.889              2.981             31.637
 Vibrational            175.779             48.198             45.354
 Vibration     1          0.594              1.981              5.213
 Vibration     2          0.596              1.976              4.708
 Vibration     3          0.600              1.961              3.827
 Vibration     4          0.602              1.957              3.674
 Vibration     5          0.610              1.929              3.035
 Vibration     6          0.626              1.877              2.411
 Vibration     7          0.634              1.852              2.216
 Vibration     8          0.645              1.818              2.001
 Vibration     9          0.664              1.758              1.710
 Vibration    10          0.666              1.754              1.694
 Vibration    11          0.675              1.725              1.583
 Vibration    12          0.681              1.708              1.526
 Vibration    13          0.692              1.674              1.418
 Vibration    14          0.708              1.630              1.296
 Vibration    15          0.747              1.521              1.056
 Vibration    16          0.783              1.427              0.892
 Vibration    17          0.788              1.413              0.872
 Vibration    18          0.793              1.401              0.853
 Vibration    19          0.864              1.230              0.636
 Vibration    20          0.912              1.126              0.532
 Vibration    21          0.958              1.032              0.450
 Vibration    22          0.980              0.990              0.417

 Optimization completed.
    -- Stationary point found.
 Normal termination of Gaussian 16 at Sun Feb 14 07:50:06 2021.
