 Gaussian 16, Revision C.01,
 Gaussian 16:  ES64L-G16RevC.01  3-Jul-2019

 ----------------------------------------------------------------------
 # opt=(calcfc,ts,noeigen,maxcycles=100,maxstep=10) freq=noraman wb97xd
  scrf=(iefpcm,solvent=water) def2tzvp
 ----------------------------------------------------------------------

 ----------
 TS-408.out
 ----------
 Symbolic Z-matrix:
 Charge =  0 Multiplicity = 1

 SCF Done:  E(RwB97XD) =  -1020.26874620     A.U. after   15 cycles
 SCF Done:  E(RwB97XD) =  -1020.26875103     A.U. after   10 cycles
 SCF Done:  E(RwB97XD) =  -1020.26875095     A.U. after    6 cycles
 Optimization completed.
    -- Stationary point found.
 Normal termination of Gaussian 16 at Mon Jun  6 17:13:23 2022.

 ---------------------------------------------------------------------
 #N Geom=AllCheck Guess=TCheck SCRF=Check GenChk RwB97XD/def2TZVP Freq
 ---------------------------------------------------------------------

 Structure from the checkpoint file:  "/local/jobs/107533/Gau-2683821.chk"
 ----------
 TS-408.out
 ----------
 Charge =  0 Multiplicity = 1

                         Standard orientation:
 ---------------------------------------------------------------------
 Center     Atomic      Atomic             Coordinates (Angstroms)
 Number     Number       Type             X           Y           Z
 ---------------------------------------------------------------------
      1          6           0        0.094314    0.416451    0.116035
      2          6           0       -0.203557   -0.882220    0.629975
      3          8           0        0.584094   -1.536902    1.341245
      4          6           0        1.431637    0.878003    0.160122
      5          6           0        0.917427    1.715820    2.917685
      6          1           0       -0.076925    1.604812    2.484574
      7          1           0        0.867517    1.436024    3.971944
      8          1           0        1.217126    2.760071    2.843278
      9          7           0        1.842579    0.884006    2.169451
     10          1           0        2.803728    1.056851    2.429554
     11          1           0        1.632798   -0.107939    2.268584
     12          6           0        1.713307    2.329829   -0.136660
     13          1           0        1.712846    2.488925   -1.216251
     14          1           0        0.961858    2.983223    0.302768
     15          1           0        2.696867    2.613908    0.232429
     16          6           0        2.551227   -0.029989   -0.280446
     17          6           0        3.874216    0.170001    0.110880
     18          6           0        4.897536   -0.620232   -0.388444
     19          6           0        4.622573   -1.619942   -1.309456
     20          6           0        3.315530   -1.811531   -1.731304
     21          6           0        2.295466   -1.021779   -1.225700
     22          1           0        4.127644    0.954721    0.811341
     23          1           0        5.914313   -0.448173   -0.058656
     24          1           0        5.421220   -2.236281   -1.702205
     25          1           0        3.086219   -2.577075   -2.461965
     26          1           0        1.281345   -1.168109   -1.572593
     27          6           0       -1.015890    1.318585   -0.297494
     28          6           0       -1.039696    1.889072   -1.571901
     29          6           0       -2.083498    2.704159   -1.980895
     30          6           0       -3.145239    2.960890   -1.124386
     31          6           0       -3.146705    2.395746    0.142733
     32          6           0       -2.092662    1.591258    0.548443
     33          1           0       -0.233977    1.669961   -2.262301
     34          1           0       -2.074271    3.129746   -2.976905
     35          1           0       -3.965219    3.592059   -1.443104
     36          1           0       -3.969864    2.584582    0.820928
     37          1           0       -2.111722    1.154110    1.539765
     38          6           0       -1.535839   -1.515397    0.335417
     39          6           0       -2.219420   -2.170743    1.354311
     40          6           0       -3.430592   -2.795904    1.101302
     41          6           0       -3.957826   -2.794759   -0.183195
     42          6           0       -3.270097   -2.162660   -1.210187
     43          6           0       -2.070419   -1.518581   -0.949249
     44          1           0       -1.796489   -2.180121    2.351117
     45          1           0       -3.962956   -3.288100    1.905633
     46          1           0       -4.900576   -3.288109   -0.383976
     47          1           0       -3.670819   -2.168693   -2.216103
     48          1           0       -1.542226   -1.015677   -1.749487
 ---------------------------------------------------------------------

 SCF Done:  E(RwB97XD) =  -1020.26875095     A.U. after    1 cycles

 The electronic state is 1-A.
 Alpha  occ. eigenvalues --  -19.20999 -14.45630 -10.35418 -10.35360 -10.30771
 Alpha  occ. eigenvalues --  -10.30440 -10.29609 -10.29345 -10.29311 -10.29121
 Alpha  occ. eigenvalues --  -10.29066 -10.29050 -10.29025 -10.28988 -10.28967
 Alpha  occ. eigenvalues --  -10.28934 -10.28929 -10.28903 -10.28645 -10.28627
 Alpha  occ. eigenvalues --  -10.28515 -10.28339 -10.28289 -10.28130 -10.26259
 Alpha  occ. eigenvalues --   -1.11517  -1.01716  -0.97346  -0.96709  -0.96155
 Alpha  occ. eigenvalues --   -0.91925  -0.87456  -0.85515  -0.85258  -0.85047
 Alpha  occ. eigenvalues --   -0.84623  -0.83185  -0.80210  -0.77692  -0.73688
 Alpha  occ. eigenvalues --   -0.71543  -0.70477  -0.70304  -0.69821  -0.68720
 Alpha  occ. eigenvalues --   -0.66469  -0.63653  -0.61814  -0.61417  -0.60777
 Alpha  occ. eigenvalues --   -0.57961  -0.56467  -0.56294  -0.55614  -0.54822
 Alpha  occ. eigenvalues --   -0.54414  -0.53962  -0.53253  -0.52869  -0.52383
 Alpha  occ. eigenvalues --   -0.51970  -0.51112  -0.50837  -0.50438  -0.49450
 Alpha  occ. eigenvalues --   -0.49121  -0.48645  -0.47261  -0.46766  -0.46671
 Alpha  occ. eigenvalues --   -0.46465  -0.45707  -0.44683  -0.44012  -0.43559
 Alpha  occ. eigenvalues --   -0.42792  -0.42391  -0.42211  -0.41577  -0.39190
 Alpha  occ. eigenvalues --   -0.34877  -0.34440  -0.33829  -0.33471  -0.33322
 Alpha  occ. eigenvalues --   -0.32615  -0.31482  -0.26901
 Alpha virt. eigenvalues --    0.00795   0.03374   0.05058   0.05323   0.05740
 Alpha virt. eigenvalues --    0.06163   0.08010   0.10476   0.12367   0.13091
 Alpha virt. eigenvalues --    0.13435   0.14254   0.14800   0.15206   0.15663

 Mulliken charges:
               1
     1  C   -0.195258
     2  C    0.300866
     3  O   -0.540865
     4  C    0.195869
     5  C   -0.281635
     6  H    0.122734
     7  H    0.145420
     8  H    0.151612
     9  N   -0.361301
    10  H    0.257741
    11  H    0.265535
    12  C   -0.375002
    13  H    0.151468
    14  H    0.153366
    15  H    0.151382
    16  C    0.216477
    17  C   -0.278795
    18  C   -0.171727
    19  C   -0.135556
    20  C   -0.169862
    21  C   -0.186413
    22  H    0.152079
    23  H    0.141633
    24  H    0.143558
    25  H    0.138834
    26  H    0.173101
    27  C    0.125165
    28  C   -0.270862
    29  C   -0.152843
    30  C   -0.138628
    31  C   -0.173831
    32  C   -0.262186
    33  H    0.157827
    34  H    0.136347
    35  H    0.139879
    36  H    0.135967
    37  H    0.161270
    38  C    0.161285
    39  C   -0.246979
    40  C   -0.155129
    41  C   -0.125306
    42  C   -0.158906
    43  C   -0.222734
    44  H    0.136230
    45  H    0.140516
    46  H    0.143951
    47  H    0.140034
    48  H    0.163672
 Sum of Mulliken charges =  -0.00000

 Dipole moment (field-independent basis, Debye):
    X=              2.3661    Y=              4.6087    Z=              1.1770  Tot=              5.3126
 Quadrupole moment (field-independent basis, Debye-Ang):
   XX=           -126.8508   YY=           -148.9503   ZZ=           -131.8272
   XY=              7.8567   XZ=              4.9489   YZ=              9.3765

  Exact polarizability:     456.600       4.698     355.200      14.043      -0.175     374.122
 Approx polarizability:     346.432       1.708     285.344      10.664      -2.068     318.601

 ******    1 imaginary frequencies (negative Signs) ******

                      1                      2                      3
                      A                      A                      A
 Frequencies --   -371.8808                25.2238                42.9866
 Red. masses --      5.0007                 4.6344                 4.5074
 Frc consts  --      0.4075                 0.0017                 0.0049
 IR Inten    --    653.2297                 0.4111                 0.3741

                      4                      5                      6
                      A                      A                      A
 Frequencies --     48.1480                53.9819                63.6145
 Red. masses --      4.6127                 4.1413                 3.5627
 Frc consts  --      0.0063                 0.0071                 0.0085
 IR Inten    --      1.4539                 0.8894                 0.2609

                      7                      8                      9
                      A                      A                      A
 Frequencies --     66.5462                79.2512                93.6909
 Red. masses --      3.1143                 3.5578                 3.2788
 Frc consts  --      0.0081                 0.0132                 0.0170
 IR Inten    --      1.4180                 1.3760                 2.2770

                     10                     11                     12
                      A                      A                      A
 Frequencies --    120.5241               147.4447               159.8281
 Red. masses --      4.9637                 3.9511                 1.5887
 Frc consts  --      0.0425                 0.0506                 0.0239
 IR Inten    --      3.7049                 5.7609                16.8552

                     13                     14                     15
                      A                      A                      A
 Frequencies --    182.1108               192.2092               210.4542
 Red. masses --      3.3633                 4.4063                 2.1757
 Frc consts  --      0.0657                 0.0959                 0.0568
 IR Inten    --      0.8567                 2.3943                 6.7914

                     16                     17                     18
                      A                      A                      A
 Frequencies --    228.6627               242.9145               263.3401
 Red. masses --      3.9271                 1.7617                 3.7038
 Frc consts  --      0.1210                 0.0612                 0.1513
 IR Inten    --      5.9913                 3.8571                 2.3774

                     19                     20                     21
                      A                      A                      A
 Frequencies --    267.1252               282.5148               305.5619
 Red. masses --      2.3434                 4.6832                 2.3308
 Frc consts  --      0.0985                 0.2202                 0.1282
 IR Inten    --      1.1752                 5.3550                11.9097

                     22                     23                     24
                      A                      A                      A
 Frequencies --    325.2195               355.5270               391.2267
 Red. masses --      2.8561                 4.8959                 4.7287
 Frc consts  --      0.1780                 0.3646                 0.4264
 IR Inten    --      3.9213                35.9945                 9.3012

                     25                     26                     27
                      A                      A                      A
 Frequencies --    413.2298               422.1539               429.1697
 Red. masses --      4.2881                 2.9546                 2.9748
 Frc consts  --      0.4314                 0.3102                 0.3228
 IR Inten    --     11.8901                 3.5054                 0.4600

                     28                     29                     30
                      A                      A                      A
 Frequencies --    432.2299               455.5889               532.1123
 Red. masses --      2.9998                 5.1437                 3.4454
 Frc consts  --      0.3302                 0.6290                 0.5748
 IR Inten    --      0.7907                19.6629                42.4490

                     31                     32                     33
                      A                      A                      A
 Frequencies --    541.0285               560.6660               588.9047
 Red. masses --      4.6028                 3.0988                 4.0405
 Frc consts  --      0.7938                 0.5739                 0.8256
 IR Inten    --     13.6020                25.7755                91.1230

                     34                     35                     36
                      A                      A                      A
 Frequencies --    620.7832               635.8643               639.4573
 Red. masses --      2.4593                 6.3217                 6.2717
 Frc consts  --      0.5584                 1.5060                 1.5110
 IR Inten    --      5.0647                 1.2187                 1.5180

                     37                     38                     39
                      A                      A                      A
 Frequencies --    640.2279               657.7795               681.4468
 Red. masses --      5.4476                 2.4192                 3.9790
 Frc consts  --      1.3156                 0.6167                 1.0887
 IR Inten    --      4.8469               148.0602                 6.7024

                     40                     41                     42
                      A                      A                      A
 Frequencies --    708.5259               724.8223               728.4295
 Red. masses --      5.5914                 1.6560                 1.6501
 Frc consts  --      1.6538                 0.5126                 0.5159
 IR Inten    --      0.1694                79.5844                72.3734

                     43                     44                     45
                      A                      A                      A
 Frequencies --    733.6577               761.6996               778.8704
 Red. masses --      1.5408                 2.6979                 2.9414
 Frc consts  --      0.4886                 0.9222                 1.0513
 IR Inten    --    100.1373                62.0796                29.2916

                     46                     47                     48
                      A                      A                      A
 Frequencies --    794.4324               826.8890               834.5396
 Red. masses --      2.0342                 3.1968                 3.0601
 Frc consts  --      0.7564                 1.2878                 1.2557
 IR Inten    --     66.9140                23.5090                43.4596

                     49                     50                     51
                      A                      A                      A
 Frequencies --    878.9797               880.9734               883.0094
 Red. masses --      1.2430                 1.2470                 1.2474
 Frc consts  --      0.5658                 0.5702                 0.5730
 IR Inten    --      2.0418                 0.7111                 0.9555

                     52                     53                     54
                      A                      A                      A
 Frequencies --    910.9036               957.6898               960.3093
 Red. masses --      4.5526                 1.3371                 1.4473
 Frc consts  --      2.2256                 0.7226                 0.7864
 IR Inten    --     13.8665                50.7350                 5.8493

                     55                     56                     57
                      A                      A                      A
 Frequencies --    966.3304               981.5674              1015.5969
 Red. masses --      1.4958                 1.1823                 1.3828
 Frc consts  --      0.8230                 0.6711                 0.8403
 IR Inten    --      6.9243                65.8091                 1.1161

                     58                     59                     60
                      A                      A                      A
 Frequencies --   1015.6810              1017.7149              1021.5537
 Red. masses --      1.5738                 1.5047                 1.8255
 Frc consts  --      0.9566                 0.9183                 1.1224
 IR Inten    --      9.3121                16.4688                 7.6835

                     61                     62                     63
                      A                      A                      A
 Frequencies --   1025.5815              1026.2520              1026.4084
 Red. masses --      3.1638                 4.1308                 3.4063
 Frc consts  --      1.9607                 2.5633                 2.1143
 IR Inten    --      1.1363                14.7512                 3.2763

                     64                     65                     66
                      A                      A                      A
 Frequencies --   1028.5997              1030.1947              1030.9661
 Red. masses --      1.8261                 1.3247                 1.4044
 Frc consts  --      1.1383                 0.8283                 0.8795
 IR Inten    --     11.5721                15.3614                 7.3912

                     67                     68                     69
                      A                      A                      A
 Frequencies --   1034.4510              1045.6735              1059.1026
 Red. masses --      1.2897                 1.5239                 2.2601
 Frc consts  --      0.8131                 0.9818                 1.4937
 IR Inten    --    120.2323                39.7780                21.7871

                     70                     71                     72
                      A                      A                      A
 Frequencies --   1062.0744              1068.2992              1095.9054
 Red. masses --      2.3263                 1.9164                 3.3522
 Frc consts  --      1.5461                 1.2886                 2.3721
 IR Inten    --      6.6209                 4.7355                14.6738

                     73                     74                     75
                      A                      A                      A
 Frequencies --   1110.1541              1112.3460              1116.0201
 Red. masses --      1.6279                 1.5789                 2.0890
 Frc consts  --      1.1821                 1.1510                 1.5329
 IR Inten    --     18.7129                17.8769                19.6993

                     76                     77                     78
                      A                      A                      A
 Frequencies --   1119.5904              1153.9660              1181.1880
 Red. masses --      1.7301                 2.8742                 1.1277
 Frc consts  --      1.2777                 2.2550                 0.9270
 IR Inten    --      9.9031                 6.7034                 0.7218

                     79                     80                     81
                      A                      A                      A
 Frequencies --   1183.1858              1183.7623              1190.4891
 Red. masses --      1.1372                 1.1294                 1.3982
 Frc consts  --      0.9380                 0.9325                 1.1675
 IR Inten    --      0.2146                 0.2741                36.1775

                     82                     83                     84
                      A                      A                      A
 Frequencies --   1204.3966              1211.8137              1215.2243
 Red. masses --      1.1261                 1.1244                 1.1259
 Frc consts  --      0.9624                 0.9729                 0.9796
 IR Inten    --      8.3759                 0.6191                 4.3792

                     85                     86                     87
                      A                      A                      A
 Frequencies --   1271.0339              1272.4757              1308.2066
 Red. masses --      3.9630                 4.3421                 4.5951
 Frc consts  --      3.7721                 4.1424                 4.6334
 IR Inten    --     35.4032                 7.4126                33.1121

                     88                     89                     90
                      A                      A                      A
 Frequencies --   1323.4367              1325.9153              1348.5525
 Red. masses --      4.2760                 4.3756                 1.4750
 Frc consts  --      4.4126                 4.5323                 1.5804
 IR Inten    --     33.0020                19.0784                64.9942

                     91                     92                     93
                      A                      A                      A
 Frequencies --   1355.2405              1359.0323              1362.3964
 Red. masses --      1.6374                 1.4942                 1.4068
 Frc consts  --      1.7719                 1.6260                 1.5385
 IR Inten    --     46.9492                33.9596                 6.1059

                     94                     95                     96
                      A                      A                      A
 Frequencies --   1381.2383              1392.0325              1416.3925
 Red. masses --      3.5356                 3.6114                 1.2933
 Frc consts  --      3.9742                 4.1231                 1.5287
 IR Inten    --    574.7977               538.6828               109.2314

                     97                     98                     99
                      A                      A                      A
 Frequencies --   1453.3804              1478.9694              1485.5900
 Red. masses --      1.1925                 1.1752                 1.3661
 Frc consts  --      1.4841                 1.5145                 1.7763
 IR Inten    --     10.1420                28.8962                11.0837

                    100                    101                    102
                      A                      A                      A
 Frequencies --   1487.7087              1489.8718              1493.1831
 Red. masses --      1.7009                 2.1698                 1.2589
 Frc consts  --      2.2181                 2.8377                 1.6538
 IR Inten    --     13.1127                 6.9467                44.3589

                    103                    104                    105
                      A                      A                      A
 Frequencies --   1494.6121              1506.8663              1540.2650
 Red. masses --      1.4898                 1.0377                 2.3296
 Frc consts  --      1.9608                 1.3883                 3.2563
 IR Inten    --     61.3476                 4.8209                 3.1896

                    106                    107                    108
                      A                      A                      A
 Frequencies --   1541.5792              1543.5904              1597.5519
 Red. masses --      2.2762                 2.3868                 7.1215
 Frc consts  --      3.1870                 3.3506                10.7086
 IR Inten    --     37.4001                32.6175               639.0882

                    109                    110                    111
                      A                      A                      A
 Frequencies --   1643.0285              1650.3035              1652.4475
 Red. masses --      5.5212                 5.3909                 2.2824
 Frc consts  --      8.7817                 8.6504                 3.6720
 IR Inten    --     10.2043                 6.5682                34.3311

                    112                    113                    114
                      A                      A                      A
 Frequencies --   1657.4020              1671.6902              1673.6331
 Red. masses --      1.6996                 5.9042                 5.8733
 Frc consts  --      2.7508                 9.7212                 9.6928
 IR Inten    --     15.3220                12.9835                 6.6294

                    115                    116                    117
                      A                      A                      A
 Frequencies --   1673.7006              3056.0946              3071.9461
 Red. masses --      5.9648                 1.0362                 1.0372
 Frc consts  --      9.8447                 5.7018                 5.7668
 IR Inten    --      0.7518                73.9397                13.2741

                    118                    119                    120
                      A                      A                      A
 Frequencies --   3127.0168              3143.0901              3155.3565
 Red. masses --      1.1001                 1.0988                 1.1043
 Frc consts  --      6.3377                 6.3954                 6.4781
 IR Inten    --     18.7900                17.8566                19.2513

                    121                    122                    123
                      A                      A                      A
 Frequencies --   3166.0064              3186.5230              3189.8564
 Red. masses --      1.1041                 1.0859                 1.0877
 Frc consts  --      6.5206                 6.4963                 6.5208
 IR Inten    --     30.2403                11.9860                 1.3086

                    124                    125                    126
                      A                      A                      A
 Frequencies --   3192.6729              3195.2278              3199.5405
 Red. masses --      1.0856                 1.0857                 1.0882
 Frc consts  --      6.5198                 6.5307                 6.5634
 IR Inten    --      1.0278                 0.9946                 3.4105

                    127                    128                    129
                      A                      A                      A
 Frequencies --   3200.2495              3203.0695              3206.3710
 Red. masses --      1.0910                 1.0887                 1.0950
 Frc consts  --      6.5835                 6.5809                 6.6327
 IR Inten    --     11.5429                 4.7538                51.9503

                    130                    131                    132
                      A                      A                      A
 Frequencies --   3207.5622              3212.7068              3213.9151
 Red. masses --      1.0916                 1.0919                 1.0950
 Frc consts  --      6.6171                 6.6398                 6.6638
 IR Inten    --     11.7480                25.3986                39.0777

                    133                    134                    135
                      A                      A                      A
 Frequencies --   3218.6791              3219.9194              3221.3644
 Red. masses --      1.0987                 1.0938                 1.0988
 Frc consts  --      6.7063                 6.6817                 6.7181
 IR Inten    --     21.8841                36.2803                17.7254

                    136                    137                    138
                      A                      A                      A
 Frequencies --   3225.1706              3443.6077              3607.0487
 Red. masses --      1.0978                 1.0621                 1.0863
 Frc consts  --      6.7278                 7.4208                 8.3271
 IR Inten    --      9.8135                92.4623                72.5563

 - Thermochemistry -
 -------------------
 Temperature   298.150 Kelvin.  Pressure   1.00000 Atm.
 Atom     1 has atomic number  6 and mass  12.00000

 Molecular mass:   329.17796 amu.
 Principal axes and moments of inertia in atomic units:
                           1         2         3
     Eigenvalues --  5786.11139********************
           X            0.99996   0.00803   0.00413
           Y           -0.00813   0.99968   0.02405
           Z           -0.00393  -0.02408   0.99970
 This molecule is an asymmetric top.
 Rotational symmetry number  1.
 Warning -- assumption of classical behavior for rotation
           may cause significant error
 Rotational temperatures (Kelvin)      0.01497     0.00855     0.00716
 Rotational constants (GHZ):           0.31191     0.17813     0.14917
    1 imaginary frequencies ignored.
 Zero-point vibrational energy    1058760.3 (Joules/Mol)
                                  253.04977 (Kcal/Mol)
 Warning -- explicit consideration of  33 degrees of freedom as
           vibrations may cause significant error
 Vibrational temperatures:     36.29    61.85    69.27    77.67    91.53
          (Kelvin)             95.75   114.02   134.80   173.41   212.14
                              229.96   262.02   276.55   302.80   328.99
                              349.50   378.89   384.33   406.48   439.64
                              467.92   511.52   562.89   594.55   607.39
                              617.48   621.88   655.49   765.59   778.42
                              806.67   847.30   893.17   914.87   920.04
                              921.15   946.40   980.45  1019.41  1042.86
                             1048.05  1055.57  1095.92  1120.62  1143.01
                             1189.71  1200.72  1264.66  1267.52  1270.45
                             1310.59  1377.90  1381.67  1390.33  1412.26
                             1461.22  1461.34  1464.26  1469.79  1475.58
                             1476.55  1476.77  1479.93  1482.22  1483.33
                             1488.34  1504.49  1523.81  1528.09  1537.04
                             1576.76  1597.26  1600.42  1605.70  1610.84
                             1660.30  1699.47  1702.34  1703.17  1712.85
                             1732.86  1743.53  1748.44  1828.73  1830.81
                             1882.22  1904.13  1907.70  1940.27  1949.89
                             1955.34  1960.18  1987.29  2002.82  2037.87
                             2091.09  2127.91  2137.43  2140.48  2143.59
                             2148.36  2150.41  2168.04  2216.10  2217.99
                             2220.88  2298.52  2363.95  2374.42  2377.50
                             2384.63  2405.19  2407.98  2408.08  4397.04
                             4419.85  4499.08  4522.21  4539.85  4555.18
                             4584.70  4589.49  4593.54  4597.22  4603.43
                             4604.45  4608.50  4613.25  4614.97  4622.37
                             4624.11  4630.96  4632.75  4634.82  4640.30
                             4954.58  5189.74

 Zero-point correction=                           0.403260 (Hartree/Particle)
 Thermal correction to Energy=                    0.425273
 Thermal correction to Enthalpy=                  0.426218
 Thermal correction to Gibbs Free Energy=         0.351398
 Sum of electronic and zero-point Energies=          -1019.865490
 Sum of electronic and thermal Energies=             -1019.843478
 Sum of electronic and thermal Enthalpies=           -1019.842533
 Sum of electronic and thermal Free Energies=        -1019.917353

                     E (Thermal)             CV                S
                      KCal/Mol        Cal/Mol-Kelvin    Cal/Mol-Kelvin
 Total                  266.863             86.283            157.471
 Electronic               0.000              0.000              0.000
 Translational            0.889              2.981             43.269
 Rotational               0.889              2.981             34.916
 Vibrational            265.086             80.321             79.286
 Vibration     1          0.593              1.985              6.174
 Vibration     2          0.595              1.980              5.116
 Vibration     3          0.595              1.978              4.892
 Vibration     4          0.596              1.976              4.666
 Vibration     5          0.597              1.972              4.342
 Vibration     6          0.598              1.970              4.253
 Vibration     7          0.600              1.963              3.909
 Vibration     8          0.603              1.954              3.581
 Vibration     9          0.609              1.932              3.092
 Vibration    10          0.617              1.905              2.705
 Vibration    11          0.622              1.892              2.552
 Vibration    12          0.630              1.864              2.307
 Vibration    13          0.634              1.851              2.206
 Vibration    14          0.643              1.825              2.040
 Vibration    15          0.651              1.797              1.889
 Vibration    16          0.659              1.774              1.781
 Vibration    17          0.670              1.740              1.640
 Vibration    18          0.672              1.733              1.615
 Vibration    19          0.682              1.706              1.518
 Vibration    20          0.696              1.663              1.386
 Vibration    21          0.709              1.625              1.284
 Vibration    22          0.731              1.564              1.142
 Vibration    23          0.759              1.489              0.995
 Vibration    24          0.777              1.442              0.915
 Vibration    25          0.784              1.422              0.885
 Vibration    26          0.791              1.407              0.861
 Vibration    27          0.793              1.400              0.851
 Vibration    28          0.814              1.349              0.779
 Vibration    29          0.887              1.179              0.583
 Vibration    30          0.896              1.159              0.563
 Vibration    31          0.916              1.116              0.523
 Vibration    32          0.946              1.055              0.469
 Vibration    33          0.981              0.988              0.415

 Optimization completed.
    -- Stationary point found.
 Normal termination of Gaussian 16 at Mon Jun  6 21:18:03 2022.
