 Gaussian 16, Revision A.03,
 Gaussian 16:  ES64L-G16RevA.03 25-Dec-2016

 ----------------------------------------------------------------------
 # wB97XD def2tzvp, opt=(ts, noeigen, calcfc, maxcycles=70, maxstep=8),
  freq=noraman, scrf=(iefpcm, solvent=water)
 ----------------------------------------------------------------------

 ------------------------
 1_iteration/TS-432-1.out
 ------------------------
 Symbolic Z-matrix:
 Charge =  0 Multiplicity = 1

 SCF Done:  E(RwB97XD) =  -3362.82670111     A.U. after   15 cycles
 Optimization completed.
    -- Stationary point found.
 Normal termination of Gaussian 16 at Mon Mar 29 00:02:37 2021.

 ---------------------------------------------------------------------
 #N Geom=AllCheck Guess=TCheck SCRF=Check GenChk RwB97XD/def2TZVP Freq
 ---------------------------------------------------------------------

 Structure from the checkpoint file:  "/beegfs/scratch/user/q/tla25/Gau-65274.chk"
 ------------------------
 1_iteration/TS-432-1.out
 ------------------------
 Charge =  0 Multiplicity = 1

                         Standard orientation:
 ---------------------------------------------------------------------
 Center     Atomic      Atomic             Coordinates (Angstroms)
 Number     Number       Type             X           Y           Z
 ---------------------------------------------------------------------
      1          6           0        0.015100    0.570630   -0.210361
      2          6           0       -0.604260   -0.405010    0.628719
      3          8           0        0.015829   -0.940580    1.560989
      4          6           0        1.400330    0.807939   -0.170061
      5          6           0        0.771660    2.441860    2.168109
      6          1           0       -0.221750    2.169580    1.811019
      7          1           0        0.733280    2.544320    3.253979
      8          1           0        1.052601    3.398950    1.731709
      9          7           0        1.716090    1.417229    1.752289
     10          1           0        2.668660    1.679949    1.965359
     11          1           0        1.501710    0.524019    2.185379
     12          6           0        1.979980    1.992529   -0.896451
     13          1           0        1.893470    1.823639   -1.972351
     14          1           0        1.452280    2.912989   -0.656631
     15          1           0        3.035500    2.108569   -0.659711
     16          6           0        2.321240   -0.389201   -0.185351
     17          6           0        3.619890   -0.332441    0.317099
     18          6           0        4.476639   -1.416431    0.209949
     19          6           0        4.059199   -2.577461   -0.422931
     20          6           0        2.780359   -2.636851   -0.955151
     21          6           0        1.924749   -1.553061   -0.841061
     22          1           0        3.987910    0.564249    0.796899
     23          1           0        5.476759   -1.347892    0.618589
     24          1           0        4.728689   -3.423661   -0.509771
     25          1           0        2.444569   -3.529771   -1.467211
     26          1           0        0.934809   -1.604970   -1.273211
     27         35           0       -1.119450    1.832450   -1.112651
     28          6           0       -2.030701   -0.819310    0.417909
     29          6           0       -2.484911   -1.235340   -0.829371
     30          6           0       -3.781071   -1.702579   -0.981971
     31          6           0       -4.640641   -1.736819    0.107709
     32          6           0       -4.194151   -1.318669    1.353829
     33          6           0       -2.889821   -0.875309    1.510119
     34          1           0       -1.818231   -1.199580   -1.682281
     35          1           0       -4.122161   -2.037819   -1.953281
     36          1           0       -5.656271   -2.091849   -0.013701
     37          1           0       -4.861371   -1.343929    2.206129
     38          1           0       -2.530530   -0.565370    2.483539
 ---------------------------------------------------------------------

 SCF Done:  E(RwB97XD) =  -3362.82670111     A.U. after    1 cycles

 The electronic state is 1-A.
 Alpha  occ. eigenvalues -- -483.12217 -62.67035 -56.46146 -56.45803 -56.45799
 Alpha  occ. eigenvalues --  -19.21921 -14.46541 -10.36600 -10.36344 -10.31083
 Alpha  occ. eigenvalues --  -10.30931 -10.30874 -10.29811 -10.29560 -10.29362
 Alpha  occ. eigenvalues --  -10.29287 -10.29276 -10.29242 -10.29224 -10.29198
 Alpha  occ. eigenvalues --  -10.29140 -10.29120 -10.29120 -10.28629  -8.81134
 Alpha  occ. eigenvalues --   -6.63255  -6.62162  -6.62151  -2.73649  -2.73328
 Alpha  occ. eigenvalues --   -2.73320  -2.72436  -2.72435  -1.12640  -1.02465
 Alpha  occ. eigenvalues --   -0.97615  -0.96838  -0.93687  -0.88698  -0.86128
 Alpha  occ. eigenvalues --   -0.85520  -0.85319  -0.83551  -0.79990  -0.78043
 Alpha  occ. eigenvalues --   -0.74178  -0.71147  -0.70589  -0.70401  -0.67176
 Alpha  occ. eigenvalues --   -0.63687  -0.62106  -0.61770  -0.58529  -0.56876
 Alpha  occ. eigenvalues --   -0.56674  -0.55490  -0.55016  -0.54128  -0.53683
 Alpha  occ. eigenvalues --   -0.53083  -0.52449  -0.51385  -0.51079  -0.50128
 Alpha  occ. eigenvalues --   -0.49632  -0.48570  -0.47427  -0.47081  -0.46846
 Alpha  occ. eigenvalues --   -0.46385  -0.45490  -0.44147  -0.43105  -0.42719
 Alpha  occ. eigenvalues --   -0.42545  -0.40318  -0.39242  -0.37497  -0.35113
 Alpha  occ. eigenvalues --   -0.34008  -0.33762  -0.33191  -0.32071  -0.27708
 Alpha virt. eigenvalues --    0.00417   0.03982   0.05064   0.05213   0.06989
 Alpha virt. eigenvalues --    0.08944   0.10241   0.12529   0.13112   0.13635
 Alpha virt. eigenvalues --    0.14652   0.14955   0.15593   0.16343   0.16931

 Mulliken charges:
               1
     1  C   -0.340226
     2  C    0.294250
     3  O   -0.508809
     4  C    0.262710
     5  C   -0.296074
     6  H    0.148061
     7  H    0.150768
     8  H    0.153264
     9  N   -0.369728
    10  H    0.266586
    11  H    0.277294
    12  C   -0.365690
    13  H    0.158180
    14  H    0.146828
    15  H    0.149361
    16  C    0.197885
    17  C   -0.254769
    18  C   -0.173700
    19  C   -0.131475
    20  C   -0.166268
    21  C   -0.200428
    22  H    0.147897
    23  H    0.143232
    24  H    0.144905
    25  H    0.140843
    26  H    0.163701
    27  Br  -0.136344
    28  C    0.178789
    29  C   -0.253365
    30  C   -0.138561
    31  C   -0.132586
    32  C   -0.148302
    33  C   -0.244833
    34  H    0.163237
    35  H    0.143231
    36  H    0.145825
    37  H    0.142987
    38  H    0.141323
 Sum of Mulliken charges =  -0.00000

 Dipole moment (field-independent basis, Debye):
    X=              4.4900    Y=              3.0932    Z=              1.3565  Tot=              5.6185
 Quadrupole moment (field-independent basis, Debye-Ang):
   XX=           -108.4724   YY=           -125.4181   ZZ=           -124.9846
   XY=              9.8999   XZ=              5.5815   YZ=             14.6459

  Exact polarizability: 383.124  13.115 301.024  20.554  18.150 289.102
 Approx polarizability: 290.030   8.419 245.447  18.889  12.524 250.599

 ******    1 imaginary frequencies (negative Signs) ******

                      1                      2                      3
                      A                      A                      A
 Frequencies --   -354.5682                27.7366                46.8895
 Red. masses --      5.1285                 5.1190                 4.3041
 Frc consts  --      0.3799                 0.0023                 0.0056
 IR Inten    --    585.7855                 1.6551                 1.0970

                      4                      5                      6
                      A                      A                      A
 Frequencies --     54.5033                64.5100                70.5293
 Red. masses --      4.1898                 4.0494                 3.2158
 Frc consts  --      0.0073                 0.0099                 0.0094
 IR Inten    --      0.1260                 5.5948                 1.9225

                      7                      8                      9
                      A                      A                      A
 Frequencies --     87.1963                96.4729               136.4715
 Red. masses --      3.3987                 4.7515                 4.0521
 Frc consts  --      0.0152                 0.0261                 0.0445
 IR Inten    --      2.6108                 0.9971                 9.4714

                     10                     11                     12
                      A                      A                      A
 Frequencies --    145.8964               185.1275               190.7211
 Red. masses --      2.4951                 1.8345                 4.5856
 Frc consts  --      0.0313                 0.0370                 0.0983
 IR Inten    --     20.5598                 3.3659                 1.3840

                     13                     14                     15
                      A                      A                      A
 Frequencies --    194.4800               202.0820               237.9291
 Red. masses --      4.6752                 3.7840                 3.5129
 Frc consts  --      0.1042                 0.0910                 0.1172
 IR Inten    --      5.9013                 3.1002                 2.0875

                     16                     17                     18
                      A                      A                      A
 Frequencies --    261.6201               267.8182               295.1483
 Red. masses --      1.4532                 3.1364                 2.6906
 Frc consts  --      0.0586                 0.1325                 0.1381
 IR Inten    --      0.4919                 8.5252                 8.4205

                     19                     20                     21
                      A                      A                      A
 Frequencies --    316.1657               327.9194               376.6333
 Red. masses --      3.6373                 3.1103                 6.2105
 Frc consts  --      0.2142                 0.1971                 0.5191
 IR Inten    --      7.6800                23.8736                12.4511

                     22                     23                     24
                      A                      A                      A
 Frequencies --    406.0918               420.9094               426.8070
 Red. masses --      4.5417                 3.0002                 4.1493
 Frc consts  --      0.4413                 0.3132                 0.4453
 IR Inten    --      6.6507                 1.5316                 5.2064

                     25                     26                     27
                      A                      A                      A
 Frequencies --    428.8371               543.0213               556.4308
 Red. masses --      3.1806                 4.6239                 2.7030
 Frc consts  --      0.3446                 0.8033                 0.4931
 IR Inten    --      0.9786                77.1032                54.0882

                     28                     29                     30
                      A                      A                      A
 Frequencies --    562.7824               605.9859               634.7489
 Red. masses --      4.0979                 2.4767                 5.6917
 Frc consts  --      0.7647                 0.5359                 1.3511
 IR Inten    --     85.2965                 9.5630                 6.4900

                     31                     32                     33
                      A                      A                      A
 Frequencies --    639.5462               641.2882               689.3272
 Red. masses --      6.0875                 2.4425                 5.4095
 Frc consts  --      1.4670                 0.5918                 1.5145
 IR Inten    --      2.0030                82.6889                 8.3039

                     34                     35                     36
                      A                      A                      A
 Frequencies --    726.2975               727.6169               754.1399
 Red. masses --      1.6675                 1.6467                 3.3865
 Frc consts  --      0.5182                 0.5136                 1.1348
 IR Inten    --     83.5510                73.8334                61.4182

                     37                     38                     39
                      A                      A                      A
 Frequencies --    787.5162               794.4801               824.4939
 Red. masses --      3.5106                 2.2865                 2.9243
 Frc consts  --      1.2828                 0.8503                 1.1712
 IR Inten    --      9.4302                54.3404                38.4898

                     40                     41                     42
                      A                      A                      A
 Frequencies --    879.0695               881.8925               886.2707
 Red. masses --      1.2427                 1.2707                 5.7965
 Frc consts  --      0.5658                 0.5823                 2.6826
 IR Inten    --      1.1044                 1.9176                42.2555

                     43                     44                     45
                      A                      A                      A
 Frequencies --    959.7414               966.3675               980.3580
 Red. masses --      1.3480                 1.4555                 1.1675
 Frc consts  --      0.7316                 0.8008                 0.6611
 IR Inten    --     50.1105                 2.4253                90.8980

                     46                     47                     48
                      A                      A                      A
 Frequencies --   1015.6849              1016.8059              1023.2765
 Red. masses --      1.3885                 1.4855                 1.6923
 Frc consts  --      0.8439                 0.9049                 1.0440
 IR Inten    --      1.4878                40.6202                39.6831

                     49                     50                     51
                      A                      A                      A
 Frequencies --   1025.9530              1027.1634              1031.3297
 Red. masses --      4.4877                 4.1899                 1.3412
 Frc consts  --      2.7831                 2.6045                 0.8405
 IR Inten    --     12.0527                 4.5178                 5.6665

                     52                     53                     54
                      A                      A                      A
 Frequencies --   1032.2646              1036.3205              1045.3899
 Red. masses --      1.2963                 1.4331                 1.5454
 Frc consts  --      0.8138                 0.9068                 0.9951
 IR Inten    --      5.8646                60.9803                69.1317

                     55                     56                     57
                      A                      A                      A
 Frequencies --   1059.1629              1062.7762              1092.8688
 Red. masses --      2.2438                 2.3864                 3.3063
 Frc consts  --      1.4830                 1.5881                 2.3267
 IR Inten    --     22.0585                 5.0069                 8.1530

                     58                     59                     60
                      A                      A                      A
 Frequencies --   1110.3060              1114.0663              1122.2255
 Red. masses --      1.7483                 2.0922                 1.6215
 Frc consts  --      1.2698                 1.5300                 1.2032
 IR Inten    --     36.4569                 4.3588                 9.9670

                     61                     62                     63
                      A                      A                      A
 Frequencies --   1164.2190              1184.1424              1185.4382
 Red. masses --      3.3681                 1.1416                 1.1289
 Frc consts  --      2.6897                 0.9431                 0.9346
 IR Inten    --     11.8706                 0.1206                 0.0133

                     64                     65                     66
                      A                      A                      A
 Frequencies --   1194.7769              1205.3002              1218.6457
 Red. masses --      1.4042                 1.1280                 1.1365
 Frc consts  --      1.1810                 0.9655                 0.9944
 IR Inten    --     26.7907                 7.3598                 4.2455

                     67                     68                     69
                      A                      A                      A
 Frequencies --   1269.3329              1317.0347              1323.4166
 Red. masses --      4.5282                 4.1748                 4.2244
 Frc consts  --      4.2986                 4.2666                 4.3593
 IR Inten    --     15.9230                10.5168                54.6587

                     70                     71                     72
                      A                      A                      A
 Frequencies --   1347.4263              1353.3142              1358.9077
 Red. masses --      4.2339                 1.5334                 1.5381
 Frc consts  --      4.5290                 1.6546                 1.6735
 IR Inten    --    105.8873                73.0692                 7.3318

                     73                     74                     75
                      A                      A                      A
 Frequencies --   1367.7871              1388.4482              1418.8000
 Red. masses --      1.3644                 3.6171                 1.3101
 Frc consts  --      1.5040                 4.1084                 1.5539
 IR Inten    --      8.1468              1039.5242               113.0572

                     76                     77                     78
                      A                      A                      A
 Frequencies --   1455.6550              1481.0412              1484.7653
 Red. masses --      1.2002                 1.1468                 1.0764
 Frc consts  --      1.4984                 1.4821                 1.3981
 IR Inten    --     11.7015                12.0784                31.4479

                     79                     80                     81
                      A                      A                      A
 Frequencies --   1490.1914              1491.3626              1494.1015
 Red. masses --      2.2309                 1.1402                 1.7959
 Frc consts  --      2.9188                 1.4942                 2.3620
 IR Inten    --     13.8340                14.0197                63.8495

                     82                     83                     84
                      A                      A                      A
 Frequencies --   1504.5794              1541.4077              1542.4904
 Red. masses --      1.0351                 2.3314                 2.2487
 Frc consts  --      1.3806                 3.2636                 3.1522
 IR Inten    --     14.0657                 7.5576                18.1221

                     85                     86                     87
                      A                      A                      A
 Frequencies --   1605.9674              1639.6191              1651.4462
 Red. masses --      3.9311                 1.3558                 5.7143
 Frc consts  --      5.9736                 2.1475                 9.1822
 IR Inten    --    417.8419                24.0785                 2.1674

                     88                     89                     90
                      A                      A                      A
 Frequencies --   1655.3340              1673.7781              1674.3526
 Red. masses --      5.5075                 5.9328                 5.8692
 Frc consts  --      8.8915                 9.7927                 9.6945
 IR Inten    --     21.1042                 1.9124                 6.9257

                     91                     92                     93
                      A                      A                      A
 Frequencies --   3059.7125              3067.0405              3130.8122
 Red. masses --      1.0346                 1.0397                 1.1023
 Frc consts  --      5.7067                 5.7625                 6.3657
 IR Inten    --     53.0070                 9.0490                17.2757

                     94                     95                     96
                      A                      A                      A
 Frequencies --   3142.6222              3157.2881              3172.0438
 Red. masses --      1.0962                 1.1050                 1.1040
 Frc consts  --      6.3788                 6.4900                 6.5449
 IR Inten    --     15.1049                20.0609                21.7816

                     97                     98                     99
                      A                      A                      A
 Frequencies --   3193.5387              3197.7903              3199.2445
 Red. masses --      1.0858                 1.0860                 1.0881
 Frc consts  --      6.5245                 6.5429                 6.5615
 IR Inten    --      1.6487                 0.6806                 0.7553

                    100                    101                    102
                      A                      A                      A
 Frequencies --   3205.8896              3206.4369              3213.8425
 Red. masses --      1.0893                 1.0916                 1.0953
 Frc consts  --      6.5962                 6.6127                 6.6654
 IR Inten    --      8.3221                 9.8096                35.9477

                    103                    104                    105
                      A                      A                      A
 Frequencies --   3216.9198              3222.1034              3224.4006
 Red. masses --      1.0925                 1.0989                 1.0933
 Frc consts  --      6.6612                 6.7219                 6.6973
 IR Inten    --     26.3342                19.7638                33.9151

                    106                    107                    108
                      A                      A                      A
 Frequencies --   3228.6632              3501.3066              3619.5735
 Red. masses --      1.0971                 1.0554                 1.0914
 Frc consts  --      6.7384                 7.6228                 8.4246
 IR Inten    --      7.0859                35.3137                67.0857

 - Thermochemistry -
 -------------------
 Temperature   298.150 Kelvin.  Pressure   1.00000 Atm.
 Atom     1 has atomic number  6 and mass  12.00000

 Molecular mass:   331.05718 amu.
 Principal axes and moments of inertia in atomic units:
                           1         2         3
     Eigenvalues --  4526.283778801.21010**********
           X            0.99940   0.03442  -0.00430
           Y           -0.03390   0.99537   0.08995
           Z            0.00738  -0.08975   0.99594
 This molecule is an asymmetric top.
 Rotational symmetry number  1.
 Warning -- assumption of classical behavior for rotation
           may cause significant error
 Rotational temperatures (Kelvin)      0.01914     0.00984     0.00824
 Rotational constants (GHZ):           0.39872     0.20506     0.17179
    1 imaginary frequencies ignored.
 Zero-point vibrational energy     818053.0 (Joules/Mol)
                                  195.51935 (Kcal/Mol)
 Warning -- explicit consideration of  28 degrees of freedom as
           vibrations may cause significant error
 Vibrational temperatures:     39.91    67.46    78.42    92.82   101.48
          (Kelvin)            125.46   138.80   196.35   209.91   266.36
                              274.41   279.81   290.75   342.33   376.41
                              385.33   424.65   454.89   471.80   541.89
                              584.28   605.59   614.08   617.00   781.29
                              800.58   809.72   871.88   913.26   920.16
                              922.67   991.79  1044.98  1046.88  1085.04
                             1133.06  1143.08  1186.26  1264.78  1268.85
                             1275.15  1380.85  1390.39  1410.52  1461.34
                             1462.96  1472.27  1476.12  1477.86  1483.85
                             1485.20  1491.03  1504.08  1523.90  1529.10
                             1572.39  1597.48  1602.89  1614.63  1675.05
                             1703.72  1705.58  1719.02  1734.16  1753.36
                             1826.29  1894.92  1904.10  1938.65  1947.12
                             1955.17  1967.94  1997.67  2041.34  2094.36
                             2130.89  2136.25  2144.05  2145.74  2149.68
                             2164.75  2217.74  2219.30  2310.63  2359.05
                             2376.06  2381.66  2408.19  2409.02  4402.24
                             4412.79  4504.54  4521.53  4542.63  4563.86
                             4594.79  4600.91  4603.00  4612.56  4613.35
                             4624.00  4628.43  4635.89  4639.19  4645.33
                             5037.60  5207.76

 Zero-point correction=                           0.311580 (Hartree/Particle)
 Thermal correction to Energy=                    0.330589
 Thermal correction to Enthalpy=                  0.331533
 Thermal correction to Gibbs Free Energy=         0.262866
 Sum of electronic and zero-point Energies=          -3362.515121
 Sum of electronic and thermal Energies=             -3362.496112
 Sum of electronic and thermal Enthalpies=           -3362.495168
 Sum of electronic and thermal Free Energies=        -3362.563835

                     E (Thermal)             CV                S
                      KCal/Mol        Cal/Mol-Kelvin    Cal/Mol-Kelvin
 Total                  207.448             71.743            144.522
 Electronic               0.000              0.000              0.000
 Translational            0.889              2.981             43.286
 Rotational               0.889              2.981             34.392
 Vibrational            205.670             65.782             66.844
 Vibration     1          0.593              1.984              5.985
 Vibration     2          0.595              1.979              4.944
 Vibration     3          0.596              1.976              4.647
 Vibration     4          0.597              1.971              4.314
 Vibration     5          0.598              1.968              4.139
 Vibration     6          0.601              1.958              3.722
 Vibration     7          0.603              1.952              3.524
 Vibration     8          0.614              1.917              2.853
 Vibration     9          0.617              1.907              2.725
 Vibration    10          0.631              1.860              2.276
 Vibration    11          0.634              1.853              2.221
 Vibration    12          0.635              1.848              2.185
 Vibration    13          0.639              1.837              2.114
 Vibration    14          0.656              1.783              1.818
 Vibration    15          0.669              1.743              1.651
 Vibration    16          0.673              1.732              1.610
 Vibration    17          0.689              1.683              1.444
 Vibration    18          0.703              1.643              1.330
 Vibration    19          0.711              1.620              1.270
 Vibration    20          0.747              1.520              1.053
 Vibration    21          0.771              1.457              0.941
 Vibration    22          0.783              1.425              0.889
 Vibration    23          0.788              1.412              0.869
 Vibration    24          0.790              1.407              0.862
 Vibration    25          0.898              1.155              0.559
 Vibration    26          0.912              1.126              0.531
 Vibration    27          0.919              1.112              0.518
 Vibration    28          0.965              1.019              0.439

 Optimization completed.
    -- Stationary point found.
 Normal termination of Gaussian 16 at Mon Mar 29 02:30:36 2021.
