 Gaussian 16, Revision A.03,
 Gaussian 16:  ES64L-G16RevA.03 25-Dec-2016

 ----------------------------------------------------------------------
 # wB97XD def2tzvp, opt=(ts, noeigen, calcfc, maxcycles=70, maxstep=1),
  freq=noraman, scrf=(iefpcm, solvent=water)
 ----------------------------------------------------------------------

 ------------------------
 4_iteration/TS-440-4.out
 ------------------------
 Symbolic Z-matrix:
 Charge =  0 Multiplicity = 1

 SCF Done:  E(RwB97XD) =  -1248.82206410     A.U. after   15 cycles
 SCF Done:  E(RwB97XD) =  -1248.82206415     A.U. after    7 cycles
 Optimization completed.
    -- Stationary point found.
 Normal termination of Gaussian 16 at Mon Feb 15 05:24:37 2021.

 ---------------------------------------------------------------------
 #N Geom=AllCheck Guess=TCheck SCRF=Check GenChk RwB97XD/def2TZVP Freq
 ---------------------------------------------------------------------

 Structure from the checkpoint file:  "/beegfs/scratch/user/q/tla25/Gau-87445.chk"
 ------------------------
 4_iteration/TS-440-4.out
 ------------------------
 Charge =  0 Multiplicity = 1

                         Standard orientation:
 ---------------------------------------------------------------------
 Center     Atomic      Atomic             Coordinates (Angstroms)
 Number     Number       Type             X           Y           Z
 ---------------------------------------------------------------------
      1          6           0       -0.074936    0.672959   -0.515784
      2          6           0       -0.773854   -0.061863    0.485585
      3          8           0       -0.213170   -0.426088    1.532779
      4          6           0        1.318109    0.861955   -0.470105
      5          6           0        0.707904    3.015309    1.398348
      6          1           0        1.102711    3.837995    0.804701
      7          1           0       -0.277550    2.745265    1.017301
      8          1           0        0.599895    3.344166    2.433370
      9          7           0        1.585818    1.861661    1.283176
     10          1           0        1.272923    1.099662    1.878303
     11          1           0        2.543320    2.095547    1.507792
     12          6           0        1.953715    1.840571   -1.421051
     13          1           0        1.440133    2.799415   -1.416523
     14          1           0        3.003282    1.989038   -1.176480
     15          1           0        1.898311    1.433727   -2.433426
     16          6           0        2.192590   -0.334156   -0.186047
     17          6           0        3.483037   -0.201588    0.323052
     18          6           0        4.303733   -1.305831    0.489332
     19          6           0        3.857176   -2.568394    0.129784
     20          6           0        2.586367   -2.711082   -0.406296
     21          6           0        1.766942   -1.605362   -0.566157
     22          1           0        3.872458    0.771046    0.591982
     23          1           0        5.298366   -1.174802    0.896075
     24          1           0        4.498363   -3.431363    0.256295
     25          1           0        2.229023   -3.687763   -0.707375
     26          1           0        0.783325   -1.725511   -0.999450
     27         17           0       -1.022089    1.657666   -1.634791
     28          6           0       -2.222526   -0.410542    0.311830
     29          6           0       -3.101335   -0.197373    1.368557
     30          6           0       -4.432303   -0.570227    1.260267
     31          6           0       -4.888978   -1.184470    0.102213
     32          6           0       -4.012140   -1.416987   -0.948798
     33          6           0       -2.687206   -1.021695   -0.848413
     34          1           0       -2.735296    0.265671    2.276490
     35          1           0       -5.112901   -0.386925    2.082140
     36          1           0       -5.926084   -1.484324    0.019676
     37          1           0       -4.361877   -1.905221   -1.849667
     38          1           0       -2.006033   -1.196204   -1.672145
 ---------------------------------------------------------------------

 SCF Done:  E(RwB97XD) =  -1248.82206415     A.U. after    1 cycles

 The electronic state is 1-A.
 Alpha  occ. eigenvalues -- -101.68759 -19.21770 -14.46575 -10.36430 -10.36257
 Alpha  occ. eigenvalues --  -10.31152 -10.31116 -10.30900 -10.29772 -10.29559
 Alpha  occ. eigenvalues --  -10.29333 -10.29282 -10.29250 -10.29227 -10.29221
 Alpha  occ. eigenvalues --  -10.29199 -10.29117 -10.29115 -10.29098 -10.28593
 Alpha  occ. eigenvalues --   -9.57298  -7.31926  -7.31088  -7.31073  -1.12478
 Alpha  occ. eigenvalues --   -1.02527  -0.97941  -0.96935  -0.95939  -0.90266
 Alpha  occ. eigenvalues --   -0.86448  -0.85530  -0.85294  -0.83819  -0.80388
 Alpha  occ. eigenvalues --   -0.78090  -0.74201  -0.71171  -0.70578  -0.70403
 Alpha  occ. eigenvalues --   -0.67219  -0.63735  -0.62132  -0.61814  -0.58637
 Alpha  occ. eigenvalues --   -0.56911  -0.56781  -0.55783  -0.55076  -0.54501
 Alpha  occ. eigenvalues --   -0.53703  -0.53167  -0.52501  -0.51364  -0.51083
 Alpha  occ. eigenvalues --   -0.50111  -0.49593  -0.49144  -0.47499  -0.47210
 Alpha  occ. eigenvalues --   -0.47119  -0.46663  -0.45588  -0.44172  -0.43102
 Alpha  occ. eigenvalues --   -0.42976  -0.42872  -0.41815  -0.40226  -0.39562
 Alpha  occ. eigenvalues --   -0.35083  -0.34002  -0.33800  -0.33264  -0.32162
 Alpha  occ. eigenvalues --   -0.27647
 Alpha virt. eigenvalues --    0.00476   0.04037   0.05112   0.05245   0.07371
 Alpha virt. eigenvalues --    0.10310   0.11537   0.12779   0.13209   0.13873
 Alpha virt. eigenvalues --    0.14818   0.15104   0.15614   0.16432   0.16978

 Mulliken charges:
               1
     1  C   -0.305068
     2  C    0.310061
     3  O   -0.517644
     4  C    0.272732
     5  C   -0.297931
     6  H    0.153731
     7  H    0.148084
     8  H    0.149938
     9  N   -0.366080
    10  H    0.276436
    11  H    0.265675
    12  C   -0.369338
    13  H    0.144839
    14  H    0.147542
    15  H    0.157163
    16  C    0.197774
    17  C   -0.257607
    18  C   -0.173362
    19  C   -0.133986
    20  C   -0.159762
    21  C   -0.205740
    22  H    0.150329
    23  H    0.143306
    24  H    0.144897
    25  H    0.141172
    26  H    0.162884
    27  Cl  -0.159204
    28  C    0.164677
    29  C   -0.247490
    30  C   -0.147517
    31  C   -0.131539
    32  C   -0.139484
    33  C   -0.253647
    34  H    0.141193
    35  H    0.142897
    36  H    0.145815
    37  H    0.143150
    38  H    0.161100
 Sum of Mulliken charges =  -0.00000

 Dipole moment (field-independent basis, Debye):
    X=              4.5058    Y=              3.3374    Z=              0.7127  Tot=              5.6523
 Quadrupole moment (field-independent basis, Debye-Ang):
   XX=           -103.2673   YY=           -113.1328   ZZ=           -125.0923
   XY=              9.8789   XZ=              3.8765   YZ=             13.0024

  Exact polarizability: 374.035  16.060 293.368  17.610  16.641 271.092
 Approx polarizability: 282.464  11.258 240.405  16.943  12.920 237.798

 ******    1 imaginary frequencies (negative Signs) ******

                      1                      2                      3
                      A                      A                      A
 Frequencies --   -361.8891                27.9389                42.4505
 Red. masses --      5.1045                 5.0351                 3.7331
 Frc consts  --      0.3939                 0.0023                 0.0040
 IR Inten    --    606.1204                 1.3318                 1.1974

                      4                      5                      6
                      A                      A                      A
 Frequencies --     46.7219                62.8753                76.3558
 Red. masses --      3.6769                 2.4504                 4.7903
 Frc consts  --      0.0047                 0.0057                 0.0165
 IR Inten    --      0.6348                 2.6496                 6.6089

                      7                      8                      9
                      A                      A                      A
 Frequencies --     86.2063               109.7300               137.0884
 Red. masses --      5.3213                 5.6220                 3.9447
 Frc consts  --      0.0233                 0.0399                 0.0437
 IR Inten    --      2.3007                 2.0796                 6.4076

                     10                     11                     12
                      A                      A                      A
 Frequencies --    150.4966               189.9756               199.1444
 Red. masses --      2.2643                 1.6254                 4.3213
 Frc consts  --      0.0302                 0.0346                 0.1010
 IR Inten    --     19.3543                 7.6337                 2.2263

                     13                     14                     15
                      A                      A                      A
 Frequencies --    205.6204               231.0763               253.0527
 Red. masses --      3.7559                 5.2691                 1.2790
 Frc consts  --      0.0936                 0.1658                 0.0483
 IR Inten    --      1.8484                 6.4381                 0.6122

                     16                     17                     18
                      A                      A                      A
 Frequencies --    256.7315               273.2800               300.8840
 Red. masses --      2.9525                 4.1008                 3.4988
 Frc consts  --      0.1147                 0.1804                 0.1866
 IR Inten    --      1.1362                10.1656                 8.1348

                     19                     20                     21
                      A                      A                      A
 Frequencies --    319.3195               339.2818               381.0538
 Red. masses --      2.8747                 5.7926                 6.2744
 Frc consts  --      0.1727                 0.3929                 0.5368
 IR Inten    --     16.9318                12.5189                15.4334

                     22                     23                     24
                      A                      A                      A
 Frequencies --    415.0445               419.6601               427.5607
 Red. masses --      4.0607                 2.8834                 3.0556
 Frc consts  --      0.4121                 0.2992                 0.3291
 IR Inten    --      7.2446                 0.6802                 0.4065

                     25                     26                     27
                      A                      A                      A
 Frequencies --    452.3971               556.6187               561.4939
 Red. masses --      5.4058                 2.8029                 5.4053
 Frc consts  --      0.6518                 0.5117                 1.0041
 IR Inten    --      5.2562                37.8664                54.8177

                     28                     29                     30
                      A                      A                      A
 Frequencies --    564.1276               612.3609               635.4864
 Red. masses --      3.8199                 2.7305                 6.1315
 Frc consts  --      0.7162                 0.6033                 1.4589
 IR Inten    --    121.6586                10.9240                 2.6870

                     31                     32                     33
                      A                      A                      A
 Frequencies --    639.5923               647.2815               692.1559
 Red. masses --      6.3077                 2.1577                 5.4343
 Frc consts  --      1.5203                 0.5326                 1.5339
 IR Inten    --      1.4855                99.2943                 5.7291

                     34                     35                     36
                      A                      A                      A
 Frequencies --    723.7187               725.4234               753.4778
 Red. masses --      1.6423                 1.6370                 3.4511
 Frc consts  --      0.5068                 0.5076                 1.1544
 IR Inten    --     81.9953                77.1014                64.2863

                     37                     38                     39
                      A                      A                      A
 Frequencies --    791.3756               797.0347               825.0373
 Red. masses --      2.3770                 3.2529                 2.9100
 Frc consts  --      0.8771                 1.2175                 1.1671
 IR Inten    --     25.6135                40.5457                34.2212

                     40                     41                     42
                      A                      A                      A
 Frequencies --    876.3694               879.4693               898.6798
 Red. masses --      1.2458                 1.2495                 5.5900
 Frc consts  --      0.5638                 0.5694                 2.6599
 IR Inten    --      0.9708                 0.8336                36.1875

                     43                     44                     45
                      A                      A                      A
 Frequencies --    957.4127               964.9868               980.7229
 Red. masses --      1.3634                 1.4784                 1.1572
 Frc consts  --      0.7363                 0.8111                 0.6558
 IR Inten    --     39.6138                 1.6297                82.8423

                     46                     47                     48
                      A                      A                      A
 Frequencies --   1013.2350              1016.2088              1025.3502
 Red. masses --      1.3860                 1.4039                 3.1618
 Frc consts  --      0.8384                 0.8542                 1.9585
 IR Inten    --      1.2468                19.8289                17.1058

                     49                     50                     51
                      A                      A                      A
 Frequencies --   1025.8639              1028.6198              1030.7882
 Red. masses --      4.0585                 2.0308                 1.3437
 Frc consts  --      2.5165                 1.2660                 0.8412
 IR Inten    --     20.7844                36.0767                11.2844

                     52                     53                     54
                      A                      A                      A
 Frequencies --   1031.3382              1035.6577              1047.4017
 Red. masses --      1.3089                 1.4528                 1.6194
 Frc consts  --      0.8203                 0.9181                 1.0467
 IR Inten    --      3.9744                81.1269                73.6049

                     55                     56                     57
                      A                      A                      A
 Frequencies --   1059.3977              1062.9541              1091.9561
 Red. masses --      2.2376                 2.4406                 3.3099
 Frc consts  --      1.4796                 1.6247                 2.3253
 IR Inten    --     22.3596                 3.0470                 9.2762

                     58                     59                     60
                      A                      A                      A
 Frequencies --   1110.6623              1114.7878              1123.6477
 Red. masses --      1.7025                 2.1715                 1.6552
 Frc consts  --      1.2374                 1.5900                 1.2313
 IR Inten    --     34.4394                 5.9744                12.9158

                     61                     62                     63
                      A                      A                      A
 Frequencies --   1169.6580              1184.0958              1185.1167
 Red. masses --      3.5063                 1.1400                 1.1280
 Frc consts  --      2.8263                 0.9418                 0.9334
 IR Inten    --      7.8984                 0.2337                 0.0251

                     64                     65                     66
                      A                      A                      A
 Frequencies --   1196.6209              1205.5657              1220.2995
 Red. masses --      1.3978                 1.1295                 1.1392
 Frc consts  --      1.1793                 0.9672                 0.9995
 IR Inten    --     29.4709                 7.6871                 3.6519

                     67                     68                     69
                      A                      A                      A
 Frequencies --   1272.2340              1318.4401              1324.4083
 Red. masses --      4.5006                 4.2723                 4.1303
 Frc consts  --      4.2919                 4.3756                 4.2685
 IR Inten    --     21.2141                 5.2401                44.1025

                     70                     71                     72
                      A                      A                      A
 Frequencies --   1350.0995              1353.5370              1360.4199
 Red. masses --      2.0332                 1.9024                 1.8913
 Frc consts  --      2.1836                 2.0535                 2.0623
 IR Inten    --     15.1233                99.1321                24.6496

                     73                     74                     75
                      A                      A                      A
 Frequencies --   1368.9599              1391.4259              1417.2665
 Red. masses --      1.3710                 3.3274                 1.3665
 Frc consts  --      1.5138                 3.7956                 1.6172
 IR Inten    --      9.7019              1056.3171               179.6979

                     76                     77                     78
                      A                      A                      A
 Frequencies --   1457.5640              1474.9813              1482.2963
 Red. masses --      1.1990                 1.0877                 1.1318
 Frc consts  --      1.5008                 1.3942                 1.4652
 IR Inten    --     13.6338                23.6789                29.5689

                     79                     80                     81
                      A                      A                      A
 Frequencies --   1490.3345              1491.3247              1494.4812
 Red. masses --      2.2162                 1.1603                 1.7999
 Frc consts  --      2.9002                 1.5204                 2.3685
 IR Inten    --     11.9024                16.9226                69.9312

                     82                     83                     84
                      A                      A                      A
 Frequencies --   1506.0050              1541.2938              1543.4375
 Red. masses --      1.0329                 2.3476                 2.2472
 Frc consts  --      1.3803                 3.2859                 3.1541
 IR Inten    --     10.9771                 4.6521                19.8180

                     85                     86                     87
                      A                      A                      A
 Frequencies --   1606.6530              1641.5533              1651.4329
 Red. masses --      4.6912                 1.2896                 5.7118
 Frc consts  --      7.1348                 2.0474                 9.1779
 IR Inten    --    395.4085                22.1048                 2.1949

                     88                     89                     90
                      A                      A                      A
 Frequencies --   1655.5228              1674.3057              1674.7423
 Red. masses --      5.3683                 5.9203                 5.8862
 Frc consts  --      8.6687                 9.7783                 9.7271
 IR Inten    --     19.4709                 1.1786                 7.3034

                     91                     92                     93
                      A                      A                      A
 Frequencies --   3058.4141              3067.7780              3128.8594
 Red. masses --      1.0343                 1.0395                 1.1027
 Frc consts  --      5.7001                 5.7641                 6.3605
 IR Inten    --     53.2250                10.3041                16.4789

                     94                     95                     96
                      A                      A                      A
 Frequencies --   3142.7957              3155.6803              3172.6758
 Red. masses --      1.0965                 1.1050                 1.1043
 Frc consts  --      6.3809                 6.4836                 6.5491
 IR Inten    --     15.5975                20.7375                19.6097

                     97                     98                     99
                      A                      A                      A
 Frequencies --   3194.0960              3197.2638              3199.7309
 Red. masses --      1.0858                 1.0859                 1.0881
 Frc consts  --      6.5266                 6.5403                 6.5639
 IR Inten    --      1.6758                 0.9151                 0.7284

                    100                    101                    102
                      A                      A                      A
 Frequencies --   3205.0550              3207.3284              3214.4444
 Red. masses --      1.0889                 1.0917                 1.0952
 Frc consts  --      6.5906                 6.6167                 6.6675
 IR Inten    --      5.0985                12.0097                35.2722

                    103                    104                    105
                      A                      A                      A
 Frequencies --   3215.2326              3222.6833              3222.7361
 Red. masses --      1.0922                 1.0988                 1.0940
 Frc consts  --      6.6524                 6.7237                 6.6947
 IR Inten    --     27.5022                25.9285                25.8638

                    106                    107                    108
                      A                      A                      A
 Frequencies --   3227.4388              3494.4080              3615.4771
 Red. masses --      1.0975                 1.0563                 1.0907
 Frc consts  --      6.7358                 7.5991                 8.4000
 IR Inten    --      7.7655                39.0345                70.1009

 - Thermochemistry -
 -------------------
 Temperature   298.150 Kelvin.  Pressure   1.00000 Atm.
 Atom     1 has atomic number  6 and mass  12.00000

 Molecular mass:   287.10769 amu.
 Principal axes and moments of inertia in atomic units:
                           1         2         3
     Eigenvalues --  3599.282148432.740179721.02939
           X            0.99990   0.01418  -0.00113
           Y           -0.01410   0.99834   0.05587
           Z            0.00192  -0.05585   0.99844
 This molecule is an asymmetric top.
 Rotational symmetry number  1.
 Warning -- assumption of classical behavior for rotation
           may cause significant error
 Rotational temperatures (Kelvin)      0.02406     0.01027     0.00891
 Rotational constants (GHZ):           0.50142     0.21402     0.18565
    1 imaginary frequencies ignored.
 Zero-point vibrational energy     819147.8 (Joules/Mol)
                                  195.78102 (Kcal/Mol)
 Warning -- explicit consideration of  28 degrees of freedom as
           vibrations may cause significant error
 Vibrational temperatures:     40.20    61.08    67.22    90.46   109.86
          (Kelvin)            124.03   157.88   197.24   216.53   273.33
                              286.52   295.84   332.47   364.09   369.38
                              393.19   432.91   459.43   488.15   548.25
                              597.16   603.80   615.16   650.90   800.85
                              807.86   811.65   881.05   914.32   920.23
                              931.29   995.86  1041.27  1043.72  1084.09
                             1138.61  1146.76  1187.04  1260.90  1265.36
                             1293.00  1377.50  1388.40  1411.04  1457.82
                             1462.10  1475.25  1475.99  1479.95  1483.07
                             1483.87  1490.08  1506.98  1524.24  1529.35
                             1571.08  1598.00  1603.93  1616.68  1682.88
                             1703.65  1705.12  1721.67  1734.54  1755.74
                             1830.46  1896.94  1905.53  1942.49  1947.44
                             1957.34  1969.63  2001.95  2039.13  2097.11
                             2122.17  2132.69  2144.26  2145.68  2150.23
                             2166.81  2217.58  2220.66  2311.62  2361.83
                             2376.04  2381.93  2408.95  2409.58  4400.38
                             4413.85  4501.73  4521.78  4540.32  4564.77
                             4595.59  4600.15  4603.70  4611.36  4614.63
                             4624.87  4626.00  4636.72  4636.80  4643.56
                             5027.67  5201.87

 Zero-point correction=                           0.311997 (Hartree/Particle)
 Thermal correction to Energy=                    0.330806
 Thermal correction to Enthalpy=                  0.331750
 Thermal correction to Gibbs Free Energy=         0.263828
 Sum of electronic and zero-point Energies=          -1248.510067
 Sum of electronic and thermal Energies=             -1248.491258
 Sum of electronic and thermal Enthalpies=           -1248.490314
 Sum of electronic and thermal Free Energies=        -1248.558237

                     E (Thermal)             CV                S
                      KCal/Mol        Cal/Mol-Kelvin    Cal/Mol-Kelvin
 Total                  207.584             71.411            142.955
 Electronic               0.000              0.000              0.000
 Translational            0.889              2.981             42.862
 Rotational               0.889              2.981             34.044
 Vibrational            205.806             65.449             66.049
 Vibration     1          0.593              1.984              5.971
 Vibration     2          0.595              1.980              5.141
 Vibration     3          0.595              1.979              4.952
 Vibration     4          0.597              1.972              4.365
 Vibration     5          0.599              1.965              3.982
 Vibration     6          0.601              1.959              3.744
 Vibration     7          0.606              1.941              3.274
 Vibration     8          0.614              1.916              2.844
 Vibration     9          0.618              1.902              2.666
 Vibration    10          0.633              1.854              2.228
 Vibration    11          0.637              1.841              2.141
 Vibration    12          0.640              1.832              2.082
 Vibration    13          0.653              1.793              1.871
 Vibration    14          0.664              1.758              1.709
 Vibration    15          0.666              1.751              1.684
 Vibration    16          0.676              1.723              1.575
 Vibration    17          0.693              1.672              1.412
 Vibration    18          0.705              1.637              1.314
 Vibration    19          0.719              1.597              1.216
 Vibration    20          0.751              1.511              1.035
 Vibration    21          0.778              1.438              0.909
 Vibration    22          0.782              1.428              0.893
 Vibration    23          0.789              1.410              0.867
 Vibration    24          0.811              1.356              0.789
 Vibration    25          0.912              1.125              0.531
 Vibration    26          0.917              1.115              0.521
 Vibration    27          0.920              1.109              0.516
 Vibration    28          0.972              1.006              0.429

 Optimization completed.
    -- Stationary point found.
 Normal termination of Gaussian 16 at Mon Feb 15 08:05:56 2021.
