 Gaussian 16, Revision A.03,
 Gaussian 16:  ES64L-G16RevA.03 25-Dec-2016

 ----------------------------------------------------------------------
 # wB97XD def2tzvp, opt=(ts, noeigen, calcfc, maxcycles=70, maxstep=8),
  freq=noraman, scrf=(iefpcm, solvent=water)
 ----------------------------------------------------------------------

 ------------------------
 1_iteration/TS-406-1.out
 ------------------------
 Symbolic Z-matrix:
 Charge =  0 Multiplicity = 1

 SCF Done:  E(RwB97XD) =  -923.206163436     A.U. after   14 cycles
 Optimization completed.
    -- Stationary point found.
 Normal termination of Gaussian 16 at Thu Apr 15 00:10:02 2021.

 ---------------------------------------------------------------------
 #N Geom=AllCheck Guess=TCheck SCRF=Check GenChk RwB97XD/def2TZVP Freq
 ---------------------------------------------------------------------

 Structure from the checkpoint file:  "/beegfs/scratch/user/q/tla25/Gau-407951.chk"
 ------------------------
 1_iteration/TS-406-1.out
 ------------------------
 Charge =  0 Multiplicity = 1

                         Standard orientation:
 ---------------------------------------------------------------------
 Center     Atomic      Atomic             Coordinates (Angstroms)
 Number     Number       Type             X           Y           Z
 ---------------------------------------------------------------------
      1          6           0        0.373111   -0.021931    0.046790
      2          6           0        0.167461    1.268849    0.673850
      3          8           0       -0.666189    1.442939    1.596880
      4          6           0       -0.708999   -0.950191    0.106740
      5          6           0        0.150221   -1.892481    2.606310
      6          1           0        1.064551   -1.456741    2.204830
      7          1           0        0.130731   -1.734911    3.685440
      8          1           0        0.146021   -2.961971    2.403670
      9          7           0       -0.986039   -1.257171    1.954890
     10          1           0       -1.857609   -1.712700    2.193150
     11          1           0       -1.040819   -0.255821    2.178280
     12          6           0       -0.481339   -2.366991   -0.380980
     13          1           0       -0.519689   -2.392701   -1.470020
     14          1           0        0.484361   -2.755351   -0.064120
     15          1           0       -1.264489   -3.028611   -0.013570
     16          6           0       -2.098079   -0.464630   -0.276040
     17          6           0       -3.252129   -1.165060    0.074860
     18          6           0       -4.504639   -0.751590   -0.351600
     19          6           0       -4.633169    0.369970   -1.157060
     20          6           0       -3.493719    1.061760   -1.537810
     21          6           0       -2.244009    0.643710   -1.106490
     22          1           0       -3.192269   -2.060890    0.679980
     23          1           0       -5.381689   -1.313670   -0.056240
     24          1           0       -5.610159    0.694270   -1.492290
     25          1           0       -3.573859    1.930940   -2.178840
     26          1           0       -1.360589    1.180839   -1.423910
     27          6           0        1.752141   -0.427001   -0.311940
     28          6           0        2.829401   -0.144391    0.538670
     29          6           0        4.132071   -0.483351    0.209670
     30          6           0        4.406551   -1.137021   -0.984100
     31          6           0        3.358321   -1.425411   -1.846470
     32          6           0        2.060231   -1.063121   -1.520280
     33          1           0        2.636111    0.356989    1.480300
     34          1           0        4.936591   -0.245361    0.895420
     35          1           0        5.422171   -1.410211   -1.241320
     36          1           0        3.553521   -1.919491   -2.790930
     37          1           0        1.267001   -1.256731   -2.231040
     38          7           0        0.918401    2.340469    0.274010
     39          6           0        1.554901    2.445989   -1.018480
     40          6           0        0.951201    3.538219    1.080650
     41          1           0        1.331281    3.426439   -1.447070
     42          1           0        2.642331    2.337529   -0.952550
     43          1           0        1.173191    1.681719   -1.690140
     44          1           0        0.695391    3.297199    2.108530
     45          1           0        1.956251    3.965419    1.050720
     46          1           0        0.247481    4.295229    0.716700
 ---------------------------------------------------------------------

 SCF Done:  E(RwB97XD) =  -923.206163436     A.U. after    1 cycles

 The electronic state is 1-A.
 Alpha  occ. eigenvalues --  -19.19496 -14.46596 -14.44569 -10.36472 -10.34890
 Alpha  occ. eigenvalues --  -10.30927 -10.30130 -10.30124 -10.29924 -10.29153
 Alpha  occ. eigenvalues --  -10.29150 -10.29012 -10.28903 -10.28844 -10.28658
 Alpha  occ. eigenvalues --  -10.28218 -10.28213 -10.27906 -10.27755 -10.27648
 Alpha  occ. eigenvalues --  -10.27616 -10.24462  -1.11901  -1.02912  -1.01828
 Alpha  occ. eigenvalues --   -0.96934  -0.95721  -0.91081  -0.86337  -0.85089
 Alpha  occ. eigenvalues --   -0.84150  -0.82865  -0.81444  -0.79966  -0.78242
 Alpha  occ. eigenvalues --   -0.76564  -0.71780  -0.70318  -0.69341  -0.68265
 Alpha  occ. eigenvalues --   -0.65610  -0.63473  -0.61609  -0.60565  -0.60131
 Alpha  occ. eigenvalues --   -0.57215  -0.56786  -0.55680  -0.55583  -0.54831
 Alpha  occ. eigenvalues --   -0.54155  -0.53385  -0.53067  -0.52537  -0.50989
 Alpha  occ. eigenvalues --   -0.50754  -0.50020  -0.49636  -0.48640  -0.48096
 Alpha  occ. eigenvalues --   -0.47829  -0.47666  -0.46888  -0.46429  -0.45915
 Alpha  occ. eigenvalues --   -0.45651  -0.44625  -0.44131  -0.43441  -0.42423
 Alpha  occ. eigenvalues --   -0.41834  -0.41312  -0.40119  -0.34799  -0.33713
 Alpha  occ. eigenvalues --   -0.33250  -0.32912  -0.32031  -0.30984  -0.24557
 Alpha virt. eigenvalues --    0.03548   0.05199   0.05845   0.06062   0.08578
 Alpha virt. eigenvalues --    0.10374   0.11904   0.12984   0.13539   0.14278
 Alpha virt. eigenvalues --    0.14906   0.15404   0.16124   0.16457   0.16929

 Mulliken charges:
               1
     1  C   -0.343473
     2  C    0.270586
     3  O   -0.603071
     4  C    0.293204
     5  C   -0.309897
     6  H    0.143901
     7  H    0.150284
     8  H    0.154922
     9  N   -0.283334
    10  H    0.254245
    11  H    0.270644
    12  C   -0.412905
    13  H    0.149045
    14  H    0.156251
    15  H    0.150312
    16  C    0.161354
    17  C   -0.289091
    18  C   -0.176077
    19  C   -0.137537
    20  C   -0.174460
    21  C   -0.172730
    22  H    0.152827
    23  H    0.140859
    24  H    0.142434
    25  H    0.137283
    26  H    0.165623
    27  C    0.145624
    28  C   -0.254154
    29  C   -0.185206
    30  C   -0.142166
    31  C   -0.172493
    32  C   -0.238606
    33  H    0.151794
    34  H    0.132775
    35  H    0.136569
    36  H    0.132803
    37  H    0.142536
    38  N   -0.069311
    39  C   -0.299470
    40  C   -0.296377
    41  H    0.142686
    42  H    0.131241
    43  H    0.152349
    44  H    0.137238
    45  H    0.132833
    46  H    0.128136
 Sum of Mulliken charges =  -0.00000

 Dipole moment (field-independent basis, Debye):
    X=             -0.8498    Y=             -3.2957    Z=              0.7948  Tot=              3.4951
 Quadrupole moment (field-independent basis, Debye-Ang):
   XX=           -124.6381   YY=           -122.5853   ZZ=           -125.4983
   XY=              9.9321   XZ=              0.9631   YZ=            -11.6739

  Exact polarizability: 410.074   3.073 320.940 -14.335 -10.186 304.539
 Approx polarizability: 308.188   3.538 257.824  -9.008  -7.337 258.966

 ******    1 imaginary frequencies (negative Signs) ******

                      1                      2                      3
                      A                      A                      A
 Frequencies --   -410.5730                35.3176                45.3753
 Red. masses --      5.2980                 4.4654                 3.8866
 Frc consts  --      0.5262                 0.0033                 0.0047
 IR Inten    --    750.1129                 0.9259                 0.0888

                      4                      5                      6
                      A                      A                      A
 Frequencies --     57.7884                72.4716                76.3761
 Red. masses --      4.2155                 3.1331                 3.1770
 Frc consts  --      0.0083                 0.0097                 0.0109
 IR Inten    --      5.8301                 1.3242                 1.3956

                      7                      8                      9
                      A                      A                      A
 Frequencies --     83.6752               100.7906               107.5801
 Red. masses --      3.9549                 2.2575                 1.4025
 Frc consts  --      0.0163                 0.0135                 0.0096
 IR Inten    --      1.8171                 0.6266                 0.6569

                     10                     11                     12
                      A                      A                      A
 Frequencies --    126.2787               154.9657               173.4671
 Red. masses --      3.1621                 4.6765                 1.8059
 Frc consts  --      0.0297                 0.0662                 0.0320
 IR Inten    --      0.6870                19.5188                17.1550

                     13                     14                     15
                      A                      A                      A
 Frequencies --    187.4975               196.8876               219.9552
 Red. masses --      2.9701                 2.0287                 1.6769
 Frc consts  --      0.0615                 0.0463                 0.0478
 IR Inten    --      2.9933                 2.3611                 6.0865

                     16                     17                     18
                      A                      A                      A
 Frequencies --    239.2191               244.1000               266.7909
 Red. masses --      2.2752                 2.2897                 3.9055
 Frc consts  --      0.0767                 0.0804                 0.1638
 IR Inten    --     11.8833                 4.0192                 6.0738

                     19                     20                     21
                      A                      A                      A
 Frequencies --    283.0204               292.8656               305.9715
 Red. masses --      2.5966                 2.9309                 2.2954
 Frc consts  --      0.1225                 0.1481                 0.1266
 IR Inten    --     12.0015                 1.0689                 3.2337

                     22                     23                     24
                      A                      A                      A
 Frequencies --    327.3348               344.2020               349.0358
 Red. masses --      3.7085                 2.5500                 1.3385
 Frc consts  --      0.2341                 0.1780                 0.0961
 IR Inten    --     13.9993                21.5311                 1.5137

                     25                     26                     27
                      A                      A                      A
 Frequencies --    380.2123               414.9687               425.8803
 Red. masses --      3.0463                 3.9155                 2.9423
 Frc consts  --      0.2595                 0.3973                 0.3144
 IR Inten    --     45.5112                17.1375                 0.7177

                     28                     29                     30
                      A                      A                      A
 Frequencies --    432.1814               450.4736               488.2466
 Red. masses --      3.0203                 4.0812                 3.8707
 Frc consts  --      0.3324                 0.4880                 0.5436
 IR Inten    --      3.4051                13.9236                 8.7125

                     31                     32                     33
                      A                      A                      A
 Frequencies --    539.9082               562.8976               582.8546
 Red. masses --      3.3680                 3.3317                 4.5695
 Frc consts  --      0.5784                 0.6220                 0.9146
 IR Inten    --     32.5403                30.9583                59.3097

                     34                     35                     36
                      A                      A                      A
 Frequencies --    626.9062               639.6853               642.0702
 Red. masses --      3.9254                 6.2182                 5.3462
 Frc consts  --      0.9090                 1.4992                 1.2985
 IR Inten    --     10.1053                 0.1695                 0.8547

                     37                     38                     39
                      A                      A                      A
 Frequencies --    660.4384               713.6918               727.0918
 Red. masses --      5.3568                 5.1244                 1.6301
 Frc consts  --      1.3766                 1.5379                 0.5077
 IR Inten    --     60.6397                 8.0815                81.1712

                     40                     41                     42
                      A                      A                      A
 Frequencies --    730.2909               738.6455               783.8880
 Red. masses --      1.5456                 1.8229                 2.2918
 Frc consts  --      0.4857                 0.5860                 0.8297
 IR Inten    --    111.3325                89.6496                23.2139

                     43                     44                     45
                      A                      A                      A
 Frequencies --    794.6184               808.8160               837.1454
 Red. masses --      2.0763                 5.7804                 2.5963
 Frc consts  --      0.7724                 2.2280                 1.0720
 IR Inten    --     46.1468                68.8058                33.6714

                     46                     47                     48
                      A                      A                      A
 Frequencies --    876.2460               877.4771               912.9741
 Red. masses --      1.2493                 1.2472                 4.1240
 Frc consts  --      0.5652                 0.5658                 2.0253
 IR Inten    --      2.7689                 0.6955                15.9688

                     49                     50                     51
                      A                      A                      A
 Frequencies --    947.3081               959.5746              1006.3640
 Red. masses --      1.4950                 1.4127                 1.2737
 Frc consts  --      0.7905                 0.7664                 0.7601
 IR Inten    --      2.1315                 9.7669                17.3693

                     52                     53                     54
                      A                      A                      A
 Frequencies --   1010.0932              1016.2684              1018.8528
 Red. masses --      1.3776                 2.5785                 1.3643
 Frc consts  --      0.8282                 1.5691                 0.8344
 IR Inten    --      2.4682                24.2832                 1.4874

                     55                     56                     57
                      A                      A                      A
 Frequencies --   1019.1551              1025.2391              1026.4048
 Red. masses --      1.3512                 4.1745                 4.1900
 Frc consts  --      0.8269                 2.5853                 2.6008
 IR Inten    --     12.4680                 2.9087                 4.5152

                     58                     59                     60
                      A                      A                      A
 Frequencies --   1029.7099              1044.5538              1060.0490
 Red. masses --      1.3420                 2.1183                 2.1872
 Frc consts  --      0.8384                 1.3617                 1.4481
 IR Inten    --      2.1115                67.3830                36.5654

                     61                     62                     63
                      A                      A                      A
 Frequencies --   1065.7026              1068.4282              1087.5524
 Red. masses --      1.7794                 1.9173                 1.4116
 Frc consts  --      1.1907                 1.2896                 0.9837
 IR Inten    --     37.8334                42.1266                27.0701

                     64                     65                     66
                      A                      A                      A
 Frequencies --   1089.4309              1095.1518              1112.5010
 Red. masses --      2.5153                 1.4810                 1.5752
 Frc consts  --      1.7589                 1.0465                 1.1486
 IR Inten    --      4.1704               139.3560                25.3504

                     67                     68                     69
                      A                      A                      A
 Frequencies --   1120.2618              1130.1019              1134.9818
 Red. masses --      1.6299                 1.9223                 1.2279
 Frc consts  --      1.2051                 1.4464                 0.9320
 IR Inten    --      0.1240                42.1189                 0.2461

                     70                     71                     72
                      A                      A                      A
 Frequencies --   1169.3064              1179.0597              1184.0081
 Red. masses --      1.3977                 1.1199                 1.1240
 Frc consts  --      1.1259                 0.9173                 0.9284
 IR Inten    --      3.8191                 1.7288                 0.0451

                     73                     74                     75
                      A                      A                      A
 Frequencies --   1211.0102              1212.9974              1214.1236
 Red. masses --      1.1609                 2.1848                 1.1319
 Frc consts  --      1.0031                 1.8940                 0.9831
 IR Inten    --      9.7310               153.9872                10.6976

                     76                     77                     78
                      A                      A                      A
 Frequencies --   1239.3884              1261.8400              1288.5692
 Red. masses --      1.5527                 3.8234                 4.0048
 Frc consts  --      1.4052                 3.5868                 3.9178
 IR Inten    --     87.6878                49.3516               145.4436

                     79                     80                     81
                      A                      A                      A
 Frequencies --   1310.8539              1319.8996              1332.6214
 Red. masses --      5.1159                 4.6519                 5.3044
 Frc consts  --      5.1794                 4.7749                 5.5501
 IR Inten    --      7.3465                28.9629               114.5277

                     82                     83                     84
                      A                      A                      A
 Frequencies --   1355.0289              1361.0528              1364.7629
 Red. masses --      1.4976                 1.5208                 1.3548
 Frc consts  --      1.6201                 1.6599                 1.4867
 IR Inten    --     15.3993                 9.8882                 6.5627

                     85                     86                     87
                      A                      A                      A
 Frequencies --   1388.0381              1420.5467              1423.3894
 Red. masses --      3.2300                 1.3461                 1.6628
 Frc consts  --      3.6665                 1.6004                 1.9849
 IR Inten    --    638.6045               155.6157                66.9583

                     88                     89                     90
                      A                      A                      A
 Frequencies --   1440.2134              1452.8708              1472.1621
 Red. masses --      1.3594                 1.2145                 1.1896
 Frc consts  --      1.6613                 1.5104                 1.5190
 IR Inten    --     94.9529                 3.0149                62.3748

                     91                     92                     93
                      A                      A                      A
 Frequencies --   1484.1154              1487.7138              1488.6452
 Red. masses --      1.2980                 1.7433                 1.7863
 Frc consts  --      1.6844                 2.2733                 2.3323
 IR Inten    --     10.5961                21.5714                22.8284

                     94                     95                     96
                      A                      A                      A
 Frequencies --   1492.4194              1494.2570              1498.2107
 Red. masses --      1.0829                 1.0508                 1.1518
 Frc consts  --      1.4210                 1.3824                 1.5233
 IR Inten    --     14.5434                32.9739                29.7221

                     97                     98                     99
                      A                      A                      A
 Frequencies --   1503.2165              1504.0656              1507.8376
 Red. masses --      1.0868                 1.0643                 1.0484
 Frc consts  --      1.4470                 1.4186                 1.4043
 IR Inten    --      0.0992                13.9742                 7.1585

                    100                    101                    102
                      A                      A                      A
 Frequencies --   1531.2987              1538.6635              1542.4020
 Red. masses --      1.5977                 2.2874                 2.2166
 Frc consts  --      2.2073                 3.1907                 3.1070
 IR Inten    --    284.1427               156.4329                 7.9476

                    103                    104                    105
                      A                      A                      A
 Frequencies --   1575.8693              1635.9902              1650.7371
 Red. masses --      3.8197                 5.4987                 5.4789
 Frc consts  --      5.5888                 8.6710                 8.7963
 IR Inten    --    871.5454                 8.0326                 8.1867

                    106                    107                    108
                      A                      A                      A
 Frequencies --   1660.7851              1666.3645              1674.2538
 Red. masses --      1.1374                 5.8592                 5.9018
 Frc consts  --      1.8484                 9.5859                 9.7471
 IR Inten    --     11.3031                60.7918                 3.8108

                    109                    110                    111
                      A                      A                      A
 Frequencies --   3020.5196              3028.2889              3065.6693
 Red. masses --      1.0441                 1.0415                 1.0346
 Frc consts  --      5.6126                 5.6272                 5.7287
 IR Inten    --    102.2810               143.8649                68.2845

                    112                    113                    114
                      A                      A                      A
 Frequencies --   3074.9996              3079.8895              3087.7523
 Red. masses --      1.0363                 1.0987                 1.0989
 Frc consts  --      5.7732                 6.1407                 6.1730
 IR Inten    --     18.6501                99.2444                18.7287

                    115                    116                    117
                      A                      A                      A
 Frequencies --   3140.6200              3145.8929              3162.9930
 Red. masses --      1.1027                 1.1011                 1.1043
 Frc consts  --      6.4080                 6.4203                 6.5093
 IR Inten    --     18.9912                26.5088                27.9504

                    118                    119                    120
                      A                      A                      A
 Frequencies --   3165.5201              3168.1632              3169.2287
 Red. masses --      1.1039                 1.0972                 1.0981
 Frc consts  --      6.5172                 6.4883                 6.4981
 IR Inten    --     20.9302                13.9445                12.8228

                    121                    122                    123
                      A                      A                      A
 Frequencies --   3180.9380              3187.9716              3191.6092
 Red. masses --      1.0861                 1.0871                 1.0858
 Frc consts  --      6.4751                 6.5095                 6.5168
 IR Inten    --     15.1477                 1.3322                 5.6547

                    124                    125                    126
                      A                      A                      A
 Frequencies --   3197.9032              3198.2402              3207.2970
 Red. masses --      1.0924                 1.0883                 1.0930
 Frc consts  --      6.5821                 6.5588                 6.6247
 IR Inten    --     30.4041                 2.7348                48.5135

                    127                    128                    129
                      A                      A                      A
 Frequencies --   3207.6194              3216.7515              3218.3397
 Red. masses --      1.0926                 1.0982                 1.0957
 Frc consts  --      6.6234                 6.6954                 6.6864
 IR Inten    --     34.1802                21.5867                28.1764

                    130                    131                    132
                      A                      A                      A
 Frequencies --   3225.9916              3290.4693              3585.9976
 Red. masses --      1.0952                 1.0721                 1.0800
 Frc consts  --      6.7151                 6.8392                 8.1829
 IR Inten    --     12.3609               319.3670                55.9242

 - Thermochemistry -
 -------------------
 Temperature   298.150 Kelvin.  Pressure   1.00000 Atm.
 Atom     1 has atomic number  6 and mass  12.00000

 Molecular mass:   296.18886 amu.
 Principal axes and moments of inertia in atomic units:
                           1         2         3
     Eigenvalues --  4129.043918373.612049413.67257
           X            0.99993   0.01141  -0.00037
           Y           -0.01142   0.99921  -0.03804
           Z           -0.00007   0.03804   0.99928
 This molecule is an asymmetric top.
 Rotational symmetry number  1.
 Warning -- assumption of classical behavior for rotation
           may cause significant error
 Rotational temperatures (Kelvin)      0.02098     0.01034     0.00920
 Rotational constants (GHZ):           0.43708     0.21553     0.19171
    1 imaginary frequencies ignored.
 Zero-point vibrational energy    1039336.6 (Joules/Mol)
                                  248.40741 (Kcal/Mol)
 Warning -- explicit consideration of  32 degrees of freedom as
           vibrations may cause significant error
 Vibrational temperatures:     50.81    65.28    83.14   104.27   109.89
          (Kelvin)            120.39   145.02   154.78   181.69   222.96
                              249.58   269.77   283.28   316.47   344.18
                              351.21   383.85   407.20   421.37   440.22
                              470.96   495.23   502.18   547.04   597.05
                              612.75   621.81   648.13   702.48   776.81
                              809.88   838.60   901.98   920.36   923.80
                              950.22  1026.84  1046.12  1050.73  1062.75
                             1127.84  1143.28  1163.71  1204.47  1260.72
                             1262.49  1313.57  1362.97  1380.61  1447.93
                             1453.30  1462.18  1465.90  1466.34  1475.09
                             1476.77  1481.52  1502.88  1525.17  1533.31
                             1537.23  1564.75  1567.45  1575.68  1600.64
                             1611.81  1625.96  1632.99  1682.37  1696.40
                             1703.52  1742.37  1745.23  1746.85  1783.20
                             1815.51  1853.96  1886.03  1899.04  1917.35
                             1949.58  1958.25  1963.59  1997.08  2043.85
                             2047.94  2072.15  2090.36  2118.11  2135.31
                             2140.49  2141.83  2147.26  2149.90  2155.59
                             2162.79  2164.01  2169.44  2203.20  2213.79
                             2219.17  2267.32  2353.83  2375.04  2389.50
                             2397.53  2408.88  4345.85  4357.03  4410.81
                             4424.24  4431.27  4442.59  4518.65  4526.24
                             4550.84  4554.48  4558.28  4559.81  4576.66
                             4586.78  4592.01  4601.07  4601.55  4614.59
                             4615.05  4628.19  4630.47  4641.48  4734.25
                             5159.45

 Zero-point correction=                           0.395862 (Hartree/Particle)
 Thermal correction to Energy=                    0.417104
 Thermal correction to Enthalpy=                  0.418049
 Thermal correction to Gibbs Free Energy=         0.346145
 Sum of electronic and zero-point Energies=           -922.810301
 Sum of electronic and thermal Energies=              -922.789059
 Sum of electronic and thermal Enthalpies=            -922.788115
 Sum of electronic and thermal Free Energies=         -922.860018

                     E (Thermal)             CV                S
                      KCal/Mol        Cal/Mol-Kelvin    Cal/Mol-Kelvin
 Total                  261.737             81.901            151.333
 Electronic               0.000              0.000              0.000
 Translational            0.889              2.981             42.955
 Rotational               0.889              2.981             34.142
 Vibrational            259.959             75.940             74.236
 Vibration     1          0.594              1.982              5.506
 Vibration     2          0.595              1.979              5.009
 Vibration     3          0.596              1.974              4.531
 Vibration     4          0.599              1.967              4.085
 Vibration     5          0.599              1.965              3.982
 Vibration     6          0.601              1.960              3.803
 Vibration     7          0.604              1.948              3.439
 Vibration     8          0.606              1.943              3.312
 Vibration     9          0.611              1.927              3.002
 Vibration    10          0.620              1.897              2.610
 Vibration    11          0.627              1.875              2.398
 Vibration    12          0.632              1.857              2.252
 Vibration    13          0.636              1.844              2.162
 Vibration    14          0.647              1.811              1.959
 Vibration    15          0.657              1.780              1.809
 Vibration    16          0.659              1.773              1.773
 Vibration    17          0.672              1.734              1.617
 Vibration    18          0.682              1.705              1.515
 Vibration    19          0.688              1.687              1.457
 Vibration    20          0.696              1.662              1.384
 Vibration    21          0.711              1.621              1.273
 Vibration    22          0.723              1.587              1.193
 Vibration    23          0.726              1.577              1.171
 Vibration    24          0.750              1.512              1.038
 Vibration    25          0.778              1.438              0.909
 Vibration    26          0.788              1.414              0.872
 Vibration    27          0.793              1.400              0.852
 Vibration    28          0.809              1.360              0.794
 Vibration    29          0.844              1.276              0.688
 Vibration    30          0.895              1.162              0.565
 Vibration    31          0.919              1.112              0.518
 Vibration    32          0.940              1.068              0.480

 Optimization completed.
    -- Stationary point found.
 Normal termination of Gaussian 16 at Thu Apr 15 01:58:43 2021.
