 Gaussian 16, Revision A.03,
 Gaussian 16:  ES64L-G16RevA.03 25-Dec-2016

 ----------------------------------------------------------------------
 # wB97XD def2tzvp, opt=(ts, noeigen, calcfc, maxcycles=70, maxstep=8),
  freq=noraman, scrf=(iefpcm, solvent=water)
 ----------------------------------------------------------------------

 ------------------------
 1_iteration/TS-404-1.out
 ------------------------
 Symbolic Z-matrix:
 Charge =  0 Multiplicity = 1

 SCF Done:  E(RwB97XD) =  -903.753933514     A.U. after   14 cycles
 Optimization completed.
    -- Stationary point found.
 Normal termination of Gaussian 16 at Thu Apr 15 09:27:27 2021.

 ---------------------------------------------------------------------
 #N Geom=AllCheck Guess=TCheck SCRF=Check GenChk RwB97XD/def2TZVP Freq
 ---------------------------------------------------------------------

 Structure from the checkpoint file:  "/beegfs/scratch/user/q/tla25/Gau-252631.chk"
 ------------------------
 1_iteration/TS-404-1.out
 ------------------------
 Charge =  0 Multiplicity = 1

                         Standard orientation:
 ---------------------------------------------------------------------
 Center     Atomic      Atomic             Coordinates (Angstroms)
 Number     Number       Type             X           Y           Z
 ---------------------------------------------------------------------
      1          6           0       -0.482580    0.432119    0.176670
      2          6           0       -0.022951    1.763219    0.020390
      3          8           0       -0.742461    2.735559   -0.236100
      4          6           0        0.306480   -0.774351    0.341580
      5          6           0       -1.182149   -2.811051   -1.001830
      6          1           0       -2.082699   -2.305221   -0.664290
      7          1           0       -1.361659   -3.248371   -1.983430
      8          1           0       -0.919719   -3.600271   -0.303260
      9          7           0       -0.077729   -1.843471   -1.085880
     10          1           0        0.780181   -2.322621   -1.340940
     11          1           0       -0.270200   -1.161731   -1.812400
     12          6           0       -0.089929   -1.708441    1.472630
     13          1           0        0.127010   -1.214121    2.419420
     14          1           0       -1.155139   -1.920561    1.462690
     15          1           0        0.459361   -2.650131    1.440220
     16          6           0        1.809190   -0.671430    0.164660
     17          6           0        2.353470   -0.298130   -1.064020
     18          6           0        3.721340   -0.219170   -1.247070
     19          6           0        4.582670   -0.502519   -0.194670
     20          6           0        4.056280   -0.870569    1.031550
     21          6           0        2.681080   -0.964350    1.205760
     22          1           0        1.699780   -0.032630   -1.885910
     23          1           0        4.117240    0.073831   -2.211220
     24          1           0        5.654400   -0.437469   -0.333010
     25          1           0        4.714700   -1.093749    1.861600
     26          1           0        2.300000   -1.256050    2.174280
     27          6           0       -1.971800    0.293979    0.144590
     28          6           0       -2.730710    0.115518    1.301920
     29          6           0       -4.108780   -0.047652    1.248270
     30          6           0       -4.767390   -0.020182    0.027970
     31          6           0       -4.035600    0.180528   -1.134760
     32          6           0       -2.659220    0.334778   -1.070910
     33          1           0       -2.230570    0.106118    2.262870
     34          1           0       -4.669260   -0.190932    2.164210
     35          1           0       -5.841780   -0.147693   -0.016970
     36          1           0       -4.537970    0.212668   -2.094000
     37          1           0       -2.097430    0.493799   -1.984890
     38          8           0        1.304649    1.979910    0.262300
     39          6           0        1.796039    3.276850   -0.010960
     40          1           0        1.626969    3.558160   -1.052220
     41          1           0        1.334549    4.027140    0.633080
     42          1           0        2.866179    3.235510    0.185070
 ---------------------------------------------------------------------

 SCF Done:  E(RwB97XD) =  -903.753933514     A.U. after    1 cycles

 The electronic state is 1-A.
 Alpha  occ. eigenvalues --  -19.26094 -19.18768 -14.50426 -10.37591 -10.36479
 Alpha  occ. eigenvalues --  -10.32310 -10.31773 -10.30485 -10.29155 -10.29123
 Alpha  occ. eigenvalues --  -10.29082 -10.29070 -10.29038 -10.28988 -10.28490
 Alpha  occ. eigenvalues --  -10.28467 -10.28376 -10.28044 -10.28041 -10.27892
 Alpha  occ. eigenvalues --  -10.24767  -1.17363  -1.07277  -1.05873  -0.97254
 Alpha  occ. eigenvalues --   -0.96005  -0.91561  -0.86442  -0.85449  -0.84412
 Alpha  occ. eigenvalues --   -0.83185  -0.82159  -0.80211  -0.77099  -0.72547
 Alpha  occ. eigenvalues --   -0.70473  -0.69623  -0.68365  -0.67315  -0.64725
 Alpha  occ. eigenvalues --   -0.63138  -0.61780  -0.59964  -0.58403  -0.56847
 Alpha  occ. eigenvalues --   -0.56722  -0.55498  -0.55087  -0.53927  -0.53537
 Alpha  occ. eigenvalues --   -0.53192  -0.52877  -0.51090  -0.50770  -0.50237
 Alpha  occ. eigenvalues --   -0.49937  -0.49488  -0.48176  -0.47863  -0.46770
 Alpha  occ. eigenvalues --   -0.46299  -0.45678  -0.45267  -0.44193  -0.43592
 Alpha  occ. eigenvalues --   -0.42305  -0.41787  -0.41610  -0.40503  -0.36576
 Alpha  occ. eigenvalues --   -0.33904  -0.33742  -0.33132  -0.32986  -0.31971
 Alpha  occ. eigenvalues --   -0.25382
 Alpha virt. eigenvalues --    0.03675   0.05178   0.05734   0.05906   0.09239
 Alpha virt. eigenvalues --    0.09680   0.12094   0.12973   0.13219   0.13875
 Alpha virt. eigenvalues --    0.14346   0.15018   0.16147   0.16830   0.16986

 Mulliken charges:
               1
     1  C   -0.384913
     2  C    0.387036
     3  O   -0.555558
     4  C    0.368963
     5  C   -0.330406
     6  H    0.177574
     7  H    0.166431
     8  H    0.171625
     9  N   -0.281465
    10  H    0.293398
    11  H    0.285007
    12  C   -0.476002
    13  H    0.161666
    14  H    0.173239
    15  H    0.169283
    16  C    0.234999
    17  C   -0.327839
    18  C   -0.141897
    19  C   -0.144900
    20  C   -0.154273
    21  C   -0.281686
    22  H    0.147535
    23  H    0.141887
    24  H    0.143483
    25  H    0.141239
    26  H    0.151558
    27  C    0.221017
    28  C   -0.254308
    29  C   -0.146254
    30  C   -0.155628
    31  C   -0.130211
    32  C   -0.335155
    33  H    0.153347
    34  H    0.136295
    35  H    0.139821
    36  H    0.136826
    37  H    0.140096
    38  O   -0.307816
    39  C   -0.197879
    40  H    0.117192
    41  H    0.118052
    42  H    0.128623
 Sum of Mulliken charges =  -0.00000

 Dipole moment (field-independent basis, Debye):
    X=              3.1221    Y=            -10.9466    Z=             -2.7958  Tot=             11.7214
 Quadrupole moment (field-independent basis, Debye-Ang):
   XX=           -116.1236   YY=           -128.9535   ZZ=           -110.4752
   XY=             11.5393   XZ=             -0.4217   YZ=              3.8125

  Exact polarizability: 370.610   7.967 273.202   3.245 -12.336 295.070
 Approx polarizability: 280.513   3.952 218.582   3.303 -12.264 257.433

 ******    1 imaginary frequencies (negative Signs) ******

                      1                      2                      3
                      A                      A                      A
 Frequencies --   -309.9632                 9.3912                40.8366
 Red. masses --      5.9078                 4.3911                 3.5202
 Frc consts  --      0.3344                 0.0002                 0.0035
 IR Inten    --    714.2839                 2.0278                 1.2337

                      4                      5                      6
                      A                      A                      A
 Frequencies --     45.7252                55.5475                73.0924
 Red. masses --      3.4351                 4.3022                 4.2754
 Frc consts  --      0.0042                 0.0078                 0.0135
 IR Inten    --      0.5464                 2.1452                 3.6429

                      7                      8                      9
                      A                      A                      A
 Frequencies --     75.9243               101.9037               119.3832
 Red. masses --      3.9282                 3.0992                 2.6979
 Frc consts  --      0.0133                 0.0190                 0.0227
 IR Inten    --      8.2525                 2.5058                 0.7565

                     10                     11                     12
                      A                      A                      A
 Frequencies --    128.1675               139.2726               168.3950
 Red. masses --      2.5470                 1.6804                 2.6635
 Frc consts  --      0.0247                 0.0192                 0.0445
 IR Inten    --      5.2159                 0.5399                 2.4510

                     13                     14                     15
                      A                      A                      A
 Frequencies --    182.6191               226.3884               258.4271
 Red. masses --      3.4739                 1.7604                 2.9796
 Frc consts  --      0.0683                 0.0532                 0.1172
 IR Inten    --     11.8496                 4.8553                 0.9594

                     16                     17                     18
                      A                      A                      A
 Frequencies --    259.1688               281.8884               289.9453
 Red. masses --      3.3014                 2.6210                 5.3528
 Frc consts  --      0.1307                 0.1227                 0.2651
 IR Inten    --      5.9398                 5.8649                10.7987

                     19                     20                     21
                      A                      A                      A
 Frequencies --    313.5039               332.4472               346.0602
 Red. masses --      2.9061                 3.0252                 3.0372
 Frc consts  --      0.1683                 0.1970                 0.2143
 IR Inten    --      4.1327                37.0955                34.1657

                     22                     23                     24
                      A                      A                      A
 Frequencies --    375.7634               391.2589               423.8719
 Red. masses --      1.0955                 4.3881                 2.9139
 Frc consts  --      0.0911                 0.3958                 0.3085
 IR Inten    --      1.0280                14.0353                 0.5910

                     25                     26                     27
                      A                      A                      A
 Frequencies --    428.9130               434.5590               506.2456
 Red. masses --      3.3422                 3.6551                 4.3391
 Frc consts  --      0.3623                 0.4067                 0.6552
 IR Inten    --     20.6168                44.7529                 0.9984

                     28                     29                     30
                      A                      A                      A
 Frequencies --    528.3997               556.8266               572.0330
 Red. masses --      3.3978                 4.0532                 3.5163
 Frc consts  --      0.5590                 0.7404                 0.6779
 IR Inten    --     31.8018                10.4690                66.5304

                     31                     32                     33
                      A                      A                      A
 Frequencies --    627.5559               638.2599               641.6921
 Red. masses --      3.7312                 6.3837                 6.1277
 Frc consts  --      0.8658                 1.5322                 1.4866
 IR Inten    --    102.1921                 0.4350                15.1614

                     34                     35                     36
                      A                      A                      A
 Frequencies --    669.9166               720.4786               726.4536
 Red. masses --      4.5702                 1.8784                 1.5926
 Frc consts  --      1.2085                 0.5745                 0.4952
 IR Inten    --     11.7499                20.4886               155.5049

                     37                     38                     39
                      A                      A                      A
 Frequencies --    735.8217               760.4679               779.5781
 Red. masses --      1.5205                 3.5869                 4.8813
 Frc consts  --      0.4850                 1.2222                 1.7478
 IR Inten    --     54.1103                10.1074                31.1293

                     40                     41                     42
                      A                      A                      A
 Frequencies --    793.8344               811.6788               843.4028
 Red. masses --      2.4661                 3.1595                 2.8196
 Frc consts  --      0.9156                 1.2264                 1.1817
 IR Inten    --     58.3901                39.7616                14.2877

                     43                     44                     45
                      A                      A                      A
 Frequencies --    874.9547               883.7271               924.7202
 Red. masses --      1.2531                 1.2449                 3.2942
 Frc consts  --      0.5652                 0.5728                 1.6596
 IR Inten    --      0.2674                 0.1395                64.7809

                     46                     47                     48
                      A                      A                      A
 Frequencies --    956.7573               962.2346              1011.2292
 Red. masses --      1.4444                 1.5419                 1.3839
 Frc consts  --      0.7790                 0.8411                 0.8338
 IR Inten    --      0.6821                 4.3294                 0.6593

                     49                     50                     51
                      A                      A                      A
 Frequencies --   1016.2709              1021.2080              1025.6315
 Red. masses --      1.3831                 2.0788                 2.8687
 Frc consts  --      0.8416                 1.2773                 1.7779
 IR Inten    --      5.3919                65.5445                 0.2980

                     52                     53                     54
                      A                      A                      A
 Frequencies --   1026.6209              1027.4401              1028.2716
 Red. masses --      3.3337                 1.4322                 1.7344
 Frc consts  --      2.0701                 0.8908                 1.0805
 IR Inten    --      1.2070                 2.8617                14.6482

                     55                     56                     57
                      A                      A                      A
 Frequencies --   1046.9865              1056.0408              1057.6825
 Red. masses --      1.6521                 2.4885                 2.3307
 Frc consts  --      1.0670                 1.6351                 1.5362
 IR Inten    --     60.4818                12.9202                 5.3836

                     58                     59                     60
                      A                      A                      A
 Frequencies --   1065.1801              1072.9336              1075.0756
 Red. masses --      1.6115                 1.8695                 1.7192
 Frc consts  --      1.0773                 1.2680                 1.1707
 IR Inten    --     32.0656                 3.9170                47.7836

                     61                     62                     63
                      A                      A                      A
 Frequencies --   1106.7003              1116.3579              1126.6815
 Red. masses --      1.5594                 2.0490                 2.2080
 Frc consts  --      1.1253                 1.5045                 1.6514
 IR Inten    --     19.9073               178.9650                27.2781

                     64                     65                     66
                      A                      A                      A
 Frequencies --   1137.0173              1178.7597              1179.6770
 Red. masses --      2.3783                 1.2819                 1.1290
 Frc consts  --      1.8116                 1.0494                 0.9257
 IR Inten    --    159.9525                 1.3416                 0.1558

                     67                     68                     69
                      A                      A                      A
 Frequencies --   1185.9535              1205.4030              1207.8326
 Red. masses --      1.1286                 1.1388                 1.4972
 Frc consts  --      0.9353                 0.9749                 1.2869
 IR Inten    --      0.0857                 2.9158                67.1882

                     70                     71                     72
                      A                      A                      A
 Frequencies --   1220.8451              1232.4988              1265.2630
 Red. masses --      1.1278                 4.3420                 3.7597
 Frc consts  --      0.9904                 3.8861                 3.5462
 IR Inten    --      1.6169               266.5537                23.3316

                     73                     74                     75
                      A                      A                      A
 Frequencies --   1279.9832              1301.7009              1322.6576
 Red. masses --      1.3847                 4.5165                 4.6959
 Frc consts  --      1.3366                 4.5089                 4.8402
 IR Inten    --     74.2755                34.8919                44.2188

                     76                     77                     78
                      A                      A                      A
 Frequencies --   1349.8179              1353.8699              1366.9841
 Red. masses --      1.7715                 1.4343                 1.6936
 Frc consts  --      1.9017                 1.5489                 1.8646
 IR Inten    --     87.3207                 6.6801               114.9581

                     79                     80                     81
                      A                      A                      A
 Frequencies --   1371.0105              1387.2153              1416.9210
 Red. masses --      2.1316                 3.6054                 1.2821
 Frc consts  --      2.3607                 4.0878                 1.5166
 IR Inten    --    258.2241               371.8841                51.5514

                     82                     83                     84
                      A                      A                      A
 Frequencies --   1459.4318              1476.8521              1478.5823
 Red. masses --      1.1740                 1.0751                 1.2311
 Frc consts  --      1.4733                 1.3816                 1.5858
 IR Inten    --      2.2925                27.9256                95.0942

                     85                     86                     87
                      A                      A                      A
 Frequencies --   1484.3136              1488.0446              1492.9234
 Red. masses --      1.6828                 1.2480                 1.5724
 Frc consts  --      2.1844                 1.6282                 2.0648
 IR Inten    --     29.6048                 4.8835                 8.8240

                     88                     89                     90
                      A                      A                      A
 Frequencies --   1497.9354              1498.5692              1512.2162
 Red. masses --      1.2130                 1.1175                 1.0507
 Frc consts  --      1.6036                 1.4786                 1.4157
 IR Inten    --     26.6334                17.8428                 1.5159

                     91                     92                     93
                      A                      A                      A
 Frequencies --   1514.9821              1540.0893              1547.0127
 Red. masses --      1.0671                 2.3779                 2.2589
 Frc consts  --      1.4430                 3.3230                 3.1852
 IR Inten    --      2.9593                54.3926                14.8262

                     94                     95                     96
                      A                      A                      A
 Frequencies --   1622.4403              1641.8996              1642.9788
 Red. masses --      9.1069                 3.2314                 1.2920
 Frc consts  --     14.1241                 5.1325                 2.0548
 IR Inten    --   1199.3459                36.2158               122.0268

                     97                     98                     99
                      A                      A                      A
 Frequencies --   1654.7168              1669.4303              1678.5094
 Red. masses --      5.5784                 6.0159                 5.8482
 Frc consts  --      8.9993                 9.8784                 9.7078
 IR Inten    --      0.4517                65.2248                 2.3846

                    100                    101                    102
                      A                      A                      A
 Frequencies --   3048.4573              3070.6072              3085.1630
 Red. masses --      1.0310                 1.0395                 1.0356
 Frc consts  --      5.6450                 5.7745                 5.8075
 IR Inten    --     88.4833                22.2404                34.7991

                    103                    104                    105
                      A                      A                      A
 Frequencies --   3117.6362              3143.1912              3149.7364
 Red. masses --      1.1057                 1.1025                 1.1042
 Frc consts  --      6.3320                 6.4173                 6.4545
 IR Inten    --     55.8632                30.2256                37.0257

                    106                    107                    108
                      A                      A                      A
 Frequencies --   3168.1929              3178.7590              3179.2534
 Red. masses --      1.1027                 1.0987                 1.0876
 Frc consts  --      6.5213                 6.5407                 6.4766
 IR Inten    --      9.3069                20.2649                15.4201

                    109                    110                    111
                      A                      A                      A
 Frequencies --   3187.9894              3192.6340              3195.6806
 Red. masses --      1.0867                 1.0864                 1.1067
 Frc consts  --      6.5071                 6.5241                 6.6587
 IR Inten    --      1.0815                 5.8294                 3.5406

                    112                    113                    114
                      A                      A                      A
 Frequencies --   3197.6176              3199.2707              3204.7453
 Red. masses --      1.0911                 1.0885                 1.0946
 Frc consts  --      6.5732                 6.5640                 6.6235
 IR Inten    --     14.0700                 2.8987                51.9525

                    115                    116                    117
                      A                      A                      A
 Frequencies --   3209.0972              3216.5549              3220.1638
 Red. masses --      1.0930                 1.0987                 1.0969
 Frc consts  --      6.6317                 6.6974                 6.7015
 IR Inten    --     28.9764                23.9003                26.4619

                    118                    119                    120
                      A                      A                      A
 Frequencies --   3231.3073              3503.2287              3584.6856
 Red. masses --      1.0940                 1.0516                 1.0960
 Frc consts  --      6.7304                 7.6038                 8.2980
 IR Inten    --     10.8486                22.8772                61.9445

 - Thermochemistry -
 -------------------
 Temperature   298.150 Kelvin.  Pressure   1.00000 Atm.
 Atom     1 has atomic number  6 and mass  12.00000

 Molecular mass:   283.15723 amu.
 Principal axes and moments of inertia in atomic units:
                           1         2         3
     Eigenvalues --  3234.576857965.419319438.95823
           X            0.99987   0.01615   0.00048
           Y           -0.01614   0.99986  -0.00517
           Z           -0.00056   0.00516   0.99999
 This molecule is an asymmetric top.
 Rotational symmetry number  1.
 Warning -- assumption of classical behavior for rotation
           may cause significant error
 Rotational temperatures (Kelvin)      0.02678     0.01087     0.00918
 Rotational constants (GHZ):           0.55795     0.22657     0.19120
    1 imaginary frequencies ignored.
 Zero-point vibrational energy     933363.0 (Joules/Mol)
                                  223.07912 (Kcal/Mol)
 Warning -- explicit consideration of  29 degrees of freedom as
           vibrations may cause significant error
 Vibrational temperatures:     13.51    58.75    65.79    79.92   105.16
          (Kelvin)            109.24   146.62   171.77   184.40   200.38
                              242.28   262.75   325.72   371.82   372.89
                              405.57   417.17   451.06   478.32   497.90
                              540.64   562.93   609.86   617.11   625.23
                              728.37   760.25   801.15   823.03   902.91
                              918.31   923.25   963.86  1036.61  1045.20
                             1058.68  1094.14  1121.64  1142.15  1167.82
                             1213.47  1258.86  1271.49  1330.47  1376.56
                             1384.44  1454.93  1462.19  1469.29  1475.65
                             1477.08  1478.26  1479.45  1506.38  1519.41
                             1521.77  1532.56  1543.71  1546.79  1592.29
                             1606.19  1621.04  1635.91  1695.97  1697.29
                             1706.32  1734.31  1737.80  1756.52  1773.29
                             1820.43  1841.61  1872.86  1903.01  1942.09
                             1947.92  1966.79  1972.58  1995.89  2038.63
                             2099.80  2124.86  2127.35  2135.60  2140.96
                             2147.98  2155.19  2156.11  2175.74  2179.72
                             2215.85  2225.81  2334.33  2362.33  2363.88
                             2380.77  2401.94  2415.00  4386.05  4417.92
                             4438.86  4485.58  4522.35  4531.77  4558.32
                             4573.53  4574.24  4586.81  4593.49  4597.87
                             4600.66  4603.04  4610.91  4617.18  4627.91
                             4633.10  4649.13  5040.36  5157.56

 Zero-point correction=                           0.355499 (Hartree/Particle)
 Thermal correction to Energy=                    0.375392
 Thermal correction to Enthalpy=                  0.376336
 Thermal correction to Gibbs Free Energy=         0.305212
 Sum of electronic and zero-point Energies=           -903.398434
 Sum of electronic and thermal Energies=              -903.378541
 Sum of electronic and thermal Enthalpies=            -903.377597
 Sum of electronic and thermal Free Energies=         -903.448722

                     E (Thermal)             CV                S
                      KCal/Mol        Cal/Mol-Kelvin    Cal/Mol-Kelvin
 Total                  235.562             75.737            149.694
 Electronic               0.000              0.000              0.000
 Translational            0.889              2.981             42.821
 Rotational               0.889              2.981             33.852
 Vibrational            233.785             69.775             73.022
 Vibration     1          0.593              1.987              8.136
 Vibration     2          0.594              1.981              5.218
 Vibration     3          0.595              1.979              4.994
 Vibration     4          0.596              1.975              4.609
 Vibration     5          0.599              1.967              4.068
 Vibration     6          0.599              1.965              3.994
 Vibration     7          0.604              1.948              3.418
 Vibration     8          0.609              1.933              3.110
 Vibration     9          0.611              1.925              2.973
 Vibration    10          0.615              1.914              2.814
 Vibration    11          0.625              1.881              2.453
 Vibration    12          0.630              1.863              2.301
 Vibration    13          0.650              1.801              1.907
 Vibration    14          0.667              1.749              1.672
 Vibration    15          0.668              1.747              1.667
 Vibration    16          0.681              1.707              1.522
 Vibration    17          0.686              1.692              1.474
 Vibration    18          0.701              1.648              1.344
 Vibration    19          0.714              1.611              1.248
 Vibration    20          0.724              1.583              1.184
 Vibration    21          0.747              1.522              1.056
 Vibration    22          0.759              1.489              0.995
 Vibration    23          0.786              1.418              0.879
 Vibration    24          0.790              1.407              0.862
 Vibration    25          0.795              1.395              0.844
 Vibration    26          0.861              1.236              0.643
 Vibration    27          0.883              1.187              0.591
 Vibration    28          0.912              1.125              0.530
 Vibration    29          0.928              1.092              0.500

 Optimization completed.
    -- Stationary point found.
 Normal termination of Gaussian 16 at Thu Apr 15 10:57:08 2021.
