 Gaussian 16, Revision A.03,
 Gaussian 16:  ES64L-G16RevA.03 25-Dec-2016

 ----------------------------------------------------------------------
 # wB97XD def2tzvp, opt=(ts, noeigen, calcfc, maxcycles=70, maxstep=5),
  freq=noraman, scrf=(iefpcm, solvent=water)
 ----------------------------------------------------------------------

 ------------------------
 2_iteration/TS-439-2.out
 ------------------------
 Symbolic Z-matrix:
 Charge =  0 Multiplicity = 1

 SCF Done:  E(RwB97XD) =  -1304.19996886     A.U. after   15 cycles
 Optimization completed.
    -- Stationary point found.
 Normal termination of Gaussian 16 at Thu Apr  1 01:21:23 2021.

 ---------------------------------------------------------------------
 #N Geom=AllCheck Guess=TCheck SCRF=Check GenChk RwB97XD/def2TZVP Freq
 ---------------------------------------------------------------------

 Structure from the checkpoint file:  "/beegfs/scratch/user/q/tla25/Gau-76220.chk"
 ------------------------
 2_iteration/TS-439-2.out
 ------------------------
 Charge =  0 Multiplicity = 1

                         Standard orientation:
 ---------------------------------------------------------------------
 Center     Atomic      Atomic             Coordinates (Angstroms)
 Number     Number       Type             X           Y           Z
 ---------------------------------------------------------------------
      1          6           0       -0.529360   -1.069230   -0.490050
      2          6           0        0.518680   -0.220790   -0.001870
      3          8           0        0.299460    0.634530    0.872340
      4          6           0       -1.870830   -0.893410   -0.091630
      5          6           0       -1.219130   -2.343300    2.266630
      6          1           0       -0.371630   -2.555190    1.613760
      7          1           0       -0.862170   -2.293340    3.295800
      8          1           0       -1.946951   -3.147650    2.180430
      9          7           0       -1.822680   -1.086740    1.846670
     10          1           0       -2.698830   -0.916140    2.322270
     11          1           0       -1.192970   -0.302490    2.007650
     12          6           0       -2.867110   -1.963760   -0.468030
     13          1           0       -3.023960   -1.938960   -1.548050
     14          1           0       -2.513020   -2.957410   -0.201600
     15          1           0       -3.825230   -1.782960    0.014900
     16          6           0       -2.468590    0.496190   -0.181440
     17          6           0       -1.956970    1.411000   -1.098220
     18          6           0       -2.539780    2.656690   -1.267760
     19          6           0       -3.657850    3.012730   -0.528750
     20          6           0       -4.193770    2.103010    0.369840
     21          6           0       -3.609530    0.856540    0.533090
     22          1           0       -1.092880    1.137320   -1.688150
     23          1           0       -2.118130    3.350120   -1.984530
     24          1           0       -4.113950    3.985820   -0.659110
     25          1           0       -5.075280    2.358420    0.944070
     26          1           0       -4.072550    0.163360    1.223080
     27         17           0       -0.070000   -2.548520   -1.344800
     28          7           0        1.777300   -0.404930   -0.528810
     29          6           0        2.989120    0.183249   -0.162800
     30          6           0        4.147400   -0.327471   -0.759270
     31          6           0        5.389380    0.202809   -0.463320
     32          6           0        5.509780    1.253219    0.437420
     33          6           0        4.364120    1.761469    1.028820
     34          6           0        3.109410    1.243319    0.738080
     35          1           0        1.847690   -1.125200   -1.228210
     36          1           0        4.067220   -1.150021   -1.460890
     37          1           0        6.269520   -0.211051   -0.939550
     38          1           0        6.481470    1.668219    0.671300
     39          1           0        4.438540    2.582939    1.731100
     40          1           0        2.225310    1.650930    1.199210
 ---------------------------------------------------------------------

 SCF Done:  E(RwB97XD) =  -1304.19996886     A.U. after    1 cycles

 The electronic state is 1-A.
 Alpha  occ. eigenvalues -- -101.69061 -19.20749 -14.47388 -14.46186 -10.38682
 Alpha  occ. eigenvalues --  -10.36131 -10.33774 -10.31324 -10.30681 -10.30405
 Alpha  occ. eigenvalues --  -10.29457 -10.29191 -10.29098 -10.29035 -10.28988
 Alpha  occ. eigenvalues --  -10.28976 -10.28828 -10.28750 -10.28487 -10.28168
 Alpha  occ. eigenvalues --  -10.28082  -9.57593  -7.32203  -7.31410  -7.31363
 Alpha  occ. eigenvalues --   -1.13566  -1.04066  -1.03237  -0.97710  -0.96343
 Alpha  occ. eigenvalues --   -0.94931  -0.90082  -0.85425  -0.85098  -0.84942
 Alpha  occ. eigenvalues --   -0.83714  -0.79839  -0.78460  -0.74103  -0.71514
 Alpha  occ. eigenvalues --   -0.70834  -0.70202  -0.67078  -0.64338  -0.63123
 Alpha  occ. eigenvalues --   -0.62594  -0.61195  -0.58352  -0.57673  -0.57018
 Alpha  occ. eigenvalues --   -0.55751  -0.54470  -0.53862  -0.53510  -0.52768
 Alpha  occ. eigenvalues --   -0.52264  -0.51842  -0.50913  -0.50642  -0.49777
 Alpha  occ. eigenvalues --   -0.49493  -0.47927  -0.47548  -0.47065  -0.46691
 Alpha  occ. eigenvalues --   -0.46367  -0.44665  -0.43015  -0.42897  -0.42738
 Alpha  occ. eigenvalues --   -0.42380  -0.40893  -0.40211  -0.39430  -0.34802
 Alpha  occ. eigenvalues --   -0.33888  -0.33692  -0.32627  -0.30260  -0.26294
 Alpha virt. eigenvalues --    0.02207   0.05250   0.05415   0.05452   0.08755
 Alpha virt. eigenvalues --    0.10336   0.11768   0.12639   0.13659   0.13794
 Alpha virt. eigenvalues --    0.14859   0.15118   0.15791   0.16117   0.16794

 Mulliken charges:
               1
     1  C   -0.369361
     2  C    0.441976
     3  O   -0.582803
     4  C    0.285720
     5  C   -0.309425
     6  H    0.154006
     7  H    0.153914
     8  H    0.157666
     9  N   -0.323506
    10  H    0.265929
    11  H    0.278777
    12  C   -0.375221
    13  H    0.155844
    14  H    0.146456
    15  H    0.146874
    16  C    0.198844
    17  C   -0.231460
    18  C   -0.147251
    19  C   -0.140193
    20  C   -0.174043
    21  C   -0.268729
    22  H    0.163440
    23  H    0.141987
    24  H    0.144414
    25  H    0.142866
    26  H    0.152033
    27  Cl  -0.180832
    28  N   -0.270461
    29  C    0.304792
    30  C   -0.315296
    31  C   -0.098068
    32  C   -0.198858
    33  C   -0.110742
    34  C   -0.295981
    35  H    0.233300
    36  H    0.140357
    37  H    0.142694
    38  H    0.139954
    39  H    0.140531
    40  H    0.159858
 Sum of Mulliken charges =  -0.00000

 Dipole moment (field-independent basis, Debye):
    X=             -4.9779    Y=             -2.6379    Z=              2.7731  Tot=              6.2792
 Quadrupole moment (field-independent basis, Debye-Ang):
   XX=           -112.2617   YY=           -126.1543   ZZ=           -123.0566
   XY=              0.9184   XZ=            -14.1476   YZ=             -6.6680

  Exact polarizability: 400.635   3.632 318.018 -33.593  17.474 271.369
 Approx polarizability: 294.322  -0.281 261.040 -27.864  18.177 236.742

 ******    1 imaginary frequencies (negative Signs) ******

                      1                      2                      3
                      A                      A                      A
 Frequencies --   -380.3726                28.4101                33.1971
 Red. masses --      5.2940                 4.7305                 4.0136
 Frc consts  --      0.4513                 0.0022                 0.0026
 IR Inten    --    782.7385                 1.4377                 0.0343

                      4                      5                      6
                      A                      A                      A
 Frequencies --     50.8682                71.5179                74.7809
 Red. masses --      4.0605                 3.8489                 6.0051
 Frc consts  --      0.0062                 0.0116                 0.0198
 IR Inten    --      0.8056                 2.0136                 0.1472

                      7                      8                      9
                      A                      A                      A
 Frequencies --     85.4927                97.1138               122.5629
 Red. masses --      5.8834                 2.8751                 4.6982
 Frc consts  --      0.0253                 0.0160                 0.0416
 IR Inten    --      5.4479                 3.2336                 0.7277

                     10                     11                     12
                      A                      A                      A
 Frequencies --    152.8382               167.7708               204.0955
 Red. masses --      5.5439                 2.0769                 2.9120
 Frc consts  --      0.0763                 0.0344                 0.0715
 IR Inten    --     21.6009                28.4690                 0.5426

                     13                     14                     15
                      A                      A                      A
 Frequencies --    217.3557               228.0762               247.7850
 Red. masses --      1.9879                 4.6144                 4.0145
 Frc consts  --      0.0553                 0.1414                 0.1452
 IR Inten    --     12.9263                13.2108                 1.0050

                     16                     17                     18
                      A                      A                      A
 Frequencies --    268.6505               275.3423               280.6035
 Red. masses --      2.8794                 3.2214                 2.0853
 Frc consts  --      0.1224                 0.1439                 0.0967
 IR Inten    --      4.2416                 4.5269                 1.6741

                     19                     20                     21
                      A                      A                      A
 Frequencies --    322.3642               338.1678               351.3385
 Red. masses --      2.9501                 5.0128                 2.1565
 Frc consts  --      0.1806                 0.3377                 0.1568
 IR Inten    --     38.8425                 5.1384                 0.3647

                     22                     23                     24
                      A                      A                      A
 Frequencies --    367.6238               419.5451               425.1550
 Red. masses --      4.9044                 4.0995                 3.0009
 Frc consts  --      0.3905                 0.4251                 0.3196
 IR Inten    --     14.8024                 8.1848                 0.3100

                     25                     26                     27
                      A                      A                      A
 Frequencies --    429.6286               455.8013               527.9872
 Red. masses --      3.1137                 8.9083                 2.8036
 Frc consts  --      0.3386                 1.0904                 0.4605
 IR Inten    --      0.8487                 4.9912                19.6898

                     28                     29                     30
                      A                      A                      A
 Frequencies --    544.7927               563.0754               574.6558
 Red. masses --      4.8530                 3.0440                 1.1421
 Frc consts  --      0.8486                 0.5686                 0.2222
 IR Inten    --     80.9531                93.4639               102.2385

                     31                     32                     33
                      A                      A                      A
 Frequencies --    594.3825               635.2042               638.2351
 Red. masses --      4.9321                 6.1102                 5.6828
 Frc consts  --      1.0266                 1.4525                 1.3639
 IR Inten    --     25.1483                 4.3097                 2.5630

                     34                     35                     36
                      A                      A                      A
 Frequencies --    643.0070               695.7793               719.9468
 Red. masses --      4.4968                 1.6041                 1.8799
 Frc consts  --      1.0954                 0.4575                 0.5741
 IR Inten    --     16.0005               125.3201                63.7780

                     37                     38                     39
                      A                      A                      A
 Frequencies --    729.2622               773.7431               781.0213
 Red. masses --      1.6637                 7.8121                 2.6041
 Frc consts  --      0.5213                 2.7556                 0.9359
 IR Inten    --     80.0741                37.0188                24.1588

                     40                     41                     42
                      A                      A                      A
 Frequencies --    785.5908               796.3794               846.0551
 Red. masses --      2.4757                 2.2127                 5.2048
 Frc consts  --      0.9002                 0.8268                 2.1951
 IR Inten    --     73.8701                53.1913                25.7377

                     43                     44                     45
                      A                      A                      A
 Frequencies --    862.2499               874.9972               880.3169
 Red. masses --      1.2637                 4.9025                 1.2418
 Frc consts  --      0.5536                 2.2115                 0.5670
 IR Inten    --      0.1789                10.4820                 0.7241

                     46                     47                     48
                      A                      A                      A
 Frequencies --    933.5672               962.7419              1001.6493
 Red. masses --      1.4675                 1.3904                 1.3447
 Frc consts  --      0.7536                 0.7593                 0.7949
 IR Inten    --     13.4556                18.0984                 0.0555

                     49                     50                     51
                      A                      A                      A
 Frequencies --   1007.5442              1017.4149              1019.0098
 Red. masses --      1.2406                 1.2837                 5.5686
 Frc consts  --      0.7420                 0.7829                 3.4068
 IR Inten    --     22.7686                 0.9691                 7.9924

                     52                     53                     54
                      A                      A                      A
 Frequencies --   1023.8674              1028.2763              1029.8361
 Red. masses --      2.1231                 2.0815                 1.7883
 Frc consts  --      1.3113                 1.2967                 1.1175
 IR Inten    --      3.5014                10.2538                41.1847

                     55                     56                     57
                      A                      A                      A
 Frequencies --   1035.1811              1043.7590              1059.1402
 Red. masses --      1.6176                 1.9115                 1.9615
 Frc consts  --      1.0213                 1.2269                 1.2964
 IR Inten    --     22.6970               138.9218                46.2132

                     58                     59                     60
                      A                      A                      A
 Frequencies --   1062.2222              1066.7147              1082.7858
 Red. masses --      1.8843                 1.7857                 1.8142
 Frc consts  --      1.2527                 1.1972                 1.2532
 IR Inten    --     18.8491                17.4019                66.0730

                     61                     62                     63
                      A                      A                      A
 Frequencies --   1091.5694              1119.3390              1125.2793
 Red. masses --      3.2952                 1.6012                 1.6452
 Frc consts  --      2.3133                 1.1820                 1.2274
 IR Inten    --     19.0597                20.9439                 7.2765

                     64                     65                     66
                      A                      A                      A
 Frequencies --   1133.1949              1181.5866              1185.5277
 Red. masses --      2.3042                 1.1195                 1.1273
 Frc consts  --      1.7434                 0.9209                 0.9335
 IR Inten    --     34.4283                 3.0035                 0.0716

                     67                     68                     69
                      A                      A                      A
 Frequencies --   1206.9220              1212.1989              1228.6508
 Red. masses --      1.1378                 1.2448                 1.2474
 Frc consts  --      0.9765                 1.0777                 1.1095
 IR Inten    --     26.4865                33.8672                29.2671

                     70                     71                     72
                      A                      A                      A
 Frequencies --   1256.1076              1269.1824              1304.2736
 Red. masses --      3.7722                 2.5672                 4.4436
 Frc consts  --      3.5067                 2.4365                 4.4537
 IR Inten    --    121.2031               462.0689                68.1897

                     73                     74                     75
                      A                      A                      A
 Frequencies --   1322.4844              1346.2498              1355.5808
 Red. masses --      4.4506                 4.5996                 1.4787
 Frc consts  --      4.5862                 4.9115                 1.6010
 IR Inten    --     15.1573               801.3623                14.0150

                     76                     77                     78
                      A                      A                      A
 Frequencies --   1360.5606              1375.2701              1402.8432
 Red. masses --      1.5434                 1.3069                 2.8822
 Frc consts  --      1.6834                 1.4563                 3.3419
 IR Inten    --     30.5053                 7.2103               394.6447

                     79                     80                     81
                      A                      A                      A
 Frequencies --   1422.0837              1454.6563              1479.4238
 Red. masses --      1.3183                 1.2043                 2.2260
 Frc consts  --      1.5708                 1.5014                 2.8705
 IR Inten    --     89.7874                11.3907               411.2277

                     82                     83                     84
                      A                      A                      A
 Frequencies --   1485.6409              1493.1374              1497.7760
 Red. masses --      1.2647                 1.3800                 1.3085
 Frc consts  --      1.6447                 1.8127                 1.7295
 IR Inten    --     14.4332                30.8746                74.9641

                     85                     86                     87
                      A                      A                      A
 Frequencies --   1500.3999              1510.1524              1544.2277
 Red. masses --      1.0546                 1.0426                 2.2471
 Frc consts  --      1.3988                 1.4010                 3.1572
 IR Inten    --      8.4042                 6.0944                52.7383

                     88                     89                     90
                      A                      A                      A
 Frequencies --   1545.8032              1563.9030              1629.5746
 Red. masses --      2.4131                 2.2983                 2.0307
 Frc consts  --      3.3973                 3.3120                 3.1772
 IR Inten    --    192.4347               827.5601               364.7666

                     91                     92                     93
                      A                      A                      A
 Frequencies --   1651.8536              1656.8999              1662.2007
 Red. masses --      3.7277                 2.5439                 2.9010
 Frc consts  --      5.9928                 4.1148                 4.7224
 IR Inten    --      3.5194                36.5416                88.1408

                     94                     95                     96
                      A                      A                      A
 Frequencies --   1674.6856              1677.0518              3063.6499
 Red. masses --      5.8974                 5.9900                 1.0334
 Frc consts  --      9.7448                 9.9259                 5.7145
 IR Inten    --      6.1028               186.4536                47.7152

                     97                     98                     99
                      A                      A                      A
 Frequencies --   3072.2197              3136.0816              3146.6997
 Red. masses --      1.0381                 1.1040                 1.0984
 Frc consts  --      5.7732                 6.3973                 6.4077
 IR Inten    --     12.3671                13.4727                14.9312

                    100                    101                    102
                      A                      A                      A
 Frequencies --   3160.7553              3171.5853              3186.6852
 Red. masses --      1.1051                 1.1039                 1.0879
 Frc consts  --      6.5051                 6.5426                 6.5092
 IR Inten    --     20.4879                21.5063                14.0027

                    103                    104                    105
                      A                      A                      A
 Frequencies --   3195.8776              3195.9842              3203.0746
 Red. masses --      1.0857                 1.0883                 1.0885
 Frc consts  --      6.5333                 6.5495                 6.5800
 IR Inten    --      1.6396                 2.7817                 4.0301

                    106                    107                    108
                      A                      A                      A
 Frequencies --   3205.8864              3212.4230              3220.7008
 Red. masses --      1.0932                 1.0921                 1.0946
 Frc consts  --      6.6196                 6.6404                 6.6897
 IR Inten    --     31.4033                30.8142                31.3756

                    109                    110                    111
                      A                      A                      A
 Frequencies --   3221.1927              3226.2563              3271.2765
 Red. masses --      1.0979                 1.0973                 1.0924
 Frc consts  --      6.7121                 6.7292                 6.8877
 IR Inten    --     22.7797                 9.4453                 6.6864

                    112                    113                    114
                      A                      A                      A
 Frequencies --   3463.1683              3607.6585              3638.3823
 Red. masses --      1.0605                 1.0868                 1.0762
 Frc consts  --      7.4936                 8.3342                 8.3936
 IR Inten    --     73.8472                69.0273                86.1080

 - Thermochemistry -
 -------------------
 Temperature   298.150 Kelvin.  Pressure   1.00000 Atm.
 Atom     1 has atomic number  6 and mass  12.00000

 Molecular mass:   302.11859 amu.
 Principal axes and moments of inertia in atomic units:
                           1         2         3
     Eigenvalues --  4116.47951********************
           X            0.99996   0.00671  -0.00540
           Y           -0.00690   0.99931  -0.03636
           Z            0.00515   0.03640   0.99932
 This molecule is an asymmetric top.
 Rotational symmetry number  1.
 Warning -- assumption of classical behavior for rotation
           may cause significant error
 Rotational temperatures (Kelvin)      0.02104     0.00835     0.00708
 Rotational constants (GHZ):           0.43842     0.17392     0.14755
    1 imaginary frequencies ignored.
 Zero-point vibrational energy     867785.0 (Joules/Mol)
                                  207.40560 (Kcal/Mol)
 Warning -- explicit consideration of  30 degrees of freedom as
           vibrations may cause significant error
 Vibrational temperatures:     40.88    47.76    73.19   102.90   107.59
          (Kelvin)            123.00   139.73   176.34   219.90   241.38
                              293.65   312.73   328.15   356.51   386.53
                              396.16   403.73   463.81   486.55   505.50
                              528.93   603.63   611.70   618.14   655.80
                              759.66   783.84   810.14   826.80   855.18
                              913.92   918.28   925.14  1001.07  1035.84
                             1049.25  1113.24  1123.72  1130.29  1145.81
                             1217.28  1240.59  1258.93  1266.58  1343.19
                             1385.17  1441.15  1449.63  1463.83  1466.13
                             1473.12  1479.46  1481.70  1489.39  1501.74
                             1523.87  1528.30  1534.76  1557.89  1570.52
                             1610.48  1619.03  1630.41  1700.04  1705.71
                             1736.49  1744.08  1767.75  1807.26  1826.07
                             1876.56  1902.76  1936.95  1950.38  1957.54
                             1978.71  2018.38  2046.06  2092.93  2128.56
                             2137.51  2148.29  2154.97  2158.74  2172.77
                             2221.80  2224.07  2250.11  2344.59  2376.65
                             2383.91  2391.54  2409.50  2412.90  4407.91
                             4420.24  4512.12  4527.40  4547.62  4563.20
                             4584.93  4598.16  4598.31  4608.51  4612.56
                             4621.96  4633.87  4634.58  4641.86  4706.64
                             4982.73  5190.62  5234.82

 Zero-point correction=                           0.330522 (Hartree/Particle)
 Thermal correction to Energy=                    0.350078
 Thermal correction to Enthalpy=                  0.351023
 Thermal correction to Gibbs Free Energy=         0.281460
 Sum of electronic and zero-point Energies=          -1303.869447
 Sum of electronic and thermal Energies=             -1303.849890
 Sum of electronic and thermal Enthalpies=           -1303.848946
 Sum of electronic and thermal Free Energies=        -1303.918509

                     E (Thermal)             CV                S
                      KCal/Mol        Cal/Mol-Kelvin    Cal/Mol-Kelvin
 Total                  219.678             75.176            146.408
 Electronic               0.000              0.000              0.000
 Translational            0.889              2.981             43.014
 Rotational               0.889              2.981             34.612
 Vibrational            217.900             69.214             68.782
 Vibration     1          0.593              1.984              5.937
 Vibration     2          0.594              1.983              5.629
 Vibration     3          0.595              1.977              4.783
 Vibration     4          0.598              1.968              4.111
 Vibration     5          0.599              1.966              4.023
 Vibration     6          0.601              1.959              3.761
 Vibration     7          0.603              1.951              3.511
 Vibration     8          0.610              1.930              3.060
 Vibration     9          0.619              1.900              2.637
 Vibration    10          0.624              1.882              2.460
 Vibration    11          0.640              1.834              2.096
 Vibration    12          0.646              1.815              1.981
 Vibration    13          0.651              1.798              1.894
 Vibration    14          0.661              1.766              1.746
 Vibration    15          0.673              1.731              1.605
 Vibration    16          0.677              1.719              1.562
 Vibration    17          0.680              1.709              1.530
 Vibration    18          0.707              1.631              1.298
 Vibration    19          0.718              1.599              1.221
 Vibration    20          0.728              1.573              1.160
 Vibration    21          0.740              1.539              1.090
 Vibration    22          0.782              1.428              0.894
 Vibration    23          0.787              1.416              0.875
 Vibration    24          0.791              1.406              0.860
 Vibration    25          0.814              1.348              0.778
 Vibration    26          0.883              1.188              0.592
 Vibration    27          0.900              1.151              0.555
 Vibration    28          0.919              1.111              0.518
 Vibration    29          0.931              1.086              0.495
 Vibration    30          0.952              1.044              0.459

 Optimization completed.
    -- Stationary point found.
 Normal termination of Gaussian 16 at Thu Apr  1 04:01:22 2021.
