 Gaussian 16, Revision A.03,
 Gaussian 16:  ES64L-G16RevA.03 25-Dec-2016

 ----------------------------------------------------------------------
 # wB97XD def2tzvp, opt=(ts, noeigen, calcfc, maxcycles=70, maxstep=3),
  freq=noraman, scrf=(iefpcm, solvent=water)
 ----------------------------------------------------------------------

 -----------------------
 3_iteration/TS-44-3.out
 -----------------------
 Symbolic Z-matrix:
 Charge =  0 Multiplicity = 1

 SCF Done:  E(RwB97XD) =  -864.456852235     A.U. after   14 cycles
 Optimization completed.
    -- Stationary point found.
 Normal termination of Gaussian 16 at Sun Jan 31 23:50:01 2021.

 ---------------------------------------------------------------------
 #N Geom=AllCheck Guess=TCheck SCRF=Check GenChk RwB97XD/def2TZVP Freq
 ---------------------------------------------------------------------

 Structure from the checkpoint file:  "/beegfs/scratch/user/q/tla25/Gau-31610.chk"
 -----------------------
 3_iteration/TS-44-3.out
 -----------------------
 Charge =  0 Multiplicity = 1

                         Standard orientation:
 ---------------------------------------------------------------------
 Center     Atomic      Atomic             Coordinates (Angstroms)
 Number     Number       Type             X           Y           Z
 ---------------------------------------------------------------------
      1          6           0       -0.805679   -0.471419   -0.187279
      2          6           0       -1.999199   -1.118249   -0.613419
      3          8           0       -2.178009   -2.326689   -0.768459
      4          6           0        0.307471   -1.296829    0.088851
      5          6           0       -0.882879   -2.270829    2.373621
      6          1           0       -0.881469   -2.346509    3.460011
      7          1           0       -1.669889   -1.586789    2.056281
      8          1           0       -1.069059   -3.247559    1.934591
      9          7           0        0.390781   -1.758469    1.876311
     10          1           0        0.663231   -0.918939    2.375661
     11          1           0        1.139911   -2.433119    1.987531
     12          6           0        1.711621   -0.828669   -0.128759
     13          6           0        2.515281   -1.542829   -1.013799
     14          6           0        3.815031   -1.139129   -1.281459
     15          6           0        4.337431   -0.018999   -0.652729
     16          6           0        3.550991    0.692301    0.242921
     17          6           0        2.249301    0.293131    0.500991
     18          1           0        2.115391   -2.422979   -1.503599
     19          1           0        4.421001   -1.705269   -1.977529
     20          1           0        5.353111    0.296261   -0.855249
     21          1           0        3.951651    1.565391    0.742381
     22          1           0        1.648171    0.870971    1.191741
     23          1           0        0.157211   -2.311479   -0.267119
     24          6           0       -0.753179    1.005961   -0.013039
     25          6           0       -1.128629    1.602421    1.190791
     26          6           0       -1.033349    2.974611    1.378131
     27          6           0       -0.559839    3.783971    0.355501
     28          6           0       -0.189789    3.210171   -0.853369
     29          6           0       -0.287249    1.838061   -1.030999
     30          1           0       -1.500359    0.977881    1.995271
     31          1           0       -1.327839    3.411741    2.324521
     32          1           0       -0.481289    4.854521    0.498541
     33          1           0        0.179221    3.833641   -1.658749
     34          1           0        0.013391    1.393201   -1.972329
     35          8           0       -3.011709   -0.242179   -0.881629
     36          6           0       -4.228169   -0.807409   -1.338389
     37          1           0       -4.646289   -1.496959   -0.603519
     38          1           0       -4.908829    0.028391   -1.486479
     39          1           0       -4.089959   -1.339749   -2.280789
 ---------------------------------------------------------------------

 SCF Done:  E(RwB97XD) =  -864.456852235     A.U. after    1 cycles

 The electronic state is 1-A.
 Alpha  occ. eigenvalues --  -19.27048 -19.19790 -14.49334 -10.38194 -10.33746
 Alpha  occ. eigenvalues --  -10.32076 -10.31642 -10.30436 -10.29275 -10.29269
 Alpha  occ. eigenvalues --  -10.29194 -10.29171 -10.29150 -10.29094 -10.28565
 Alpha  occ. eigenvalues --  -10.28513 -10.28454 -10.28166 -10.28044 -10.25068
 Alpha  occ. eigenvalues --   -1.18096  -1.08335  -1.04746  -0.97278  -0.96029
 Alpha  occ. eigenvalues --   -0.90513  -0.86446  -0.85368  -0.84417  -0.82603
 Alpha  occ. eigenvalues --   -0.80595  -0.79111  -0.73531  -0.70864  -0.69707
 Alpha  occ. eigenvalues --   -0.69225  -0.67556  -0.64239  -0.63034  -0.61742
 Alpha  occ. eigenvalues --   -0.60050  -0.57990  -0.57081  -0.56171  -0.55476
 Alpha  occ. eigenvalues --   -0.55056  -0.54458  -0.53710  -0.53140  -0.52278
 Alpha  occ. eigenvalues --   -0.51297  -0.50823  -0.50256  -0.49003  -0.48209
 Alpha  occ. eigenvalues --   -0.47735  -0.46831  -0.46143  -0.45935  -0.44269
 Alpha  occ. eigenvalues --   -0.43293  -0.42958  -0.42406  -0.41924  -0.41160
 Alpha  occ. eigenvalues --   -0.37076  -0.35147  -0.34213  -0.33744  -0.32903
 Alpha  occ. eigenvalues --   -0.31749  -0.26342
 Alpha virt. eigenvalues --    0.03531   0.04597   0.05711   0.06158   0.09301
 Alpha virt. eigenvalues --    0.10519   0.12716   0.13219   0.13609   0.13982
 Alpha virt. eigenvalues --    0.14902   0.16044   0.16420   0.16681   0.17287

 Mulliken charges:
               1
     1  C   -0.316028
     2  C    0.402391
     3  O   -0.542805
     4  C   -0.069534
     5  C   -0.289848
     6  H    0.160695
     7  H    0.149547
     8  H    0.155254
     9  N   -0.277002
    10  H    0.280825
    11  H    0.290770
    12  C    0.264268
    13  C   -0.228433
    14  C   -0.139650
    15  C   -0.151691
    16  C   -0.161271
    17  C   -0.286202
    18  H    0.140626
    19  H    0.143448
    20  H    0.144773
    21  H    0.142626
    22  H    0.184421
    23  H    0.154799
    24  C    0.263170
    25  C   -0.266262
    26  C   -0.168949
    27  C   -0.125281
    28  C   -0.164253
    29  C   -0.226287
    30  H    0.142563
    31  H    0.136642
    32  H    0.140475
    33  H    0.136369
    34  H    0.130194
    35  O   -0.317734
    36  C   -0.203523
    37  H    0.119275
    38  H    0.131595
    39  H    0.120028
 Sum of Mulliken charges =  -0.00000

 Dipole moment (field-independent basis, Debye):
    X=              4.9982    Y=             -0.8079    Z=              6.3251  Tot=              8.1019
 Quadrupole moment (field-independent basis, Debye-Ang):
   XX=           -114.3099   YY=           -114.6905   ZZ=           -103.0237
   XY=             -7.0691   XZ=             -3.9083   YZ=             -8.7462

  Exact polarizability: 314.038  14.001 305.054 -11.661  15.407 269.667
 Approx polarizability: 238.221  11.312 250.517 -12.566  15.148 228.583

 ******    1 imaginary frequencies (negative Signs) ******

                      1                      2                      3
                      A                      A                      A
 Frequencies --   -338.0250                24.6628                36.9000
 Red. masses --      6.2345                 3.8568                 4.2973
 Frc consts  --      0.4197                 0.0014                 0.0034
 IR Inten    --    826.3206                 1.4836                 0.6158

                      4                      5                      6
                      A                      A                      A
 Frequencies --     44.9809                56.7447                68.1703
 Red. masses --      4.2460                 4.0246                 2.8755
 Frc consts  --      0.0051                 0.0076                 0.0079
 IR Inten    --      2.9123                 3.2423                 1.4351

                      7                      8                      9
                      A                      A                      A
 Frequencies --     88.0216                94.7103                96.6927
 Red. masses --      2.7474                 4.4486                 4.0578
 Frc consts  --      0.0125                 0.0235                 0.0224
 IR Inten    --      9.2190                11.3120                 0.4341

                     10                     11                     12
                      A                      A                      A
 Frequencies --    115.7829               139.1030               177.4894
 Red. masses --      3.5003                 3.3256                 1.3821
 Frc consts  --      0.0276                 0.0379                 0.0257
 IR Inten    --      9.1453                 8.4342                 3.4567

                     13                     14                     15
                      A                      A                      A
 Frequencies --    192.7190               197.1716               240.0940
 Red. masses --      3.1272                 1.1998                 2.9960
 Frc consts  --      0.0684                 0.0275                 0.1018
 IR Inten    --      1.1701                 4.9021                 9.3935

                     16                     17                     18
                      A                      A                      A
 Frequencies --    259.2092               268.3176               292.1884
 Red. masses --      4.2254                 5.0727                 3.3138
 Frc consts  --      0.1673                 0.2152                 0.1667
 IR Inten    --      7.6604                 2.6037                17.6362

                     19                     20                     21
                      A                      A                      A
 Frequencies --    322.4295               363.5439               414.0933
 Red. masses --      4.1818                 4.7286                 6.1043
 Frc consts  --      0.2561                 0.3682                 0.6167
 IR Inten    --     21.6944                52.3449                10.8755

                     22                     23                     24
                      A                      A                      A
 Frequencies --    423.1976               426.5383               494.9517
 Red. masses --      2.8686                 2.9946                 4.2036
 Frc consts  --      0.3027                 0.3210                 0.6067
 IR Inten    --      0.0747                 2.4600                20.7052

                     25                     26                     27
                      A                      A                      A
 Frequencies --    521.6321               569.4141               607.0818
 Red. masses --      3.4287                 2.6206                 3.1853
 Frc consts  --      0.5497                 0.5006                 0.6917
 IR Inten    --      5.3578               113.2106                68.7262

                     28                     29                     30
                      A                      A                      A
 Frequencies --    621.0136               639.3245               640.0848
 Red. masses --      6.3909                 5.6975                 6.3013
 Frc consts  --      1.4522                 1.3721                 1.5211
 IR Inten    --     44.2146                 0.1212                 1.6824

                     31                     32                     33
                      A                      A                      A
 Frequencies --    679.9263               727.8747               732.4795
 Red. masses --      3.3590                 1.5447                 1.5780
 Frc consts  --      0.9149                 0.4822                 0.4988
 IR Inten    --     15.8772                65.7260               114.1227

                     34                     35                     36
                      A                      A                      A
 Frequencies --    751.3271               777.7631               797.0707
 Red. masses --      2.7754                 4.6570                 2.5347
 Frc consts  --      0.9231                 1.6598                 0.9488
 IR Inten    --      8.3745                36.5738                26.7260

                     37                     38                     39
                      A                      A                      A
 Frequencies --    803.7493               835.0377               853.8843
 Red. masses --      3.5689                 2.7221                 4.6318
 Frc consts  --      1.3584                 1.1183                 1.9898
 IR Inten    --     32.7745                13.0877                36.5603

                     40                     41                     42
                      A                      A                      A
 Frequencies --    878.6149               885.4541               955.5932
 Red. masses --      1.2510                 1.2541                 1.5377
 Frc consts  --      0.5690                 0.5793                 0.8273
 IR Inten    --      0.0762                 0.4011                 0.1550

                     43                     44                     45
                      A                      A                      A
 Frequencies --    967.0159               993.0716              1011.0313
 Red. masses --      1.4318                 3.9158                 1.3804
 Frc consts  --      0.7888                 2.2752                 0.8314
 IR Inten    --      1.9630                 6.0955                 0.2360

                     46                     47                     48
                      A                      A                      A
 Frequencies --   1015.9773              1020.1652              1026.2327
 Red. masses --      1.1938                 1.3444                 2.9617
 Frc consts  --      0.7260                 0.8244                 1.8377
 IR Inten    --     20.7223                 8.7896                 0.0413

                     49                     50                     51
                      A                      A                      A
 Frequencies --   1026.5492              1026.8182              1035.4260
 Red. masses --      2.5454                 2.6081                 1.3046
 Frc consts  --      1.5804                 1.6202                 0.8241
 IR Inten    --      0.0974                 0.2520                 6.2611

                     52                     53                     54
                      A                      A                      A
 Frequencies --   1055.3109              1058.2948              1068.0677
 Red. masses --      1.4284                 2.0681                 1.9881
 Frc consts  --      0.9373                 1.3647                 1.3363
 IR Inten    --     73.5079                24.8361                 4.2295

                     55                     56                     57
                      A                      A                      A
 Frequencies --   1080.4311              1102.8457              1104.6814
 Red. masses --      3.7693                 3.1366                 1.6897
 Frc consts  --      2.5924                 2.2477                 1.2149
 IR Inten    --     75.4723               149.0767                51.6951

                     58                     59                     60
                      A                      A                      A
 Frequencies --   1127.9469              1179.9400              1181.5597
 Red. masses --      1.6857                 1.1353                 1.5147
 Frc consts  --      1.2636                 0.9313                 1.2459
 IR Inten    --     52.6935                 0.0546                19.7834

                     61                     62                     63
                      A                      A                      A
 Frequencies --   1182.3078              1185.5663              1202.7382
 Red. masses --      1.9961                 1.2113                 1.1245
 Frc consts  --      1.6440                 1.0031                 0.9584
 IR Inten    --     37.8938                 6.4230                 3.4351

                     64                     65                     66
                      A                      A                      A
 Frequencies --   1207.1777              1217.1827              1223.6350
 Red. masses --      1.4051                 1.5851                 1.1642
 Frc consts  --      1.2064                 1.3836                 1.0270
 IR Inten    --    164.1919               129.1606                 1.7761

                     67                     68                     69
                      A                      A                      A
 Frequencies --   1237.4053              1248.6623              1291.4050
 Red. masses --      1.3195                 1.4791                 4.0303
 Frc consts  --      1.1904                 1.3587                 3.9602
 IR Inten    --     93.5114                 8.2797               735.3267

                     70                     71                     72
                      A                      A                      A
 Frequencies --   1305.0370              1330.7233              1346.8494
 Red. masses --      4.3801                 4.8655                 1.3098
 Frc consts  --      4.3952                 5.0764                 1.3999
 IR Inten    --      5.8476               108.7299                 6.2649

                     73                     74                     75
                      A                      A                      A
 Frequencies --   1352.5630              1379.1018              1394.8547
 Red. masses --      1.4728                 1.3960                 3.1765
 Frc consts  --      1.5875                 1.5643                 3.6412
 IR Inten    --      0.1915                46.2578                30.8992

                     76                     77                     78
                      A                      A                      A
 Frequencies --   1437.6596              1456.7192              1479.7393
 Red. masses --      1.8404                 1.5516                 1.1798
 Frc consts  --      2.2412                 1.9399                 1.5221
 IR Inten    --    338.8616               129.8869                89.4948

                     79                     80                     81
                      A                      A                      A
 Frequencies --   1483.1257              1485.4779              1488.3850
 Red. masses --      1.0805                 2.1483                 1.0476
 Frc consts  --      1.4003                 2.7931                 1.3673
 IR Inten    --     26.8702                11.0805                18.2560

                     82                     83                     84
                      A                      A                      A
 Frequencies --   1498.0574              1500.3354              1503.7641
 Red. masses --      1.1121                 1.0698                 2.0520
 Frc consts  --      1.4704                 1.4189                 2.7340
 IR Inten    --      7.2281                24.3572                56.6911

                     85                     86                     87
                      A                      A                      A
 Frequencies --   1544.5188              1552.5934              1642.6091
 Red. masses --      2.5341                 2.3456                 2.4001
 Frc consts  --      3.5617                 3.3313                 3.8154
 IR Inten    --     16.4857                 1.8462                38.2831

                     88                     89                     90
                      A                      A                      A
 Frequencies --   1642.6473              1652.8354              1666.3639
 Red. masses --      1.4933                 5.8357                 8.7398
 Frc consts  --      2.3741                 9.3930                14.2985
 IR Inten    --     49.4686               150.2343               710.4859

                     91                     92                     93
                      A                      A                      A
 Frequencies --   1672.4877              1679.5263              3052.6769
 Red. masses --      6.4329                 5.6831                 1.0311
 Frc consts  --     10.6018                 9.4451                 5.6615
 IR Inten    --    110.7287                 9.6224                83.5542

                     94                     95                     96
                      A                      A                      A
 Frequencies --   3073.3273              3123.4800              3151.6167
 Red. masses --      1.0334                 1.1061                 1.1047
 Frc consts  --      5.7506                 6.3581                 6.4651
 IR Inten    --     38.6234                49.2846                 6.8793

                     97                     98                     99
                      A                      A                      A
 Frequencies --   3158.8128              3162.4316              3178.6591
 Red. masses --      1.1045                 1.0884                 1.1056
 Frc consts  --      6.4933                 6.4131                 6.5814
 IR Inten    --     32.0981                 9.7246                10.4426

                    100                    101                    102
                      A                      A                      A
 Frequencies --   3182.5339              3186.8114              3191.6185
 Red. masses --      1.0869                 1.0872                 1.0871
 Frc consts  --      6.4859                 6.5056                 6.5245
 IR Inten    --     13.0461                 3.3525                 6.1219

                    103                    104                    105
                      A                      A                      A
 Frequencies --   3197.2329              3198.4393              3204.3725
 Red. masses --      1.0910                 1.0877                 1.0950
 Frc consts  --      6.5706                 6.5557                 6.6242
 IR Inten    --     14.1256                 0.8156                55.8697

                    106                    107                    108
                      A                      A                      A
 Frequencies --   3207.0579              3215.2118              3216.3666
 Red. masses --      1.0913                 1.0946                 1.0987
 Frc consts  --      6.6130                 6.6670                 6.6968
 IR Inten    --     16.6570                37.4236                20.0242

                    109                    110                    111
                      A                      A                      A
 Frequencies --   3223.6159              3517.9664              3598.0609
 Red. masses --      1.0987                 1.0510                 1.0960
 Frc consts  --      6.7269                 7.6638                 8.3596
 IR Inten    --     13.7766                37.7880                44.4764

 - Thermochemistry -
 -------------------
 Temperature   298.150 Kelvin.  Pressure   1.00000 Atm.
 Atom     1 has atomic number  6 and mass  12.00000

 Molecular mass:   269.14158 amu.
 Principal axes and moments of inertia in atomic units:
                           1         2         3
     Eigenvalues --  4339.116086230.801008198.96258
           X            0.99994   0.01057  -0.00335
           Y           -0.01062   0.99984  -0.01449
           Z            0.00320   0.01452   0.99989
 This molecule is an asymmetric top.
 Rotational symmetry number  1.
 Warning -- assumption of classical behavior for rotation
           may cause significant error
 Rotational temperatures (Kelvin)      0.01996     0.01390     0.01056
 Rotational constants (GHZ):           0.41592     0.28965     0.22012
    1 imaginary frequencies ignored.
 Zero-point vibrational energy     859688.8 (Joules/Mol)
                                  205.47057 (Kcal/Mol)
 Warning -- explicit consideration of  26 degrees of freedom as
           vibrations may cause significant error
 Vibrational temperatures:     35.48    53.09    64.72    81.64    98.08
          (Kelvin)            126.64   136.27   139.12   166.59   200.14
                              255.37   277.28   283.69   345.44   372.94
                              386.05   420.39   463.90   523.06   595.79
                              608.89   613.69   712.13   750.51   819.26
                              873.46   893.50   919.85   920.94   978.26
                             1047.25  1053.87  1080.99  1119.03  1146.81
                             1156.42  1201.43  1228.55  1264.13  1273.97
                             1374.89  1391.32  1428.81  1454.65  1461.76
                             1467.79  1476.52  1476.98  1477.36  1489.75
                             1518.36  1522.65  1536.71  1554.50  1586.75
                             1589.39  1622.86  1697.67  1700.00  1701.08
                             1705.77  1730.47  1736.86  1751.25  1760.54
                             1780.35  1796.55  1858.04  1877.66  1914.61
                             1937.82  1946.04  1984.22  2006.88  2068.47
                             2095.89  2129.01  2133.89  2137.27  2141.45
                             2155.37  2158.65  2163.58  2222.22  2233.84
                             2363.35  2363.40  2378.06  2397.53  2406.34
                             2416.46  4392.12  4421.83  4493.99  4534.47
                             4544.83  4550.03  4573.38  4578.96  4585.11
                             4592.03  4600.11  4601.84  4610.38  4614.24
                             4625.97  4627.63  4638.06  5061.57  5176.81

 Zero-point correction=                           0.327438 (Hartree/Particle)
 Thermal correction to Energy=                    0.346255
 Thermal correction to Enthalpy=                  0.347199
 Thermal correction to Gibbs Free Energy=         0.278357
 Sum of electronic and zero-point Energies=           -864.129414
 Sum of electronic and thermal Energies=              -864.110597
 Sum of electronic and thermal Enthalpies=            -864.109653
 Sum of electronic and thermal Free Energies=         -864.178495

                     E (Thermal)             CV                S
                      KCal/Mol        Cal/Mol-Kelvin    Cal/Mol-Kelvin
 Total                  217.278             70.103            144.891
 Electronic               0.000              0.000              0.000
 Translational            0.889              2.981             42.669
 Rotational               0.889              2.981             33.760
 Vibrational            215.501             64.141             68.462
 Vibration     1          0.593              1.985              6.218
 Vibration     2          0.594              1.982              5.419
 Vibration     3          0.595              1.979              5.027
 Vibration     4          0.596              1.975              4.567
 Vibration     5          0.598              1.969              4.206
 Vibration     6          0.601              1.958              3.704
 Vibration     7          0.603              1.953              3.560
 Vibration     8          0.603              1.952              3.520
 Vibration     9          0.608              1.936              3.170
 Vibration    10          0.615              1.914              2.816
 Vibration    11          0.628              1.870              2.355
 Vibration    12          0.635              1.850              2.202
 Vibration    13          0.637              1.844              2.159
 Vibration    14          0.657              1.779              1.802
 Vibration    15          0.668              1.747              1.667
 Vibration    16          0.673              1.731              1.607
 Vibration    17          0.688              1.688              1.461
 Vibration    18          0.707              1.631              1.298
 Vibration    19          0.737              1.547              1.107
 Vibration    20          0.778              1.440              0.912
 Vibration    21          0.785              1.420              0.881
 Vibration    22          0.788              1.412              0.870
 Vibration    23          0.851              1.261              0.671
 Vibration    24          0.877              1.202              0.606
 Vibration    25          0.925              1.097              0.505
 Vibration    26          0.966              1.017              0.438

 Optimization completed.
    -- Stationary point found.
 Normal termination of Gaussian 16 at Mon Feb  1 02:24:32 2021.
