 Gaussian 16, Revision A.03,
 Gaussian 16:  ES64L-G16RevA.03 25-Dec-2016

 ----------------------------------------------------------------------
 # wB97XD def2tzvp, opt=(ts, noeigen, calcfc, maxcycles=70, maxstep=5),
  freq=noraman, scrf=(iefpcm, solvent=water)
 ----------------------------------------------------------------------

 ------------------------
 2_iteration/TS-410-2.out
 ------------------------
 Symbolic Z-matrix:
 Charge =  0 Multiplicity = 1

 SCF Done:  E(RwB97XD) =  -597.475208985     A.U. after   15 cycles
 SCF Done:  E(RwB97XD) =  -597.475209032     A.U. after    6 cycles
 Optimization completed.
    -- Stationary point found.
 Normal termination of Gaussian 16 at Tue Mar 30 09:43:52 2021.

 ---------------------------------------------------------------------
 #N Geom=AllCheck Guess=TCheck SCRF=Check GenChk RwB97XD/def2TZVP Freq
 ---------------------------------------------------------------------

 Structure from the checkpoint file:  "/beegfs/scratch/user/q/tla25/Gau-24917.chk"
 ------------------------
 2_iteration/TS-410-2.out
 ------------------------
 Charge =  0 Multiplicity = 1

                         Standard orientation:
 ---------------------------------------------------------------------
 Center     Atomic      Atomic             Coordinates (Angstroms)
 Number     Number       Type             X           Y           Z
 ---------------------------------------------------------------------
      1          6           0       -1.458921   -0.096904   -0.923459
      2          6           0       -1.952303   -1.266395   -0.299573
      3          8           0       -1.576029   -1.711113    0.802478
      4          6           0       -0.375627    0.717834   -0.538044
      5          6           0       -2.127211    2.016016    1.387621
      6          1           0       -2.581953    1.972279    2.378462
      7          1           0       -2.004661    3.058156    1.099825
      8          1           0       -2.796799    1.526018    0.674839
      9          7           0       -0.843870    1.337678    1.339861
     10          1           0       -0.096036    1.868999    1.766977
     11          1           0       -0.898257    0.426784    1.780901
     12          6           0       -0.369394    2.065312   -1.226708
     13          1           0       -0.086895    1.949248   -2.274431
     14          1           0       -1.368823    2.495667   -1.207249
     15          1           0        0.324821    2.761537   -0.759017
     16          6           0        0.991521    0.171562   -0.211503
     17          6           0        1.226226   -0.818925    0.744998
     18          6           0        2.505583   -1.298222    0.979755
     19          6           0        3.586856   -0.810386    0.261739
     20          6           0        3.371425    0.167874   -0.695283
     21          6           0        2.093251    0.655789   -0.922312
     22          1           0        0.390947   -1.232420    1.289327
     23          1           0        2.654737   -2.063113    1.731932
     24          1           0        4.584763   -1.187670    0.446236
     25          1           0        4.200546    0.561456   -1.269891
     26          1           0        1.965968    1.418486   -1.677015
     27          1           0       -2.110203    0.332076   -1.676463
     28          6           0       -3.085537   -1.996795   -0.996853
     29          1           0       -3.389899   -1.525555   -1.930350
     30          1           0       -2.762523   -3.018529   -1.207761
     31          1           0       -3.945635   -2.058825   -0.327442
 ---------------------------------------------------------------------

 SCF Done:  E(RwB97XD) =  -597.475209032     A.U. after    1 cycles

 The electronic state is 1-A.
 Alpha  occ. eigenvalues --  -19.19927 -14.46444 -10.35194 -10.34477 -10.30965
 Alpha  occ. eigenvalues --  -10.30430 -10.29035 -10.28912 -10.28855 -10.28778
 Alpha  occ. eigenvalues --  -10.28285 -10.28038 -10.26708 -10.24679  -1.10289
 Alpha  occ. eigenvalues --   -1.02291  -0.96906  -0.91304  -0.85010  -0.84837
 Alpha  occ. eigenvalues --   -0.82983  -0.78527  -0.77869  -0.72014  -0.70091
 Alpha  occ. eigenvalues --   -0.66580  -0.62377  -0.61954  -0.58885  -0.56402
 Alpha  occ. eigenvalues --   -0.55558  -0.54523  -0.53892  -0.53436  -0.51861
 Alpha  occ. eigenvalues --   -0.51287  -0.50320  -0.49488  -0.48177  -0.47634
 Alpha  occ. eigenvalues --   -0.46887  -0.46090  -0.45638  -0.45232  -0.42934
 Alpha  occ. eigenvalues --   -0.42452  -0.41466  -0.39524  -0.33669  -0.33151
 Alpha  occ. eigenvalues --   -0.31513  -0.27681
 Alpha virt. eigenvalues --    0.02017   0.05441   0.07186   0.10547   0.12927
 Alpha virt. eigenvalues --    0.13143   0.14034   0.14377   0.15861   0.16474
 Alpha virt. eigenvalues --    0.16996   0.17308   0.18689   0.19082   0.19876

 Mulliken charges:
               1
     1  C   -0.557338
     2  C    0.376516
     3  O   -0.573617
     4  C    0.309963
     5  C   -0.303527
     6  H    0.149425
     7  H    0.157777
     8  H    0.142762
     9  N   -0.365370
    10  H    0.275692
    11  H    0.268023
    12  C   -0.442533
    13  H    0.160467
    14  H    0.156323
    15  H    0.162314
    16  C    0.162754
    17  C   -0.263984
    18  C   -0.166155
    19  C   -0.148476
    20  C   -0.154093
    21  C   -0.232190
    22  H    0.168423
    23  H    0.139306
    24  H    0.142264
    25  H    0.141455
    26  H    0.154545
    27  H    0.134040
    28  C   -0.375760
    29  H    0.122724
    30  H    0.130705
    31  H    0.127567
 Sum of Mulliken charges =  -0.00000

 Dipole moment (field-independent basis, Debye):
    X=              0.8056    Y=              6.5927    Z=              0.6466  Tot=              6.6731
 Quadrupole moment (field-independent basis, Debye-Ang):
   XX=            -79.1025   YY=            -83.1949   ZZ=            -81.1591
   XY=             -7.3287   XZ=              0.6148   YZ=              3.3969

  Exact polarizability: 250.824  11.459 215.208   0.934 -16.061 195.545
 Approx polarizability: 189.167   5.197 171.628  -0.687 -18.569 167.775

 ******    1 imaginary frequencies (negative Signs) ******

                      1                      2                      3
                      A                      A                      A
 Frequencies --   -363.7630                25.1632                61.4568
 Red. masses --      4.8171                 3.7135                 2.0852
 Frc consts  --      0.3756                 0.0014                 0.0046
 IR Inten    --    614.0528                 2.4111                 1.2888

                      4                      5                      6
                      A                      A                      A
 Frequencies --     67.5250                77.4915                91.3583
 Red. masses --      3.0310                 1.4886                 2.5929
 Frc consts  --      0.0081                 0.0053                 0.0128
 IR Inten    --     14.4846                10.8397                17.2202

                      7                      8                      9
                      A                      A                      A
 Frequencies --    117.6965               171.9817               198.5529
 Red. masses --      2.7704                 4.5523                 1.8261
 Frc consts  --      0.0226                 0.0793                 0.0424
 IR Inten    --      8.0506                10.8757                 2.0701

                     10                     11                     12
                      A                      A                      A
 Frequencies --    216.6375               242.5125               277.5454
 Red. masses --      1.8198                 2.6518                 3.5627
 Frc consts  --      0.0503                 0.0919                 0.1617
 IR Inten    --      4.6440                 1.2590                26.2429

                     13                     14                     15
                      A                      A                      A
 Frequencies --    284.8640               316.6826               333.2098
 Red. masses --      2.6880                 1.3011                 2.5722
 Frc consts  --      0.1285                 0.0769                 0.1683
 IR Inten    --      4.4075                 5.3174                 3.7121

                     16                     17                     18
                      A                      A                      A
 Frequencies --    348.6238               424.4480               427.3216
 Red. masses --      3.0124                 2.9347                 2.8762
 Frc consts  --      0.2157                 0.3115                 0.3094
 IR Inten    --      2.2423                 0.7705                16.6147

                     19                     20                     21
                      A                      A                      A
 Frequencies --    469.4914               557.6225               565.0938
 Red. masses --      3.6047                 3.0729                 2.6693
 Frc consts  --      0.4681                 0.5630                 0.5022
 IR Inten    --      9.3608                25.8082               109.0688

                     22                     23                     24
                      A                      A                      A
 Frequencies --    596.6221               640.2723               647.4448
 Red. masses --      1.8508                 6.2402                 2.8995
 Frc consts  --      0.3882                 1.5072                 0.7161
 IR Inten    --     41.9095                 1.2537                30.9583

                     25                     26                     27
                      A                      A                      A
 Frequencies --    671.7676               727.2020               732.4395
 Red. masses --      2.4268                 1.6303                 1.4010
 Frc consts  --      0.6453                 0.5080                 0.4428
 IR Inten    --      3.4688                99.6487               129.5593

                     28                     29                     30
                      A                      A                      A
 Frequencies --    773.1326               801.2668               882.1850
 Red. masses --      3.5816                 2.0789                 1.2461
 Frc consts  --      1.2613                 0.7864                 0.5714
 IR Inten    --     22.8827                14.9908                 3.1586

                     31                     32                     33
                      A                      A                      A
 Frequencies --    935.3196               967.5332               968.7973
 Red. masses --      3.2073                 1.4230                 1.1167
 Frc consts  --      1.6532                 0.7848                 0.6175
 IR Inten    --     26.0557                 5.0735               133.4063

                     34                     35                     36
                      A                      A                      A
 Frequencies --    985.0064              1017.4680              1022.5258
 Red. masses --      1.9324                 1.3951                 1.3336
 Frc consts  --      1.1047                 0.8509                 0.8215
 IR Inten    --     22.1661                11.0156                84.6914

                     37                     38                     39
                      A                      A                      A
 Frequencies --   1026.2332              1034.9632              1039.7806
 Red. masses --      3.3734                 1.4246                 1.5330
 Frc consts  --      2.0932                 0.8991                 0.9765
 IR Inten    --      4.0104                11.2142                32.0155

                     40                     41                     42
                      A                      A                      A
 Frequencies --   1049.0724              1054.6721              1066.6310
 Red. masses --      1.6886                 1.7969                 2.3154
 Frc consts  --      1.0950                 1.1776                 1.5521
 IR Inten    --     19.9736                24.6843                14.7262

                     43                     44                     45
                      A                      A                      A
 Frequencies --   1096.2018              1116.2169              1126.0713
 Red. masses --      3.4163                 2.0419                 1.6839
 Frc consts  --      2.4187                 1.4989                 1.2581
 IR Inten    --     16.8984                12.0687                26.2019

                     46                     47                     48
                      A                      A                      A
 Frequencies --   1186.3102              1190.2448              1224.6690
 Red. masses --      1.1568                 1.3712                 2.0613
 Frc consts  --      0.9592                 1.1445                 1.8215
 IR Inten    --      2.6223                19.2055                85.5871

                     49                     50                     51
                      A                      A                      A
 Frequencies --   1229.2039              1254.9073              1323.0130
 Red. masses --      1.1922                 2.8500                 5.3422
 Frc consts  --      1.0614                 2.6444                 5.5093
 IR Inten    --     12.5668                77.1821                29.9911

                     52                     53                     54
                      A                      A                      A
 Frequencies --   1349.6754              1374.2814              1379.1765
 Red. masses --      1.3554                 1.6034                 1.7932
 Frc consts  --      1.4547                 1.7842                 2.0097
 IR Inten    --     21.1968                55.3397                81.1481

                     55                     56                     57
                      A                      A                      A
 Frequencies --   1387.8364              1413.3296              1447.3715
 Red. masses --      1.2925                 1.2497                 1.1833
 Frc consts  --      1.4667                 1.4708                 1.4605
 IR Inten    --     95.4380                12.4429                17.4594

                     58                     59                     60
                      A                      A                      A
 Frequencies --   1461.6063              1469.8254              1485.4887
 Red. masses --      1.2305                 1.0542                 1.9789
 Frc consts  --      1.5487                 1.3419                 2.5728
 IR Inten    --    203.3275                16.0039                87.8638

                     61                     62                     63
                      A                      A                      A
 Frequencies --   1489.5186              1494.8838              1504.6696
 Red. masses --      1.0510                 1.1103                 1.0627
 Frc consts  --      1.3739                 1.4619                 1.4176
 IR Inten    --     21.2482                53.7164                 7.9852

                     64                     65                     66
                      A                      A                      A
 Frequencies --   1507.0978              1518.0696              1546.2984
 Red. masses --      1.0543                 2.4900                 2.1764
 Frc consts  --      1.4109                 3.3810                 3.0661
 IR Inten    --     60.9826               695.9577                34.0235

                     67                     68                     69
                      A                      A                      A
 Frequencies --   1618.5655              1642.6934              1648.7970
 Red. masses --      4.1266                 1.2609                 4.8657
 Frc consts  --      6.3694                 2.0047                 7.7935
 IR Inten    --    381.9074                35.9826                15.5583

                     70                     71                     72
                      A                      A                      A
 Frequencies --   1675.0338              3042.0380              3054.6772
 Red. masses --      5.7312                 1.0377                 1.0361
 Frc consts  --      9.4742                 5.6580                 5.6959
 IR Inten    --      3.2881                52.3224                25.9515

                     73                     74                     75
                      A                      A                      A
 Frequencies --   3069.1836              3110.8523              3125.0374
 Red. masses --      1.0376                 1.1009                 1.1007
 Frc consts  --      5.7587                 6.2773                 6.3333
 IR Inten    --     11.1520                21.4896                19.6331

                     76                     77                     78
                      A                      A                      A
 Frequencies --   3141.2456              3149.0074              3156.6851
 Red. masses --      1.0996                 1.1031                 1.1032
 Frc consts  --      6.3926                 6.4446                 6.4768
 IR Inten    --     16.5929                26.7031                25.0503

                     79                     80                     81
                      A                      A                      A
 Frequencies --   3162.3157              3177.1047              3193.7532
 Red. masses --      1.1039                 1.0876                 1.0862
 Frc consts  --      6.5039                 6.4679                 6.5277
 IR Inten    --     18.5204                28.5536                 0.6536

                     82                     83                     84
                      A                      A                      A
 Frequencies --   3202.7812              3216.7786              3233.4643
 Red. masses --      1.0908                 1.0962                 1.0929
 Frc consts  --      6.5923                 6.6829                 6.7321
 IR Inten    --     22.1588                26.9892                13.4684

                     85                     86                     87
                      A                      A                      A
 Frequencies --   3243.5194              3523.9362              3616.0367
 Red. masses --      1.0928                 1.0510                 1.0961
 Frc consts  --      6.7737                 7.6897                 8.4444
 IR Inten    --     33.3233                19.5163                66.5638

 - Thermochemistry -
 -------------------
 Temperature   298.150 Kelvin.  Pressure   1.00000 Atm.
 Atom     1 has atomic number  6 and mass  12.00000

 Molecular mass:   191.13101 amu.
 Principal axes and moments of inertia in atomic units:
                           1         2         3
     Eigenvalues --  1881.834723676.442084291.70771
           X            0.99995  -0.00863   0.00417
           Y            0.00860   0.99993   0.00837
           Z           -0.00424  -0.00833   0.99996
 This molecule is an asymmetric top.
 Rotational symmetry number  1.
 Warning -- assumption of classical behavior for rotation
           may cause significant error
 Rotational temperatures (Kelvin)      0.04603     0.02356     0.02018
 Rotational constants (GHZ):           0.95903     0.49089     0.42052
    1 imaginary frequencies ignored.
 Zero-point vibrational energy     702776.7 (Joules/Mol)
                                  167.96766 (Kcal/Mol)
 Warning -- explicit consideration of  21 degrees of freedom as
           vibrations may cause significant error
 Vibrational temperatures:     36.20    88.42    97.15   111.49   131.44
          (Kelvin)            169.34   247.44   285.67   311.69   348.92
                              399.33   409.86   455.64   479.41   501.59
                              610.69   614.82   675.49   802.29   813.04
                              858.41   921.21   931.53   966.52  1046.28
                             1053.82  1112.37  1152.84  1269.27  1345.72
                             1392.06  1393.88  1417.20  1463.91  1471.19
                             1476.52  1489.08  1496.01  1509.38  1517.44
                             1534.64  1577.19  1605.99  1620.17  1706.84
                             1712.50  1762.03  1768.55  1805.53  1903.52
                             1941.88  1977.28  1984.33  1996.79  2033.47
                             2082.44  2102.93  2114.75  2137.29  2143.09
                             2150.80  2164.88  2168.38  2184.16  2224.78
                             2328.75  2363.47  2372.25  2410.00  4376.81
                             4395.00  4415.87  4475.82  4496.23  4519.55
                             4530.72  4541.77  4549.87  4571.15  4595.10
                             4608.09  4628.23  4652.23  4666.70  5070.16
                             5202.67

 Zero-point correction=                           0.267674 (Hartree/Particle)
 Thermal correction to Energy=                    0.282322
 Thermal correction to Enthalpy=                  0.283266
 Thermal correction to Gibbs Free Energy=         0.225297
 Sum of electronic and zero-point Energies=           -597.207536
 Sum of electronic and thermal Energies=              -597.192887
 Sum of electronic and thermal Enthalpies=            -597.191943
 Sum of electronic and thermal Free Energies=         -597.249912

                     E (Thermal)             CV                S
                      KCal/Mol        Cal/Mol-Kelvin    Cal/Mol-Kelvin
 Total                  177.160             54.699            122.005
 Electronic               0.000              0.000              0.000
 Translational            0.889              2.981             41.649
 Rotational               0.889              2.981             31.763
 Vibrational            175.382             48.737             48.593
 Vibration     1          0.593              1.985              6.178
 Vibration     2          0.597              1.973              4.410
 Vibration     3          0.598              1.970              4.224
 Vibration     4          0.599              1.964              3.953
 Vibration     5          0.602              1.955              3.631
 Vibration     6          0.608              1.935              3.138
 Vibration     7          0.626              1.877              2.414
 Vibration     8          0.637              1.842              2.146
 Vibration     9          0.645              1.816              1.987
 Vibration    10          0.659              1.775              1.784
 Vibration    11          0.679              1.715              1.549
 Vibration    12          0.683              1.702              1.504
 Vibration    13          0.704              1.642              1.327
 Vibration    14          0.715              1.609              1.244
 Vibration    15          0.726              1.578              1.172
 Vibration    16          0.786              1.417              0.877
 Vibration    17          0.789              1.411              0.867
 Vibration    18          0.827              1.318              0.739
 Vibration    19          0.913              1.123              0.529
 Vibration    20          0.921              1.107              0.514
 Vibration    21          0.954              1.039              0.456

 Optimization completed.
    -- Stationary point found.
 Normal termination of Gaussian 16 at Tue Mar 30 10:41:53 2021.
