 Gaussian 16, Revision A.03,
 Gaussian 16:  ES64L-G16RevA.03 25-Dec-2016

 ----------------------------------------------------------------------
 # wB97XD def2tzvp, opt=(ts, noeigen, calcfc, maxcycles=70, maxstep=5),
  freq=noraman, scrf=(iefpcm, solvent=water)
 ----------------------------------------------------------------------

 ------------------------
 2_iteration/TS-448-2.out
 ------------------------
 Symbolic Z-matrix:
 Charge =  0 Multiplicity = 1

 SCF Done:  E(RwB97XD) =  -789.220304469     A.U. after   15 cycles
 SCF Done:  E(RwB97XD) =  -789.220304474     A.U. after    5 cycles
 Optimization completed.
    -- Stationary point found.
 Normal termination of Gaussian 16 at Sun Feb 14 15:39:04 2021.

 ---------------------------------------------------------------------
 #N Geom=AllCheck Guess=TCheck SCRF=Check GenChk RwB97XD/def2TZVP Freq
 ---------------------------------------------------------------------

 Structure from the checkpoint file:  "/beegfs/scratch/user/q/tla25/Gau-62846.chk"
 ------------------------
 2_iteration/TS-448-2.out
 ------------------------
 Charge =  0 Multiplicity = 1

                         Standard orientation:
 ---------------------------------------------------------------------
 Center     Atomic      Atomic             Coordinates (Angstroms)
 Number     Number       Type             X           Y           Z
 ---------------------------------------------------------------------
      1          6           0        0.872205   -0.215502   -0.509838
      2          6           0        0.025424   -1.363379   -0.401065
      3          8           0        0.463773   -2.529211   -0.407826
      4          6           0        2.209696   -0.472980   -0.823493
      5          6           0        4.341253   -1.877747    0.768361
      6          1           0        4.425272   -2.477830   -0.138373
      7          1           0        5.078606   -1.078035    0.723924
      8          1           0        4.566031   -2.512525    1.628395
      9          7           0        3.004074   -1.304506    0.833567
     10          1           0        2.288176   -2.015375    0.936432
     11          1           0        2.904467   -0.626833    1.578122
     12          6           0        3.216838    0.596864   -1.104687
     13          1           0        3.030399    1.011080   -2.098023
     14          1           0        3.156363    1.414115   -0.386593
     15          1           0        4.227614    0.192197   -1.105534
     16          1           0        2.384002   -1.408793   -1.342294
     17          6           0        0.421045    1.128787   -0.065587
     18          6           0       -0.071428    1.322178    1.226815
     19          6           0       -0.509394    2.566778    1.653963
     20          6           0       -0.452195    3.657187    0.797441
     21          6           0        0.043700    3.487336   -0.487866
     22          6           0        0.470251    2.237780   -0.911750
     23          1           0       -0.115734    0.477411    1.904532
     24          1           0       -0.891589    2.686414    2.660430
     25          1           0       -0.791711    4.630735    1.128111
     26          1           0        0.089112    4.329713   -1.167337
     27          1           0        0.831762    2.112891   -1.925267
     28          6           0       -1.462492   -1.185460   -0.266354
     29          6           0       -2.167228   -0.279409   -1.053599
     30          6           0       -3.544885   -0.171191   -0.940129
     31          6           0       -4.231582   -0.955310   -0.023225
     32          6           0       -3.535919   -1.860821    0.766523
     33          6           0       -2.161167   -1.982578    0.635194
     34          1           0       -1.634278    0.340606   -1.763111
     35          1           0       -4.083623    0.528536   -1.566799
     36          1           0       -5.306131   -0.863155    0.073403
     37          1           0       -4.066571   -2.474981    1.483387
     38          1           0       -1.615599   -2.696130    1.239991
 ---------------------------------------------------------------------

 SCF Done:  E(RwB97XD) =  -789.220304474     A.U. after    2 cycles

 The electronic state is 1-A.
 Alpha  occ. eigenvalues --  -19.20669 -14.46025 -10.35125 -10.33216 -10.31173
 Alpha  occ. eigenvalues --  -10.29448 -10.29302 -10.29044 -10.28990 -10.28944
 Alpha  occ. eigenvalues --  -10.28906 -10.28881 -10.28612 -10.28592 -10.28470
 Alpha  occ. eigenvalues --  -10.28262 -10.28249 -10.27924 -10.25811  -1.11158
 Alpha  occ. eigenvalues --   -1.01794  -0.96696  -0.96151  -0.90773  -0.86423
 Alpha  occ. eigenvalues --   -0.85050  -0.84655  -0.84459  -0.80076  -0.77885
 Alpha  occ. eigenvalues --   -0.72933  -0.70365  -0.70040  -0.69783  -0.66913
 Alpha  occ. eigenvalues --   -0.63223  -0.61663  -0.61200  -0.58470  -0.56516
 Alpha  occ. eigenvalues --   -0.55802  -0.54921  -0.54482  -0.53539  -0.53093
 Alpha  occ. eigenvalues --   -0.52585  -0.52003  -0.50909  -0.50421  -0.49206
 Alpha  occ. eigenvalues --   -0.49005  -0.48185  -0.47473  -0.46158  -0.46002
 Alpha  occ. eigenvalues --   -0.45736  -0.44770  -0.43546  -0.42434  -0.42226
 Alpha  occ. eigenvalues --   -0.41429  -0.39359  -0.34693  -0.34080  -0.33357
 Alpha  occ. eigenvalues --   -0.33068  -0.31465  -0.26885
 Alpha virt. eigenvalues --    0.02025   0.04601   0.05716   0.05887   0.07589
 Alpha virt. eigenvalues --    0.10190   0.12852   0.13299   0.13685   0.14372
 Alpha virt. eigenvalues --    0.15325   0.15846   0.16279   0.16584   0.17156

 Mulliken charges:
               1
     1  C   -0.152538
     2  C    0.316423
     3  O   -0.537070
     4  C   -0.013496
     5  C   -0.287790
     6  H    0.145967
     7  H    0.150433
     8  H    0.144572
     9  N   -0.373069
    10  H    0.270131
    11  H    0.270461
    12  C   -0.358801
    13  H    0.147347
    14  H    0.145463
    15  H    0.143798
    16  H    0.145633
    17  C    0.134704
    18  C   -0.230849
    19  C   -0.159635
    20  C   -0.147773
    21  C   -0.137544
    22  C   -0.269854
    23  H    0.140091
    24  H    0.136846
    25  H    0.140304
    26  H    0.137800
    27  H    0.144597
    28  C    0.133698
    29  C   -0.224796
    30  C   -0.161046
    31  C   -0.129353
    32  C   -0.151002
    33  C   -0.234402
    34  H    0.159332
    35  H    0.140225
    36  H    0.144048
    37  H    0.140874
    38  H    0.136272
 Sum of Mulliken charges =  -0.00000

 Dipole moment (field-independent basis, Debye):
    X=              5.2594    Y=              2.4465    Z=              2.5370  Tot=              6.3311
 Quadrupole moment (field-independent basis, Debye-Ang):
   XX=            -85.9229   YY=           -119.5703   ZZ=           -105.4869
   XY=             -7.0834   XZ=              1.7832   YZ=             -9.8172

  Exact polarizability: 338.306 -16.833 306.326 -12.997 -29.475 253.417
 Approx polarizability: 247.176 -13.503 247.656 -12.185 -24.682 221.074

 ******    1 imaginary frequencies (negative Signs) ******

                      1                      2                      3
                      A                      A                      A
 Frequencies --   -348.8582                40.9445                42.4747
 Red. masses --      5.8673                 4.7547                 3.8339
 Frc consts  --      0.4207                 0.0047                 0.0041
 IR Inten    --    843.6241                 6.7165                 0.1198

                      4                      5                      6
                      A                      A                      A
 Frequencies --     44.9965                56.8978                63.0375
 Red. masses --      3.7984                 3.6727                 4.0071
 Frc consts  --      0.0045                 0.0070                 0.0094
 IR Inten    --      1.0361                 0.9213                 0.6028

                      7                      8                      9
                      A                      A                      A
 Frequencies --     82.2377               114.6174               124.9084
 Red. masses --      2.2164                 3.7050                 3.2239
 Frc consts  --      0.0088                 0.0287                 0.0296
 IR Inten    --      1.7081                 3.9093                25.7310

                     10                     11                     12
                      A                      A                      A
 Frequencies --    157.7644               171.8999               199.0424
 Red. masses --      2.5280                 1.8298                 3.6803
 Frc consts  --      0.0371                 0.0319                 0.0859
 IR Inten    --      5.8117                 2.5534                 0.8534

                     13                     14                     15
                      A                      A                      A
 Frequencies --    225.9098               249.5918               257.0954
 Red. masses --      2.6739                 1.2481                 3.6435
 Frc consts  --      0.0804                 0.0458                 0.1419
 IR Inten    --      7.5833                 2.9882                24.5830

                     16                     17                     18
                      A                      A                      A
 Frequencies --    274.6218               321.2361               341.2217
 Red. masses --      3.3444                 2.9906                 3.2927
 Frc consts  --      0.1486                 0.1818                 0.2259
 IR Inten    --     22.6466                23.9869                 0.9216

                     19                     20                     21
                      A                      A                      A
 Frequencies --    395.5736               417.3744               421.7120
 Red. masses --      4.8748                 4.3951                 3.0860
 Frc consts  --      0.4494                 0.4511                 0.3234
 IR Inten    --     17.4244                 4.1672                 0.4792

                     22                     23                     24
                      A                      A                      A
 Frequencies --    427.8467               480.9920               528.3467
 Red. masses --      2.9992                 3.3029                 3.8992
 Frc consts  --      0.3235                 0.4502                 0.6413
 IR Inten    --      0.5934                13.0512                40.1577

                     25                     26                     27
                      A                      A                      A
 Frequencies --    543.9417               600.9183               634.8346
 Red. masses --      5.4491                 1.5347                 4.4667
 Frc consts  --      0.9499                 0.3265                 1.0606
 IR Inten    --     34.6000                80.2430                 1.0892

                     28                     29                     30
                      A                      A                      A
 Frequencies --    636.6576               643.9904               674.6463
 Red. masses --      5.2888                 3.1608                 6.0805
 Frc consts  --      1.2630                 0.7723                 1.6306
 IR Inten    --      0.7761                 1.0099                24.8683

                     31                     32                     33
                      A                      A                      A
 Frequencies --    722.6101               725.9090               731.0140
 Red. masses --      2.1343                 2.7750                 1.5332
 Frc consts  --      0.6566                 0.8616                 0.4827
 IR Inten    --     55.6560                39.9595                83.0296

                     34                     35                     36
                      A                      A                      A
 Frequencies --    756.9058               805.3556               829.3391
 Red. masses --      3.0442                 2.2989                 3.3317
 Frc consts  --      1.0276                 0.8785                 1.3502
 IR Inten    --     81.4084                32.1306                55.9912

                     37                     38                     39
                      A                      A                      A
 Frequencies --    878.8393               880.0782               890.3858
 Red. masses --      1.2631                 1.2575                 4.7026
 Frc consts  --      0.5748                 0.5739                 2.1966
 IR Inten    --      1.4343                 0.3776                13.9666

                     40                     41                     42
                      A                      A                      A
 Frequencies --    948.0357               959.0732               967.5303
 Red. masses --      1.4466                 1.4484                 1.4828
 Frc consts  --      0.7660                 0.7849                 0.8178
 IR Inten    --     35.1082                30.0245                34.6612

                     43                     44                     45
                      A                      A                      A
 Frequencies --    990.6736              1012.6589              1013.8182
 Red. masses --      1.3003                 1.2150                 1.3194
 Frc consts  --      0.7519                 0.7341                 0.7990
 IR Inten    --     70.4544                83.2911                24.5666

                     46                     47                     48
                      A                      A                      A
 Frequencies --   1014.2199              1025.3495              1026.2431
 Red. masses --      1.3663                 3.0457                 1.6469
 Frc consts  --      0.8280                 1.8866                 1.0219
 IR Inten    --      3.1122                15.4265                 8.5323

                     49                     50                     51
                      A                      A                      A
 Frequencies --   1026.7070              1028.4965              1029.6905
 Red. masses --      2.8077                 1.7917                 1.3753
 Frc consts  --      1.7438                 1.1166                 0.8592
 IR Inten    --      8.5516                23.6836                11.5808

                     52                     53                     54
                      A                      A                      A
 Frequencies --   1058.7781              1062.9986              1074.6314
 Red. masses --      2.2154                 2.1155                 3.1587
 Frc consts  --      1.4632                 1.4084                 2.1492
 IR Inten    --     28.8164                10.7798               194.7670

                     55                     56                     57
                      A                      A                      A
 Frequencies --   1109.5573              1110.8080              1130.0874
 Red. masses --      1.5609                 1.5669                 2.1687
 Frc consts  --      1.1322                 1.1391                 1.6318
 IR Inten    --      8.6095                24.5436                73.2850

                     58                     59                     60
                      A                      A                      A
 Frequencies --   1142.5764              1170.5684              1180.9524
 Red. masses --      2.6927                 1.4324                 1.1299
 Frc consts  --      2.0712                 1.1564                 0.9284
 IR Inten    --     16.7348                79.4688                 0.1795

                     61                     62                     63
                      A                      A                      A
 Frequencies --   1182.6190              1189.7546              1203.1043
 Red. masses --      1.1354                 1.4144                 1.1242
 Frc consts  --      0.9356                 1.1796                 0.9588
 IR Inten    --      0.4707                29.2039                 3.6507

                     64                     65                     66
                      A                      A                      A
 Frequencies --   1209.8773              1222.9600              1308.2374
 Red. masses --      1.1348                 1.9221                 4.4819
 Frc consts  --      0.9787                 1.6937                 4.5194
 IR Inten    --      0.8545                 7.6789                28.5406

                     67                     68                     69
                      A                      A                      A
 Frequencies --   1322.9180              1341.1298              1348.8684
 Red. masses --      3.7153                 2.9434                 1.3304
 Frc consts  --      3.8310                 3.1192                 1.4262
 IR Inten    --     90.8297               293.5768                13.9914

                     70                     71                     72
                      A                      A                      A
 Frequencies --   1355.3724              1359.7078              1398.4197
 Red. masses --      1.4896                 1.4522                 2.9730
 Frc consts  --      1.6123                 1.5818                 3.4255
 IR Inten    --      7.6586                 0.8729               119.3506

                     73                     74                     75
                      A                      A                      A
 Frequencies --   1408.0038              1447.3075              1467.4678
 Red. masses --      1.4605                 1.7125                 1.3227
 Frc consts  --      1.7059                 2.1134                 1.6782
 IR Inten    --     50.7162               440.2067               129.6612

                     76                     77                     78
                      A                      A                      A
 Frequencies --   1482.3332              1487.1045              1489.3235
 Red. masses --      1.0721                 2.1809                 1.6366
 Frc consts  --      1.3880                 2.8417                 2.1389
 IR Inten    --     20.1049                 5.5218                13.3510

                     79                     80                     81
                      A                      A                      A
 Frequencies --   1492.2828              1499.9401              1512.2057
 Red. masses --      1.1130                 1.4589                 1.0876
 Frc consts  --      1.4603                 1.9339                 1.4654
 IR Inten    --     10.2216               282.1299                20.4455

                     82                     83                     84
                      A                      A                      A
 Frequencies --   1539.4596              1545.7378              1611.3784
 Red. masses --      2.3376                 2.4698                 7.9793
 Frc consts  --      3.2640                 3.4768                12.2071
 IR Inten    --      2.7596                25.1684               539.0034

                     85                     86                     87
                      A                      A                      A
 Frequencies --   1644.0640              1651.5353              1654.9880
 Red. masses --      5.6755                 1.3222                 3.2428
 Frc consts  --      9.0384                 2.1249                 5.2330
 IR Inten    --      8.9477                30.8904                72.1215

                     88                     89                     90
                      A                      A                      A
 Frequencies --   1672.4882              1673.3402              3050.8428
 Red. masses --      5.8897                 5.9227                 1.0365
 Frc consts  --      9.7067                 9.7710                 5.6843
 IR Inten    --      9.4578                 5.1039                86.2099

                     91                     92                     93
                      A                      A                      A
 Frequencies --   3062.8705              3121.1161              3130.3589
 Red. masses --      1.0380                 1.1019                 1.0982
 Frc consts  --      5.7373                 6.3242                 6.3407
 IR Inten    --     15.6108                28.0044                23.2223

                     94                     95                     96
                      A                      A                      A
 Frequencies --   3152.5218              3154.7098              3180.1434
 Red. masses --      1.1036                 1.1026                 1.0910
 Frc consts  --      6.4621                 6.4654                 6.5011
 IR Inten    --     25.8348                14.9701                33.5322

                     97                     98                     99
                      A                      A                      A
 Frequencies --   3185.2845              3190.1870              3192.9523
 Red. masses --      1.0863                 1.0873                 1.0856
 Frc consts  --      6.4939                 6.5200                 6.5211
 IR Inten    --      9.2909                 0.7429                 0.6871

                    100                    101                    102
                      A                      A                      A
 Frequencies --   3199.7455              3200.3452              3206.4396
 Red. masses --      1.0912                 1.0884                 1.0949
 Frc consts  --      6.5822                 6.5681                 6.6324
 IR Inten    --     16.9994                 1.2376                53.0551

                    103                    104                    105
                      A                      A                      A
 Frequencies --   3208.8168              3215.1516              3217.6904
 Red. masses --      1.0917                 1.0948                 1.0987
 Frc consts  --      6.6228                 6.6677                 6.7025
 IR Inten    --     14.7589                37.5056                18.3811

                    106                    107                    108
                      A                      A                      A
 Frequencies --   3221.9545              3523.9521              3615.7658
 Red. masses --      1.0986                 1.0514                 1.0958
 Frc consts  --      6.7196                 7.6927                 8.4405
 IR Inten    --     17.1136                17.3281                51.5036

 - Thermochemistry -
 -------------------
 Temperature   298.150 Kelvin.  Pressure   1.00000 Atm.
 Atom     1 has atomic number  6 and mass  12.00000

 Molecular mass:   253.14666 amu.
 Principal axes and moments of inertia in atomic units:
                           1         2         3
     Eigenvalues --  3871.130765716.030088187.69826
           X            0.99946  -0.03266  -0.00179
           Y            0.03263   0.99930  -0.01823
           Z            0.00238   0.01816   0.99983
 This molecule is an asymmetric top.
 Rotational symmetry number  1.
 Warning -- assumption of classical behavior for rotation
           may cause significant error
 Rotational temperatures (Kelvin)      0.02237     0.01515     0.01058
 Rotational constants (GHZ):           0.46621     0.31573     0.22042
    1 imaginary frequencies ignored.
 Zero-point vibrational energy     844755.0 (Joules/Mol)
                                  201.90128 (Kcal/Mol)
 Warning -- explicit consideration of  25 degrees of freedom as
           vibrations may cause significant error
 Vibrational temperatures:     58.91    61.11    64.74    81.86    90.70
          (Kelvin)            118.32   164.91   179.72   226.99   247.33
                              286.38   325.03   359.11   369.90   395.12
                              462.19   490.94   569.14   600.51   606.75
                              615.58   692.04   760.17   782.61   864.59
                              913.39   916.01   926.56   970.67  1039.67
                             1044.42  1051.77  1089.02  1158.73  1193.23
                             1264.45  1266.24  1281.07  1364.01  1379.89
                             1392.06  1425.36  1456.99  1458.66  1459.24
                             1475.25  1476.53  1477.20  1479.78  1481.50
                             1523.35  1529.42  1546.15  1596.41  1598.20
                             1625.94  1643.91  1684.19  1699.13  1701.52
                             1711.79  1731.00  1740.74  1759.57  1882.26
                             1903.38  1929.59  1940.72  1950.08  1956.32
                             2012.01  2025.80  2082.35  2111.36  2132.75
                             2139.61  2142.80  2147.06  2158.08  2175.73
                             2214.94  2223.97  2318.41  2365.44  2376.19
                             2381.16  2406.34  2407.56  4389.48  4406.79
                             4490.59  4503.89  4535.78  4538.92  4575.52
                             4582.91  4589.97  4593.95  4603.72  4604.58
                             4613.35  4616.77  4625.89  4629.54  4635.67
                             5070.18  5202.28

 Zero-point correction=                           0.321750 (Hartree/Particle)
 Thermal correction to Energy=                    0.339537
 Thermal correction to Enthalpy=                  0.340481
 Thermal correction to Gibbs Free Energy=         0.274692
 Sum of electronic and zero-point Energies=           -788.898554
 Sum of electronic and thermal Energies=              -788.880768
 Sum of electronic and thermal Enthalpies=            -788.879823
 Sum of electronic and thermal Free Energies=         -788.945612

                     E (Thermal)             CV                S
                      KCal/Mol        Cal/Mol-Kelvin    Cal/Mol-Kelvin
 Total                  213.063             67.516            138.465
 Electronic               0.000              0.000              0.000
 Translational            0.889              2.981             42.487
 Rotational               0.889              2.981             33.560
 Vibrational            211.285             61.555             62.418
 Vibration     1          0.594              1.981              5.213
 Vibration     2          0.595              1.980              5.140
 Vibration     3          0.595              1.979              5.026
 Vibration     4          0.596              1.975              4.562
 Vibration     5          0.597              1.972              4.360
 Vibration     6          0.600              1.961              3.837
 Vibration     7          0.608              1.937              3.189
 Vibration     8          0.610              1.928              3.023
 Vibration     9          0.621              1.894              2.576
 Vibration    10          0.626              1.877              2.415
 Vibration    11          0.637              1.841              2.142
 Vibration    12          0.650              1.802              1.911
 Vibration    13          0.662              1.763              1.733
 Vibration    14          0.667              1.751              1.681
 Vibration    15          0.677              1.720              1.567
 Vibration    16          0.707              1.633              1.304
 Vibration    17          0.721              1.593              1.206
 Vibration    18          0.762              1.480              0.979
 Vibration    19          0.780              1.432              0.901
 Vibration    20          0.784              1.423              0.886
 Vibration    21          0.789              1.410              0.866
 Vibration    22          0.837              1.292              0.707
 Vibration    23          0.883              1.187              0.591
 Vibration    24          0.899              1.153              0.557
 Vibration    25          0.959              1.030              0.448

 Optimization completed.
    -- Stationary point found.
 Normal termination of Gaussian 16 at Sun Feb 14 17:51:07 2021.
