 Gaussian 16, Revision A.03,
 Gaussian 16:  ES64L-G16RevA.03 25-Dec-2016

 ----------------------------------------------------------------------
 # wB97XD def2tzvp, opt=(ts, noeigen, calcfc, maxcycles=70, maxstep=1),
  freq=noraman, scrf=(iefpcm, solvent=water)
 ----------------------------------------------------------------------

 ------------------------
 4_iteration/TS-418-4.out
 ------------------------
 Symbolic Z-matrix:
 Charge =  0 Multiplicity = 1

 SCF Done:  E(RwB97XD) =  -636.791049086     A.U. after   15 cycles
 Optimization completed.
    -- Stationary point found.
 Normal termination of Gaussian 16 at Mon Feb 15 02:24:42 2021.

 ---------------------------------------------------------------------
 #N Geom=AllCheck Guess=TCheck SCRF=Check GenChk RwB97XD/def2TZVP Freq
 ---------------------------------------------------------------------

 Structure from the checkpoint file:  "/beegfs/scratch/user/q/tla25/Gau-23275.chk"
 ------------------------
 4_iteration/TS-418-4.out
 ------------------------
 Charge =  0 Multiplicity = 1

                         Standard orientation:
 ---------------------------------------------------------------------
 Center     Atomic      Atomic             Coordinates (Angstroms)
 Number     Number       Type             X           Y           Z
 ---------------------------------------------------------------------
      1          6           0        1.381220   -0.365651    0.587370
      2          6           0        1.521110   -1.244771   -0.515790
      3          8           0        0.834560   -1.149251   -1.560880
      4          6           0        0.331170    0.586489    0.573450
      5          6           0        2.061240    2.155139   -1.118140
      6          1           0        2.380170    2.392879   -2.134570
      7          1           0        2.148060    3.048219   -0.501330
      8          1           0        2.720590    1.381759   -0.721340
      9          7           0        0.697490    1.656439   -1.076380
     10          1           0        0.022510    2.373199   -1.304470
     11          1           0        0.575940    0.852619   -1.691750
     12          6           0        0.367460    1.673609    1.619330
     13          1           0        0.115080    1.240729    2.590600
     14          1           0        1.355790    2.123809    1.699030
     15          1           0       -0.362310    2.452399    1.406480
     16          6           0       -1.080390    0.158029    0.247880
     17          6           0       -2.057520    1.061669   -0.166650
     18          6           0       -3.370210    0.661148   -0.365360
     19          6           0       -3.741380   -0.654212   -0.132540
     20          6           0       -2.786719   -1.558822    0.309090
     21          6           0       -1.475590   -1.154121    0.500630
     22          1           0       -1.809760    2.101629   -0.334920
     23          1           0       -4.104820    1.384078   -0.697200
     24          1           0       -4.766310   -0.968552   -0.283790
     25          1           0       -3.063439   -2.586502    0.509470
     26          1           0       -0.737859   -1.861581    0.854380
     27          6           0        2.448800   -0.288761    1.656540
     28          1           0        2.023410   -0.125631    2.649210
     29          1           0        3.014940   -1.216731    1.711460
     30          1           0        3.177250    0.513880    1.489660
     31          6           0        2.592961   -2.320271   -0.488280
     32          1           0        2.479011   -2.951901   -1.367200
     33          1           0        3.590441   -1.874470   -0.506580
     34          1           0        2.529471   -2.937751    0.409410
 ---------------------------------------------------------------------

 SCF Done:  E(RwB97XD) =  -636.791049086     A.U. after    1 cycles

 The electronic state is 1-A.
 Alpha  occ. eigenvalues --  -19.19390 -14.45991 -10.34640 -10.33788 -10.30795
 Alpha  occ. eigenvalues --  -10.30122 -10.29087 -10.28942 -10.28853 -10.28776
 Alpha  occ. eigenvalues --  -10.28617 -10.27953 -10.26668 -10.26604 -10.24894
 Alpha  occ. eigenvalues --   -1.09683  -1.01968  -0.96905  -0.91654  -0.85998
 Alpha  occ. eigenvalues --   -0.84994  -0.83009  -0.80040  -0.77814  -0.75916
 Alpha  occ. eigenvalues --   -0.70742  -0.70077  -0.66126  -0.62695  -0.61244
 Alpha  occ. eigenvalues --   -0.57805  -0.56417  -0.55509  -0.54621  -0.53557
 Alpha  occ. eigenvalues --   -0.53182  -0.51926  -0.50898  -0.50461  -0.49248
 Alpha  occ. eigenvalues --   -0.48847  -0.48157  -0.47620  -0.46721  -0.46271
 Alpha  occ. eigenvalues --   -0.45011  -0.44770  -0.44331  -0.42425  -0.41769
 Alpha  occ. eigenvalues --   -0.41607  -0.39386  -0.33648  -0.33365  -0.30806
 Alpha  occ. eigenvalues --   -0.26050
 Alpha virt. eigenvalues --    0.02595   0.05536   0.07256   0.10178   0.12185
 Alpha virt. eigenvalues --    0.13540   0.13628   0.15085   0.15431   0.16201
 Alpha virt. eigenvalues --    0.16939   0.17190   0.18016   0.18204   0.18969

 Mulliken charges:
               1
     1  C   -0.355982
     2  C    0.325066
     3  O   -0.583715
     4  C    0.324782
     5  C   -0.304303
     6  H    0.147600
     7  H    0.152354
     8  H    0.148482
     9  N   -0.348772
    10  H    0.259149
    11  H    0.269636
    12  C   -0.402823
    13  H    0.157863
    14  H    0.146820
    15  H    0.145247
    16  C    0.205360
    17  C   -0.271899
    18  C   -0.175417
    19  C   -0.141156
    20  C   -0.153365
    21  C   -0.224557
    22  H    0.149961
    23  H    0.140623
    24  H    0.142593
    25  H    0.139506
    26  H    0.148091
    27  C   -0.405757
    28  H    0.125815
    29  H    0.133754
    30  H    0.123982
    31  C   -0.422988
    32  H    0.121471
    33  H    0.144007
    34  H    0.138572
 Sum of Mulliken charges =  -0.00000

 Dipole moment (field-independent basis, Debye):
    X=              0.4967    Y=              5.5263    Z=              1.6282  Tot=              5.7825
 Quadrupole moment (field-independent basis, Debye-Ang):
   XX=            -83.6682   YY=            -80.6912   ZZ=            -97.1818
   XY=              2.7269   XZ=              1.9381   YZ=             -9.2123

  Exact polarizability: 256.800  -7.669 249.544  11.454  -6.658 191.542
 Approx polarizability: 196.948  -4.236 202.522  10.945  -7.162 164.178

 ******    1 imaginary frequencies (negative Signs) ******

                      1                      2                      3
                      A                      A                      A
 Frequencies --   -381.0777                51.3616                66.7905
 Red. masses --      5.0569                 3.5026                 2.2616
 Frc consts  --      0.4327                 0.0054                 0.0059
 IR Inten    --    499.6097                 1.3374                 1.1476

                      4                      5                      6
                      A                      A                      A
 Frequencies --     77.4778                96.3735               103.4187
 Red. masses --      2.3250                 1.8342                 2.6780
 Frc consts  --      0.0082                 0.0100                 0.0169
 IR Inten    --      1.6962                 1.3929                 8.9576

                      7                      8                      9
                      A                      A                      A
 Frequencies --    128.8188               153.8125               178.4230
 Red. masses --      1.8831                 3.9249                 1.3837
 Frc consts  --      0.0184                 0.0547                 0.0260
 IR Inten    --      9.6916                11.3520                10.6144

                     10                     11                     12
                      A                      A                      A
 Frequencies --    199.2754               210.0676               224.7859
 Red. masses --      1.2889                 2.3757                 2.3700
 Frc consts  --      0.0302                 0.0618                 0.0706
 IR Inten    --      2.6831                 3.2527                19.2836

                     13                     14                     15
                      A                      A                      A
 Frequencies --    267.3204               276.7850               302.3081
 Red. masses --      2.6001                 2.3635                 1.4903
 Frc consts  --      0.1095                 0.1067                 0.0802
 IR Inten    --      1.4947                 7.3168                11.4309

                     16                     17                     18
                      A                      A                      A
 Frequencies --    318.7041               351.3771               364.3924
 Red. masses --      2.6560                 3.6566                 3.1143
 Frc consts  --      0.1589                 0.2660                 0.2436
 IR Inten    --     15.2394                 6.2145                 2.7740

                     19                     20                     21
                      A                      A                      A
 Frequencies --    378.2325               423.7232               429.8763
 Red. masses --      2.5621                 3.3284                 3.3122
 Frc consts  --      0.2160                 0.3521                 0.3606
 IR Inten    --      1.9908                 4.9861                 2.0810

                     22                     23                     24
                      A                      A                      A
 Frequencies --    525.2186               553.2691               574.1700
 Red. masses --      3.1225                 3.6532                 2.8074
 Frc consts  --      0.5075                 0.6589                 0.5453
 IR Inten    --     54.0583                25.6888                38.3469

                     25                     26                     27
                      A                      A                      A
 Frequencies --    602.5875               638.8776               641.0059
 Red. masses --      3.6199                 3.5941                 2.4895
 Frc consts  --      0.7744                 0.8643                 0.6027
 IR Inten    --     30.3829                21.3750                58.1730

                     28                     29                     30
                      A                      A                      A
 Frequencies --    695.4155               702.7158               727.0077
 Red. masses --      2.9443                 2.5074                 1.6286
 Frc consts  --      0.8389                 0.7295                 0.5072
 IR Inten    --     25.3623                37.0143                72.0031

                     31                     32                     33
                      A                      A                      A
 Frequencies --    793.8809               821.7712               878.0359
 Red. masses --      2.0050                 3.0758                 1.2448
 Frc consts  --      0.7445                 1.2238                 0.5654
 IR Inten    --     55.6142                 3.0400                 0.6043

                     34                     35                     36
                      A                      A                      A
 Frequencies --    951.4518               962.1046               989.5522
 Red. masses --      1.8131                 1.7102                 1.3593
 Frc consts  --      0.9671                 0.9327                 0.7842
 IR Inten    --     41.7773                 8.9924               132.2877

                     37                     38                     39
                      A                      A                      A
 Frequencies --    996.2511              1017.6049              1026.2409
 Red. masses --      1.2145                 1.4219                 3.5238
 Frc consts  --      0.7102                 0.8675                 2.1866
 IR Inten    --     92.1858                13.5366                11.8744

                     40                     41                     42
                      A                      A                      A
 Frequencies --   1027.6269              1034.9798              1042.9006
 Red. masses --      1.4381                 1.4209                 1.6694
 Frc consts  --      0.8948                 0.8968                 1.0698
 IR Inten    --      4.6778                76.5650                16.1139

                     43                     44                     45
                      A                      A                      A
 Frequencies --   1051.0159              1061.7624              1068.7665
 Red. masses --      1.2625                 2.1642                 1.4493
 Frc consts  --      0.8217                 1.4375                 0.9754
 IR Inten    --     28.0573                21.5197                10.7199

                     46                     47                     48
                      A                      A                      A
 Frequencies --   1092.0081              1096.7634              1101.4315
 Red. masses --      1.8450                 3.0976                 1.9689
 Frc consts  --      1.2962                 2.1953                 1.4073
 IR Inten    --     29.3107                28.9652                18.7428

                     49                     50                     51
                      A                      A                      A
 Frequencies --   1124.2653              1182.3817              1186.6252
 Red. masses --      1.5921                 1.1764                 3.1687
 Frc consts  --      1.1857                 0.9690                 2.6288
 IR Inten    --      8.6096                 1.4804                22.2036

                     52                     53                     54
                      A                      A                      A
 Frequencies --   1199.2333              1216.8011              1263.4919
 Red. masses --      1.4409                 1.1498                 4.3238
 Frc consts  --      1.2209                 1.0030                 4.0669
 IR Inten    --     42.0989                 5.6011                33.0975

                     55                     56                     57
                      A                      A                      A
 Frequencies --   1321.4159              1353.0327              1369.7108
 Red. masses --      4.3363                 1.5019                 1.3369
 Frc consts  --      4.4612                 1.6199                 1.4777
 IR Inten    --      4.2310                23.2151                11.0108

                     58                     59                     60
                      A                      A                      A
 Frequencies --   1371.1052              1379.4633              1410.4122
 Red. masses --      1.5142                 3.4003                 1.4388
 Frc consts  --      1.6772                 3.8123                 1.6863
 IR Inten    --     17.9595               162.9999                70.0896

                     61                     62                     63
                      A                      A                      A
 Frequencies --   1423.2268              1427.0900              1455.3176
 Red. masses --      1.4728                 1.7495                 1.1938
 Frc consts  --      1.7576                 2.0992                 1.4897
 IR Inten    --    160.7786               417.9874                31.7842

                     64                     65                     66
                      A                      A                      A
 Frequencies --   1463.6896              1477.3831              1482.8197
 Red. masses --      1.1185                 1.0650                 1.1672
 Frc consts  --      1.4118                 1.3696                 1.5120
 IR Inten    --     53.6886                25.5548                 9.1385

                     67                     68                     69
                      A                      A                      A
 Frequencies --   1489.6569              1491.7816              1495.2537
 Red. masses --      1.5483                 1.0656                 1.2637
 Frc consts  --      2.0244                 1.3972                 1.6647
 IR Inten    --      7.8122                14.6330               117.6889

                     70                     71                     72
                      A                      A                      A
 Frequencies --   1501.6713              1507.9231              1509.9440
 Red. masses --      1.0578                 1.0666                 1.0618
 Frc consts  --      1.4054                 1.4290                 1.4264
 IR Inten    --      6.3835                85.4772                19.2021

                     73                     74                     75
                      A                      A                      A
 Frequencies --   1542.3136              1594.0361              1647.4470
 Red. masses --      2.2539                 4.7016                 1.3094
 Frc consts  --      3.1588                 7.0387                 2.0939
 IR Inten    --     23.7459               414.0696                27.5713

                     76                     77                     78
                      A                      A                      A
 Frequencies --   1651.0850              1673.6222              3012.6332
 Red. masses --      3.7479                 5.9330                 1.0543
 Frc consts  --      6.0197                 9.7913                 5.6377
 IR Inten    --      4.7163                 2.7421               109.6826

                     79                     80                     81
                      A                      A                      A
 Frequencies --   3052.4296              3055.9196              3062.0026
 Red. masses --      1.0376                 1.0340                 1.0399
 Frc consts  --      5.6961                 5.6892                 5.7443
 IR Inten    --     16.3773                69.5077                17.0213

                     82                     83                     84
                      A                      A                      A
 Frequencies --   3080.0929              3120.3609              3124.8309
 Red. masses --      1.0874                 1.0997                 1.1028
 Frc consts  --      6.0779                 6.3089                 6.3445
 IR Inten    --     59.3927                20.6867                17.8872

                     85                     86                     87
                      A                      A                      A
 Frequencies --   3134.7487              3145.3657              3153.0981
 Red. masses --      1.0962                 1.0947                 1.1047
 Frc consts  --      6.3467                 6.3808                 6.4707
 IR Inten    --     19.2424                37.3095                19.9356

                     88                     89                     90
                      A                      A                      A
 Frequencies --   3155.3840              3163.6945              3193.4534
 Red. masses --      1.1025                 1.1036                 1.0856
 Frc consts  --      6.4676                 6.5081                 6.5227
 IR Inten    --     27.0455                24.7480                 1.9821

                     91                     92                     93
                      A                      A                      A
 Frequencies --   3200.7592              3210.6850              3218.9116
 Red. masses --      1.0885                 1.0921                 1.0944
 Frc consts  --      6.5705                 6.6328                 6.6808
 IR Inten    --      5.2141                32.9339                31.7165

                     94                     95                     96
                      A                      A                      A
 Frequencies --   3224.2703              3439.8895              3610.3100
 Red. masses --      1.0972                 1.0622                 1.0856
 Frc consts  --      6.7207                 7.4055                 8.3367
 IR Inten    --     10.5789                80.0467                62.1169

 - Thermochemistry -
 -------------------
 Temperature   298.150 Kelvin.  Pressure   1.00000 Atm.
 Atom     1 has atomic number  6 and mass  12.00000

 Molecular mass:   205.14666 amu.
 Principal axes and moments of inertia in atomic units:
                           1         2         3
     Eigenvalues --  2062.451453852.836394533.69488
           X            0.99995  -0.00046   0.00988
           Y            0.00067   0.99979  -0.02061
           Z           -0.00986   0.02062   0.99974
 This molecule is an asymmetric top.
 Rotational symmetry number  1.
 Warning -- assumption of classical behavior for rotation
           may cause significant error
 Rotational temperatures (Kelvin)      0.04200     0.02248     0.01910
 Rotational constants (GHZ):           0.87505     0.46842     0.39807
    1 imaginary frequencies ignored.
 Zero-point vibrational energy     776668.2 (Joules/Mol)
                                  185.62815 (Kcal/Mol)
 Warning -- explicit consideration of  24 degrees of freedom as
           vibrations may cause significant error
 Vibrational temperatures:     73.90    96.10   111.47   138.66   148.80
          (Kelvin)            185.34   221.30   256.71   286.71   302.24
                              323.42   384.61   398.23   434.95   458.54
                              505.55   524.28   544.19   609.64   618.50
                              755.67   796.03   826.10   866.99   919.20
                              922.26  1000.55  1011.05  1046.00  1142.22
                             1182.35  1263.30  1368.93  1384.25  1423.74
                             1433.38  1464.11  1476.53  1478.53  1489.11
                             1500.50  1512.18  1527.64  1537.72  1571.16
                             1578.00  1584.71  1617.57  1701.18  1707.29
                             1725.43  1750.71  1817.88  1901.22  1946.71
                             1970.71  1972.71  1984.74  2029.27  2047.71
                             2053.26  2093.88  2105.92  2125.62  2133.45
                             2143.28  2146.34  2151.34  2160.57  2169.57
                             2172.47  2219.05  2293.46  2370.31  2375.54
                             2407.97  4334.51  4391.77  4396.79  4405.54
                             4431.57  4489.50  4495.93  4510.20  4525.48
                             4536.60  4539.89  4551.85  4594.67  4605.18
                             4619.46  4631.30  4639.01  4949.23  5194.43

 Zero-point correction=                           0.295817 (Hartree/Particle)
 Thermal correction to Energy=                    0.311676
 Thermal correction to Enthalpy=                  0.312620
 Thermal correction to Gibbs Free Energy=         0.253337
 Sum of electronic and zero-point Energies=           -636.495232
 Sum of electronic and thermal Energies=              -636.479373
 Sum of electronic and thermal Enthalpies=            -636.478429
 Sum of electronic and thermal Free Energies=         -636.537712

                     E (Thermal)             CV                S
                      KCal/Mol        Cal/Mol-Kelvin    Cal/Mol-Kelvin
 Total                  195.580             60.075            124.772
 Electronic               0.000              0.000              0.000
 Translational            0.889              2.981             41.860
 Rotational               0.889              2.981             31.955
 Vibrational            193.802             54.113             50.957
 Vibration     1          0.596              1.977              4.764
 Vibration     2          0.598              1.970              4.246
 Vibration     3          0.599              1.964              3.954
 Vibration     4          0.603              1.952              3.526
 Vibration     5          0.605              1.946              3.389
 Vibration     6          0.611              1.924              2.964
 Vibration     7          0.619              1.898              2.625
 Vibration     8          0.629              1.869              2.345
 Vibration     9          0.637              1.841              2.140
 Vibration    10          0.642              1.825              2.043
 Vibration    11          0.649              1.803              1.920
 Vibration    12          0.672              1.733              1.613
 Vibration    13          0.678              1.716              1.553
 Vibration    14          0.694              1.669              1.404
 Vibration    15          0.705              1.638              1.317
 Vibration    16          0.728              1.572              1.160
 Vibration    17          0.738              1.546              1.103
 Vibration    18          0.749              1.517              1.046
 Vibration    19          0.786              1.419              0.879
 Vibration    20          0.791              1.405              0.859
 Vibration    21          0.880              1.194              0.598
 Vibration    22          0.909              1.133              0.537
 Vibration    23          0.930              1.087              0.496
 Vibration    24          0.961              1.026              0.445

 Optimization completed.
    -- Stationary point found.
 Normal termination of Gaussian 16 at Mon Feb 15 03:47:21 2021.
