 Gaussian 16, Revision C.01,
 Gaussian 16:  ES64L-G16RevC.01  3-Jul-2019

 ----------------------------------------------------------------------
 # opt=(calcall,ts,noeigen,maxcycles=100,maxstep=1) freq=noraman wb97xd
  scrf=(iefpcm,solvent=water) def2tzvp
 ----------------------------------------------------------------------

 ----------
 TS-464.out
 ----------
 Symbolic Z-matrix:
 Charge =  0 Multiplicity = 1

 SCF Done:  E(RwB97XD) =  -597.448204680     A.U. after   16 cycles
 SCF Done:  E(RwB97XD) =  -597.449148704     A.U. after   11 cycles
 SCF Done:  E(RwB97XD) =  -597.450082320     A.U. after   12 cycles
 SCF Done:  E(RwB97XD) =  -597.451017859     A.U. after   11 cycles
 SCF Done:  E(RwB97XD) =  -597.451931083     A.U. after   11 cycles
 SCF Done:  E(RwB97XD) =  -597.452812698     A.U. after   11 cycles
 SCF Done:  E(RwB97XD) =  -597.453656294     A.U. after   11 cycles
 SCF Done:  E(RwB97XD) =  -597.454463761     A.U. after   11 cycles
 SCF Done:  E(RwB97XD) =  -597.455233267     A.U. after   11 cycles
 SCF Done:  E(RwB97XD) =  -597.456067966     A.U. after   11 cycles
 SCF Done:  E(RwB97XD) =  -597.479401216     A.U. after    9 cycles
 SCF Done:  E(RwB97XD) =  -597.479437463     A.U. after    9 cycles
 SCF Done:  E(RwB97XD) =  -597.479470420     A.U. after    9 cycles
 SCF Done:  E(RwB97XD) =  -597.479500421     A.U. after    9 cycles
 SCF Done:  E(RwB97XD) =  -597.479527190     A.U. after   10 cycles
 SCF Done:  E(RwB97XD) =  -597.479549117     A.U. after   10 cycles
 SCF Done:  E(RwB97XD) =  -597.479561922     A.U. after   10 cycles
 SCF Done:  E(RwB97XD) =  -597.479564506     A.U. after   10 cycles
 SCF Done:  E(RwB97XD) =  -597.479564561     A.U. after    7 cycles
 Optimization completed.
    -- Stationary point found.
 ******    1 imaginary frequencies (negative Signs) ******
    1 imaginary frequencies ignored.
 Normal termination of Gaussian 16 at Fri Jun 10 11:28:00 2022.

 ---------------------------------------------------------------------
 #N Geom=AllCheck Guess=TCheck SCRF=Check GenChk RwB97XD/def2TZVP Freq
 ---------------------------------------------------------------------

 Structure from the checkpoint file:  "/local/jobs/107735/Gau-1120101.chk"
 ----------
 TS-464.out
 ----------
 Charge =  0 Multiplicity = 1

                         Standard orientation:
 ---------------------------------------------------------------------
 Center     Atomic      Atomic             Coordinates (Angstroms)
 Number     Number       Type             X           Y           Z
 ---------------------------------------------------------------------
      1          6           0        1.543393    0.856352   -0.059985
      2          6           0        0.340587    1.517347    0.274050
      3          8           0        0.263149    2.661310    0.768120
      4          6           0        1.512944   -0.447867   -0.589042
      5          6           0        0.528929   -2.870249    0.522759
      6          1           0        0.457561   -3.577596    1.349531
      7          1           0       -0.465674   -2.486860    0.295904
      8          1           0        0.916079   -3.388337   -0.353505
      9          7           0        1.404012   -1.743487    0.839212
     10          1           0        1.040274   -1.196253    1.609987
     11          1           0        2.336883   -2.050591    1.090154
     12          6           0        2.701352   -0.995240   -1.328705
     13          1           0        2.812006   -0.442940   -2.264612
     14          1           0        3.624691   -0.872667   -0.762697
     15          1           0        2.574754   -2.048958   -1.575379
     16          1           0        0.564284   -0.773866   -0.997906
     17          6           0        2.858631    1.520463    0.252616
     18          1           0        3.472790    1.676938   -0.639594
     19          1           0        2.677261    2.493521    0.706375
     20          1           0        3.461343    0.933163    0.954168
     21          6           0       -0.970542    0.798370    0.046656
     22          6           0       -1.565443    0.754525   -1.209910
     23          6           0       -2.783037    0.113771   -1.391589
     24          6           0       -3.418810   -0.493377   -0.317541
     25          6           0       -2.834891   -0.447914    0.940824
     26          6           0       -1.620499    0.198646    1.120919
     27          1           0       -1.065183    1.215797   -2.053483
     28          1           0       -3.234411    0.085073   -2.375622
     29          1           0       -4.365670   -0.998556   -0.460242
     30          1           0       -3.324920   -0.918549    1.784124
     31          1           0       -1.171020    0.235639    2.107032
 ---------------------------------------------------------------------

 SCF Done:  E(RwB97XD) =  -597.479564561     A.U. after    1 cycles

 The electronic state is 1-A.
 Alpha  occ. eigenvalues --  -19.19248 -14.47895 -10.33879 -10.33397 -10.31772
 Alpha  occ. eigenvalues --  -10.29340 -10.29054 -10.29036 -10.28953 -10.28896
 Alpha  occ. eigenvalues --  -10.28826 -10.28021 -10.26141 -10.24976  -1.09581
 Alpha  occ. eigenvalues --   -1.03465  -0.96479  -0.90947  -0.85886  -0.85063
 Alpha  occ. eigenvalues --   -0.82382  -0.78792  -0.76679  -0.71326  -0.70354
 Alpha  occ. eigenvalues --   -0.67464  -0.62878  -0.62456  -0.59912  -0.56778
 Alpha  occ. eigenvalues --   -0.55368  -0.55061  -0.54093  -0.52917  -0.51683
 Alpha  occ. eigenvalues --   -0.50924  -0.49972  -0.48963  -0.48089  -0.47803
 Alpha  occ. eigenvalues --   -0.47080  -0.46153  -0.44431  -0.44075  -0.43751
 Alpha  occ. eigenvalues --   -0.42115  -0.41995  -0.40926  -0.33943  -0.33683
 Alpha  occ. eigenvalues --   -0.30738  -0.26263
 Alpha virt. eigenvalues --    0.05110   0.05183   0.05982   0.09755   0.12646
 Alpha virt. eigenvalues --    0.12944   0.13520   0.15213   0.15828   0.16112
 Alpha virt. eigenvalues --    0.16268   0.17847   0.18131   0.18486   0.19160

 Mulliken charges:
               1
     1  C   -0.186499
     2  C    0.217608
     3  O   -0.556176
     4  C   -0.058858
     5  C   -0.284097
     6  H    0.153611
     7  H    0.154005
     8  H    0.150260
     9  N   -0.325379
    10  H    0.267477
    11  H    0.281261
    12  C   -0.353806
    13  H    0.148632
    14  H    0.146658
    15  H    0.138621
    16  H    0.159214
    17  C   -0.431618
    18  H    0.124884
    19  H    0.124301
    20  H    0.121231
    21  C    0.252066
    22  C   -0.247521
    23  C   -0.118779
    24  C   -0.163440
    25  C   -0.117462
    26  C   -0.321678
    27  H    0.142306
    28  H    0.142665
    29  H    0.143690
    30  H    0.142376
    31  H    0.154448
 Sum of Mulliken charges =  -0.00000

 Dipole moment (field-independent basis, Debye):
    X=              2.3518    Y=            -12.0105    Z=             -0.2930  Tot=             12.2420
 Quadrupole moment (field-independent basis, Debye-Ang):
   XX=            -75.9841   YY=            -96.0332   ZZ=            -78.3216
   XY=             -5.9577   XZ=              2.3311   YZ=            -10.3771

  Exact polarizability:     227.848       9.838     224.973      -1.241      -1.878     197.606
 Approx polarizability:     174.643       8.570     179.487       0.030      -1.196     170.895

 ******    1 imaginary frequencies (negative Signs) ******

                      1                      2                      3
                      A                      A                      A
 Frequencies --   -377.4194                32.1551                46.1813
 Red. masses --      5.7604                 3.6171                 4.5932
 Frc consts  --      0.4835                 0.0022                 0.0058
 IR Inten    --    977.7564                 2.1526                 3.3737

                      4                      5                      6
                      A                      A                      A
 Frequencies --     66.3057                87.1982                93.7204
 Red. masses --      3.6605                 3.0812                 1.8417
 Frc consts  --      0.0095                 0.0138                 0.0095
 IR Inten    --      1.6535                 3.2523                 1.8771

                      7                      8                      9
                      A                      A                      A
 Frequencies --    129.2391               137.3855               180.5202
 Red. masses --      1.2268                 2.5184                 1.4272
 Frc consts  --      0.0121                 0.0280                 0.0274
 IR Inten    --      0.6850                 4.9537                 0.4139

                     10                     11                     12
                      A                      A                      A
 Frequencies --    207.3080               222.2429               243.3535
 Red. masses --      2.3563                 2.1296                 3.5457
 Frc consts  --      0.0597                 0.0620                 0.1237
 IR Inten    --      7.2024                 0.4669                11.8458

                     13                     14                     15
                      A                      A                      A
 Frequencies --    251.6609               302.3063               316.5582
 Red. masses --      1.4124                 2.3253                 3.5829
 Frc consts  --      0.0527                 0.1252                 0.2115
 IR Inten    --      6.5787                 1.5607                 7.4997

                     16                     17                     18
                      A                      A                      A
 Frequencies --    342.4262               359.7217               415.2497
 Red. masses --      2.8832                 5.1363                 2.8830
 Frc consts  --      0.1992                 0.3916                 0.2929
 IR Inten    --      5.9159                17.4341                 0.4771

                     19                     20                     21
                      A                      A                      A
 Frequencies --    476.8348               498.5653               594.3215
 Red. masses --      3.3787                 3.9483                 3.5396
 Frc consts  --      0.4526                 0.5782                 0.7366
 IR Inten    --     13.3634               156.8209                 2.8133

                     22                     23                     24
                      A                      A                      A
 Frequencies --    635.7800               652.4885               667.5513
 Red. masses --      6.3893                 4.0440                 1.2614
 Frc consts  --      1.5216                 1.0144                 0.3312
 IR Inten    --      0.1484                37.9040                59.3957

                     25                     26                     27
                      A                      A                      A
 Frequencies --    729.9392               732.8933               780.9693
 Red. masses --      1.7489                 2.7731                 5.4626
 Frc consts  --      0.5490                 0.8776                 1.9630
 IR Inten    --     74.7853                11.0553                36.1622

                     28                     29                     30
                      A                      A                      A
 Frequencies --    808.1092               882.5280               899.3701
 Red. masses --      2.7017                 1.2468                 2.5795
 Frc consts  --      1.0395                 0.5721                 1.2293
 IR Inten    --     68.4298                 0.1462                22.6012

                     31                     32                     33
                      A                      A                      A
 Frequencies --    953.2943               971.5045               995.9099
 Red. masses --      1.4528                 1.4323                 1.1743
 Frc consts  --      0.7779                 0.7965                 0.6862
 IR Inten    --     55.3543                30.6293                 4.2687

                     34                     35                     36
                      A                      A                      A
 Frequencies --   1011.6714              1019.9891              1025.1838
 Red. masses --      1.3804                 1.5796                 5.6911
 Frc consts  --      0.8324                 0.9683                 3.5241
 IR Inten    --      0.6476                86.2748                 1.1686

                     37                     38                     39
                      A                      A                      A
 Frequencies --   1029.9016              1030.0718              1056.5739
 Red. masses --      1.2651                 1.2137                 2.0472
 Frc consts  --      0.7906                 0.7588                 1.3465
 IR Inten    --     13.7951                32.5249                75.3996

                     40                     41                     42
                      A                      A                      A
 Frequencies --   1060.8402              1070.0917              1082.1546
 Red. masses --      1.6796                 1.7227                 2.7577
 Frc consts  --      1.1137                 1.1622                 1.9027
 IR Inten    --     16.2775               145.9275                29.6610

                     43                     44                     45
                      A                      A                      A
 Frequencies --   1109.1552              1137.4641              1182.4963
 Red. masses --      1.5540                 2.6762                 1.1375
 Frc consts  --      1.1264                 2.0400                 0.9372
 IR Inten    --     13.0662                12.6394                 0.0412

                     46                     47                     48
                      A                      A                      A
 Frequencies --   1189.8255              1206.3084              1219.4553
 Red. masses --      1.1783                 1.1361                 2.5379
 Frc consts  --      0.9828                 0.9741                 2.2236
 IR Inten    --    136.8902                 0.3336                15.3166

                     49                     50                     51
                      A                      A                      A
 Frequencies --   1226.2798              1316.6951              1323.1952
 Red. masses --      1.5130                 3.9315                 1.6317
 Frc consts  --      1.3405                 4.0159                 1.6832
 IR Inten    --     12.8270                11.8999               105.5615

                     52                     53                     54
                      A                      A                      A
 Frequencies --   1341.2963              1358.6048              1390.3493
 Red. masses --      1.3364                 1.4548                 1.3009
 Frc consts  --      1.4165                 1.5821                 1.4816
 IR Inten    --      1.3191                 0.8348                34.6647

                     55                     56                     57
                      A                      A                      A
 Frequencies --   1413.2151              1439.1903              1454.8095
 Red. masses --      1.2638                 4.2869                 1.3749
 Frc consts  --      1.4871                 5.2315                 1.7145
 IR Inten    --     28.5048               115.8077               222.6453

                     58                     59                     60
                      A                      A                      A
 Frequencies --   1469.6592              1486.1600              1487.5294
 Red. masses --      1.2458                 2.0126                 1.1228
 Frc consts  --      1.5853                 2.6191                 1.4638
 IR Inten    --     81.4874                13.0007                16.5947

                     61                     62                     63
                      A                      A                      A
 Frequencies --   1491.2661              1492.6677              1493.9465
 Red. masses --      1.0472                 1.1156                 1.0726
 Frc consts  --      1.3721                 1.4645                 1.4105
 IR Inten    --      6.4633                34.4626                 2.4583

                     64                     65                     66
                      A                      A                      A
 Frequencies --   1509.4678              1512.0447              1541.0497
 Red. masses --      1.1537                 1.4152                 2.4065
 Frc consts  --      1.5488                 1.9063                 3.3672
 IR Inten    --    213.1322               334.6856                12.5280

                     67                     68                     69
                      A                      A                      A
 Frequencies --   1588.9693              1647.3662              1649.4583
 Red. masses --      9.2813                 5.7735                 1.0853
 Frc consts  --     13.8068                 9.2314                 1.7398
 IR Inten    --    918.4086                 4.0362                75.0455

                     70                     71                     72
                      A                      A                      A
 Frequencies --   1673.5764              3019.5581              3059.2021
 Red. masses --      5.8743                 1.0420                 1.0374
 Frc consts  --      9.6938                 5.5976                 5.7203
 IR Inten    --      2.2785               101.7741                18.1220

                     73                     74                     75
                      A                      A                      A
 Frequencies --   3064.1399              3065.0008              3128.9796
 Red. masses --      1.0333                 1.0993                 1.0997
 Frc consts  --      5.7159                 6.0846                 6.3437
 IR Inten    --     51.9433                56.3818                22.8858

                     76                     77                     78
                      A                      A                      A
 Frequencies --   3141.1594              3142.5473              3146.4523
 Red. masses --      1.0956                 1.1055                 1.1032
 Frc consts  --      6.3692                 6.4325                 6.4352
 IR Inten    --     18.1699                16.8123                17.6346

                     79                     80                     81
                      A                      A                      A
 Frequencies --   3157.2283              3183.9947              3188.9790
 Red. masses --      1.1056                 1.0878                 1.0875
 Frc consts  --      6.4933                 6.4976                 6.5162
 IR Inten    --     13.2921                 8.9263                 5.1398

                     82                     83                     84
                      A                      A                      A
 Frequencies --   3191.1541              3199.5074              3207.8029
 Red. masses --      1.0896                 1.0904                 1.0946
 Frc consts  --      6.5375                 6.5768                 6.6364
 IR Inten    --     20.7782                 5.9246                41.7036

                     85                     86                     87
                      A                      A                      A
 Frequencies --   3219.8811              3526.4444              3611.8742
 Red. masses --      1.0986                 1.0507                 1.0961
 Frc consts  --      6.7110                 7.6981                 8.4250
 IR Inten    --     20.6213                20.6413                40.4639

 - Thermochemistry -
 -------------------
 Temperature   298.150 Kelvin.  Pressure   1.00000 Atm.
 Atom     1 has atomic number  6 and mass  12.00000

 Molecular mass:   191.13101 amu.
 Principal axes and moments of inertia in atomic units:
                           1         2         3
     Eigenvalues --  2001.801963354.968594270.75875
           X            0.99999   0.00227  -0.00472
           Y           -0.00235   0.99984  -0.01761
           Z            0.00468   0.01762   0.99983
 This molecule is an asymmetric top.
 Rotational symmetry number  1.
 Warning -- assumption of classical behavior for rotation
           may cause significant error
 Rotational temperatures (Kelvin)      0.04327     0.02582     0.02028
 Rotational constants (GHZ):           0.90156     0.53793     0.42258
    1 imaginary frequencies ignored.
 Zero-point vibrational energy     704035.1 (Joules/Mol)
                                  168.26843 (Kcal/Mol)
 Warning -- explicit consideration of  20 degrees of freedom as
           vibrations may cause significant error
 Vibrational temperatures:     46.26    66.44    95.40   125.46   134.84
          (Kelvin)            185.95   197.67   259.73   298.27   319.76
                              350.13   362.08   434.95   455.46   492.67
                              517.56   597.45   686.06   717.32   855.10
                              914.75   938.79   960.46  1050.22  1054.47
                             1123.64  1162.69  1269.76  1293.99  1371.58
                             1397.78  1432.89  1455.57  1467.54  1475.01
                             1481.80  1482.04  1520.17  1526.31  1539.62
                             1556.98  1595.83  1636.56  1701.35  1711.89
                             1735.61  1754.52  1764.34  1894.43  1903.78
                             1929.83  1954.73  2000.40  2033.30  2070.67
                             2093.15  2114.51  2138.25  2140.22  2145.60
                             2147.62  2149.46  2171.79  2175.50  2217.23
                             2286.17  2370.19  2373.20  2407.90  4344.47
                             4401.51  4408.61  4409.85  4501.90  4519.43
                             4521.42  4527.04  4542.55  4581.06  4588.23
                             4591.36  4603.38  4615.31  4632.69  5073.77
                             5196.68

 Zero-point correction=                           0.268153 (Hartree/Particle)
 Thermal correction to Energy=                    0.282993
 Thermal correction to Enthalpy=                  0.283937
 Thermal correction to Gibbs Free Energy=         0.225480
 Sum of electronic and zero-point Energies=           -597.211412
 Sum of electronic and thermal Energies=              -597.196572
 Sum of electronic and thermal Enthalpies=            -597.195628
 Sum of electronic and thermal Free Energies=         -597.254084

                     E (Thermal)             CV                S
                      KCal/Mol        Cal/Mol-Kelvin    Cal/Mol-Kelvin
 Total                  177.581             54.370            123.032
 Electronic               0.000              0.000              0.000
 Translational            0.889              2.981             41.649
 Rotational               0.889              2.981             31.728
 Vibrational            175.803             48.408             49.655
 Vibration     1          0.594              1.983              5.692
 Vibration     2          0.595              1.979              4.975
 Vibration     3          0.598              1.970              4.260
 Vibration     4          0.601              1.958              3.722
 Vibration     5          0.603              1.954              3.581
 Vibration     6          0.612              1.924              2.957
 Vibration     7          0.614              1.916              2.840
 Vibration     8          0.629              1.866              2.323
 Vibration     9          0.641              1.829              2.067
 Vibration    10          0.648              1.807              1.941
 Vibration    11          0.659              1.774              1.778
 Vibration    12          0.664              1.760              1.719
 Vibration    13          0.694              1.669              1.404
 Vibration    14          0.703              1.642              1.328
 Vibration    15          0.722              1.591              1.201
 Vibration    16          0.734              1.555              1.123
 Vibration    17          0.779              1.437              0.908
 Vibration    18          0.833              1.301              0.719
 Vibration    19          0.854              1.253              0.662
 Vibration    20          0.952              1.044              0.460

 Optimization completed.
    -- Stationary point found.
 Normal termination of Gaussian 16 at Fri Jun 10 12:03:01 2022.
