 Gaussian 16, Revision A.03,
 Gaussian 16:  ES64L-G16RevA.03 25-Dec-2016

 ----------------------------------------------------------------------
 # wB97XD def2tzvp, opt=(ts, noeigen, calcfc, maxcycles=70, maxstep=1),
  freq=noraman, scrf=(iefpcm, solvent=water)
 ----------------------------------------------------------------------

 ------------------------
 0_iteration/TS-475-0.out
 ------------------------
 Symbolic Z-matrix:
 Charge =  0 Multiplicity = 1

 SCF Done:  E(RwB97XD) =  -842.108526861     A.U. after   15 cycles
 SCF Done:  E(RwB97XD) =  -842.108521379     A.U. after   10 cycles
 SCF Done:  E(RwB97XD) =  -842.108520755     A.U. after   10 cycles
 SCF Done:  E(RwB97XD) =  -842.108524891     A.U. after    9 cycles
 SCF Done:  E(RwB97XD) =  -842.108540797     A.U. after   10 cycles
 SCF Done:  E(RwB97XD) =  -842.108567006     A.U. after   10 cycles
 SCF Done:  E(RwB97XD) =  -842.108592747     A.U. after   10 cycles
 SCF Done:  E(RwB97XD) =  -842.108615396     A.U. after   10 cycles
 SCF Done:  E(RwB97XD) =  -842.108633767     A.U. after   10 cycles
 SCF Done:  E(RwB97XD) =  -842.108647289     A.U. after   10 cycles
 SCF Done:  E(RwB97XD) =  -842.108655747     A.U. after   10 cycles
 SCF Done:  E(RwB97XD) =  -842.108659062     A.U. after   10 cycles
 Optimization completed.
    -- Stationary point found.
 Normal termination of Gaussian 16 at Sat Feb 13 05:17:30 2021.

 ---------------------------------------------------------------------
 #N Geom=AllCheck Guess=TCheck SCRF=Check GenChk RwB97XD/def2TZVP Freq
 ---------------------------------------------------------------------

 Structure from the checkpoint file:  "/beegfs/scratch/user/q/tla25/Gau-35691.chk"
 ------------------------
 0_iteration/TS-475-0.out
 ------------------------
 Charge =  0 Multiplicity = 1

                         Standard orientation:
 ---------------------------------------------------------------------
 Center     Atomic      Atomic             Coordinates (Angstroms)
 Number     Number       Type             X           Y           Z
 ---------------------------------------------------------------------
      1          6           0       -0.417662    0.255050   -0.374741
      2          6           0       -1.436445   -0.741775   -0.249757
      3          8           0       -1.241673   -1.913623   -0.627993
      4          6           0        0.817852   -0.071315   -0.938412
      5          6           0        1.913882   -0.663634    1.586508
      6          1           0        0.946492   -0.279877    1.909572
      7          1           0        2.251533   -1.419385    2.295789
      8          1           0        2.632130    0.153667    1.566351
      9          7           0        1.763565   -1.211682    0.243021
     10          1           0        1.133805   -2.007474    0.239924
     11          1           0        2.649991   -1.502769   -0.153253
     12          6           0        1.842061    0.978914   -1.254661
     13          1           0        2.761832    0.530850   -1.627493
     14          1           0        1.446239    1.638833   -2.028771
     15          1           0        2.072544    1.593546   -0.385106
     16          1           0        0.740863   -0.860252   -1.678097
     17         17           0       -0.634551    1.813075    0.433551
     18          7           0       -2.652283   -0.392879    0.270797
     19          1           0       -2.757458    0.477398    0.760662
     20          1           0       -3.254320   -1.149335    0.543641
 ---------------------------------------------------------------------

 SCF Done:  E(RwB97XD) =  -842.108659062     A.U. after    1 cycles

 The electronic state is 1-A.
 Alpha  occ. eigenvalues -- -101.68523 -19.19493 -14.47948 -14.43310 -10.37425
 Alpha  occ. eigenvalues --  -10.33790 -10.31500 -10.29451 -10.28177  -9.57048
 Alpha  occ. eigenvalues --   -7.31648  -7.30869  -7.30827  -1.11842  -1.03545
 Alpha  occ. eigenvalues --   -0.99125  -0.95158  -0.87596  -0.79598  -0.78650
 Alpha  occ. eigenvalues --   -0.70858  -0.63342  -0.62620  -0.61152  -0.57955
 Alpha  occ. eigenvalues --   -0.56588  -0.54176  -0.52318  -0.50203  -0.49215
 Alpha  occ. eigenvalues --   -0.48849  -0.47667  -0.46820  -0.44229  -0.42083
 Alpha  occ. eigenvalues --   -0.41086  -0.39831  -0.34838  -0.33512  -0.26205
 Alpha virt. eigenvalues --    0.07162   0.10093   0.12179   0.13543   0.13950
 Alpha virt. eigenvalues --    0.15248   0.16480   0.16899   0.18256   0.19132
 Alpha virt. eigenvalues --    0.19513   0.20555   0.20805   0.22127   0.24181

 Mulliken charges:
               1
     1  C   -0.225629
     2  C    0.312986
     3  O   -0.577301
     4  C    0.038284
     5  C   -0.301949
     6  H    0.152989
     7  H    0.153293
     8  H    0.154744
     9  N   -0.317413
    10  H    0.279595
    11  H    0.281598
    12  C   -0.368458
    13  H    0.140209
    14  H    0.149843
    15  H    0.137848
    16  H    0.150839
    17  Cl  -0.202205
    18  N   -0.482640
    19  H    0.258855
    20  H    0.264513
 Sum of Mulliken charges =  -0.00000

 Dipole moment (field-independent basis, Debye):
    X=              6.3013    Y=             -0.6601    Z=              2.7092  Tot=              6.8907
 Quadrupole moment (field-independent basis, Debye-Ang):
   XX=            -47.5165   YY=            -68.6271   ZZ=            -60.2569
   XY=             -8.0426   XZ=             -5.8507   YZ=             -4.7521

  Exact polarizability: 154.562  -4.184 130.960  -4.099   3.908 106.167
 Approx polarizability: 117.317  -4.595 112.361  -3.839   5.541  91.502

 ******    1 imaginary frequencies (negative Signs) ******

                      1                      2                      3
                      A                      A                      A
 Frequencies --   -388.2888                53.2989                78.0522
 Red. masses --      5.4202                 3.3067                 3.5511
 Frc consts  --      0.4815                 0.0055                 0.0127
 IR Inten    --    936.4350                 1.3217                18.8777

                      4                      5                      6
                      A                      A                      A
 Frequencies --    100.2578               138.5227               191.3294
 Red. masses --      3.3155                 3.3745                 3.5219
 Frc consts  --      0.0196                 0.0382                 0.0760
 IR Inten    --     16.2672                38.9381                 6.5172

                      7                      8                      9
                      A                      A                      A
 Frequencies --    200.1745               224.8335               243.3002
 Red. masses --      1.1521                 1.3202                 3.9670
 Frc consts  --      0.0272                 0.0393                 0.1384
 IR Inten    --      0.0617                 7.1851                 4.1798

                     10                     11                     12
                      A                      A                      A
 Frequencies --    253.9795               314.4410               317.9951
 Red. masses --      2.7967                 1.3838                 2.2382
 Frc consts  --      0.1063                 0.0806                 0.1333
 IR Inten    --     30.9771               290.2191                28.2988

                     13                     14                     15
                      A                      A                      A
 Frequencies --    414.3295               460.0307               479.3713
 Red. masses --      3.7389                 3.8614                 3.4926
 Frc consts  --      0.3782                 0.4815                 0.4729
 IR Inten    --      6.7266                17.2285                59.7432

                     16                     17                     18
                      A                      A                      A
 Frequencies --    504.5000               599.0629               663.6706
 Red. masses --      1.2513                 2.7394                 3.2389
 Frc consts  --      0.1876                 0.5792                 0.8405
 IR Inten    --     14.7901                 2.8334                48.2666

                     19                     20                     21
                      A                      A                      A
 Frequencies --    712.4168               784.3201               952.8157
 Red. masses --      1.5898                 8.1597                 1.4694
 Frc consts  --      0.4754                 2.9574                 0.7860
 IR Inten    --     68.1594                35.6837                19.8783

                     22                     23                     24
                      A                      A                      A
 Frequencies --   1007.2505              1016.0092              1029.5779
 Red. masses --      1.2796                 1.4516                 1.8208
 Frc consts  --      0.7649                 0.8828                 1.1372
 IR Inten    --     26.2065                19.6244               179.7624

                     25                     26                     27
                      A                      A                      A
 Frequencies --   1058.1508              1075.9829              1097.7339
 Red. masses --      1.9867                 2.0653                 1.6757
 Frc consts  --      1.3106                 1.4088                 1.1897
 IR Inten    --     33.4104                79.0563                15.5271

                     28                     29                     30
                      A                      A                      A
 Frequencies --   1157.6749              1216.2197              1226.5649
 Red. masses --      2.5781                 1.4932                 1.3777
 Frc consts  --      2.0358                 1.3013                 1.2212
 IR Inten    --     20.3144               110.5212                44.5125

                     31                     32                     33
                      A                      A                      A
 Frequencies --   1270.7336              1350.9567              1404.8962
 Red. masses --      1.2502                 1.3121                 2.7717
 Frc consts  --      1.1895                 1.4110                 3.2232
 IR Inten    --     33.1891                 7.5432               213.1634

                     34                     35                     36
                      A                      A                      A
 Frequencies --   1414.5350              1453.1479              1468.2040
 Red. masses --      1.4853                 1.4337                 1.4825
 Frc consts  --      1.7511                 1.7838                 1.8828
 IR Inten    --    170.9746               219.3348               257.3329

                     37                     38                     39
                      A                      A                      A
 Frequencies --   1485.7164              1492.3180              1500.2620
 Red. masses --      1.0765                 1.0823                 1.3871
 Frc consts  --      1.4000                 1.4201                 1.8395
 IR Inten    --     44.3072                40.7164               214.6260

                     40                     41                     42
                      A                      A                      A
 Frequencies --   1508.5596              1597.1667              1631.8360
 Red. masses --      1.0329                 1.8237                 2.4162
 Frc consts  --      1.3850                 2.7410                 3.7908
 IR Inten    --      9.0366               351.4646               526.5618

                     43                     44                     45
                      A                      A                      A
 Frequencies --   1656.1338              3066.7469              3068.2692
 Red. masses --      1.1270                 1.0363                 1.0335
 Frc consts  --      1.8212                 5.7426                 5.7327
 IR Inten    --      7.7523                18.6308                35.8368

                     46                     47                     48
                      A                      A                      A
 Frequencies --   3138.1060              3144.5614              3152.3094
 Red. masses --      1.1004                 1.1048                 1.1021
 Frc consts  --      6.3845                 6.4365                 6.4523
 IR Inten    --     19.0789                13.2275                17.1976

                     49                     50                     51
                      A                      A                      A
 Frequencies --   3163.9730              3174.2287              3513.0580
 Red. masses --      1.1054                 1.0916                 1.0507
 Frc consts  --      6.5199                 6.4800                 7.6405
 IR Inten    --     16.1695                17.6040                28.6513

                     52                     53                     54
                      A                      A                      A
 Frequencies --   3597.4713              3621.2554              3742.2981
 Red. masses --      1.0964                 1.0458                 1.1034
 Frc consts  --      8.3603                 8.0801                 9.1042
 IR Inten    --     58.8095                62.5916                76.7168

 - Thermochemistry -
 -------------------
 Temperature   298.150 Kelvin.  Pressure   1.00000 Atm.
 Atom     1 has atomic number  6 and mass  12.00000

 Molecular mass:   150.05599 amu.
 Principal axes and moments of inertia in atomic units:
                           1         2         3
     Eigenvalues --  1198.789201615.818772110.72627
           X            0.99997   0.00245  -0.00794
           Y           -0.00291   0.99826  -0.05894
           Z            0.00778   0.05896   0.99823
 This molecule is an asymmetric top.
 Rotational symmetry number  1.
 Warning -- assumption of classical behavior for rotation
           may cause significant error
 Rotational temperatures (Kelvin)      0.07225     0.05360     0.04104
 Rotational constants (GHZ):           1.50547     1.11692     0.85503
    1 imaginary frequencies ignored.
 Zero-point vibrational energy     437765.1 (Joules/Mol)
                                  104.62837 (Kcal/Mol)
 Warning -- explicit consideration of  16 degrees of freedom as
           vibrations may cause significant error
 Vibrational temperatures:     76.69   112.30   144.25   199.30   275.28
          (Kelvin)            288.01   323.49   350.05   365.42   452.41
                              457.52   596.13   661.88   689.71   725.86
                              861.92   954.87  1025.01  1128.46  1370.89
                             1449.21  1461.81  1481.33  1522.44  1548.10
                             1579.39  1665.64  1749.87  1764.75  1828.30
                             1943.73  2021.33  2035.20  2090.76  2112.42
                             2137.61  2147.11  2158.54  2170.48  2297.97
                             2347.85  2382.81  4412.36  4414.56  4515.03
                             4524.32  4535.47  4552.25  4567.01  5054.51
                             5175.96  5210.18  5384.33

 Zero-point correction=                           0.166736 (Hartree/Particle)
 Thermal correction to Energy=                    0.177854
 Thermal correction to Enthalpy=                  0.178798
 Thermal correction to Gibbs Free Energy=         0.129730
 Sum of electronic and zero-point Energies=           -841.941923
 Sum of electronic and thermal Energies=              -841.930805
 Sum of electronic and thermal Enthalpies=            -841.929861
 Sum of electronic and thermal Free Energies=         -841.978929

                     E (Thermal)             CV                S
                      KCal/Mol        Cal/Mol-Kelvin    Cal/Mol-Kelvin
 Total                  111.605             38.942            103.272
 Electronic               0.000              0.000              0.000
 Translational            0.889              2.981             40.928
 Rotational               0.889              2.981             29.793
 Vibrational            109.828             32.981             32.551
 Vibration     1          0.596              1.976              4.691
 Vibration     2          0.599              1.964              3.939
 Vibration     3          0.604              1.949              3.449
 Vibration     4          0.614              1.915              2.824
 Vibration     5          0.634              1.852              2.215
 Vibration     6          0.638              1.840              2.131
 Vibration     7          0.649              1.803              1.920
 Vibration     8          0.659              1.774              1.779
 Vibration     9          0.665              1.756              1.703
 Vibration    10          0.702              1.646              1.339
 Vibration    11          0.704              1.639              1.320
 Vibration    12          0.778              1.439              0.911
 Vibration    13          0.818              1.339              0.766
 Vibration    14          0.836              1.296              0.712
 Vibration    15          0.860              1.240              0.647
 Vibration    16          0.957              1.034              0.451

 Optimization completed.
    -- Stationary point found.
 Normal termination of Gaussian 16 at Sat Feb 13 05:28:02 2021.
