 Gaussian 16, Revision A.03,
 Gaussian 16:  ES64L-G16RevA.03 25-Dec-2016

 ----------------------------------------------------------------------
 # wB97XD def2tzvp, opt=(ts, noeigen, calcfc, maxcycles=70, maxstep=1),
  freq=noraman, scrf=(iefpcm, solvent=water)
 ----------------------------------------------------------------------

 ------------------------
 0_iteration/TS-489-0.out
 ------------------------
 Symbolic Z-matrix:
 Charge =  0 Multiplicity = 1

 SCF Done:  E(RwB97XD) =  -366.421151438     A.U. after   15 cycles
 SCF Done:  E(RwB97XD) =  -366.421128271     A.U. after   10 cycles
 SCF Done:  E(RwB97XD) =  -366.421108425     A.U. after   10 cycles
 SCF Done:  E(RwB97XD) =  -366.421091960     A.U. after   10 cycles
 SCF Done:  E(RwB97XD) =  -366.421078967     A.U. after   10 cycles
 SCF Done:  E(RwB97XD) =  -366.421069586     A.U. after   10 cycles
 SCF Done:  E(RwB97XD) =  -366.421064344     A.U. after   10 cycles
 SCF Done:  E(RwB97XD) =  -366.421065958     A.U. after   10 cycles
 SCF Done:  E(RwB97XD) =  -366.421084155     A.U. after   11 cycles
 SCF Done:  E(RwB97XD) =  -366.421111652     A.U. after   11 cycles
 SCF Done:  E(RwB97XD) =  -366.424132488     A.U. after   10 cycles
 SCF Done:  E(RwB97XD) =  -366.424159797     A.U. after   10 cycles
 SCF Done:  E(RwB97XD) =  -366.424176693     A.U. after   10 cycles
 SCF Done:  E(RwB97XD) =  -366.424184440     A.U. after   10 cycles
 SCF Done:  E(RwB97XD) =  -366.424186585     A.U. after   10 cycles
 SCF Done:  E(RwB97XD) =  -366.424185315     A.U. after   10 cycles
 SCF Done:  E(RwB97XD) =  -366.424185187     A.U. after    9 cycles
 SCF Done:  E(RwB97XD) =  -366.424185143     A.U. after    8 cycles
 SCF Done:  E(RwB97XD) =  -366.424185312     A.U. after    8 cycles
 Optimization completed on the basis of negligible forces.
    -- Stationary point found.
 Normal termination of Gaussian 16 at Sat Feb 13 04:49:37 2021.

 ---------------------------------------------------------------------
 #N Geom=AllCheck Guess=TCheck SCRF=Check GenChk RwB97XD/def2TZVP Freq
 ---------------------------------------------------------------------

 Structure from the checkpoint file:  "/beegfs/scratch/user/q/tla25/Gau-11644.chk"
 ------------------------
 0_iteration/TS-489-0.out
 ------------------------
 Charge =  0 Multiplicity = 1

                         Standard orientation:
 ---------------------------------------------------------------------
 Center     Atomic      Atomic             Coordinates (Angstroms)
 Number     Number       Type             X           Y           Z
 ---------------------------------------------------------------------
      1          6           0        1.120664    0.287710   -0.497708
      2          6           0        2.145882   -0.350193    0.210374
      3          8           0        3.275158   -0.644517   -0.221836
      4          6           0       -0.157433    0.593472    0.024266
      5          6           0       -2.649789   -1.094043   -0.022489
      6          1           0       -2.745984   -1.040339    1.059862
      7          1           0       -3.214236   -0.278692   -0.470645
      8          1           0       -3.067850   -2.041139   -0.366910
      9          7           0       -1.238567   -0.964708   -0.389480
     10          1           0       -1.112333   -1.037995   -1.392880
     11          1           0       -0.680374   -1.700243    0.028827
     12          6           0       -0.943589    1.634136   -0.734366
     13          1           0       -0.857729    1.492784   -1.811891
     14          1           0       -1.996727    1.641072   -0.454005
     15          1           0       -0.531469    2.615825   -0.490631
     16          6           0       -0.386565    0.645254    1.516536
     17          1           0        0.143416    1.510041    1.919454
     18          1           0       -1.444816    0.771425    1.743430
     19          1           0       -0.024524   -0.241702    2.033174
     20          1           0        1.307129    0.523544   -1.541713
     21          1           0        1.919181   -0.603501    1.265298
 ---------------------------------------------------------------------

 SCF Done:  E(RwB97XD) =  -366.424185312     A.U. after    1 cycles

 The electronic state is 1-A.
 Alpha  occ. eigenvalues --  -19.19077 -14.47992 -10.35173 -10.32965 -10.31756
 Alpha  occ. eigenvalues --  -10.28075 -10.27988 -10.23959  -1.08919  -1.03567
 Alpha  occ. eigenvalues --   -0.91993  -0.80750  -0.80093  -0.78673  -0.67621
 Alpha  occ. eigenvalues --   -0.62712  -0.61564  -0.58076  -0.55728  -0.54850
 Alpha  occ. eigenvalues --   -0.52748  -0.50009  -0.48685  -0.48171  -0.47775
 Alpha  occ. eigenvalues --   -0.46317  -0.44949  -0.44491  -0.43164  -0.40337
 Alpha  occ. eigenvalues --   -0.30970  -0.27290
 Alpha virt. eigenvalues --    0.05340   0.09905   0.13137   0.13847   0.14624
 Alpha virt. eigenvalues --    0.15147   0.16820   0.17868   0.18241   0.18786
 Alpha virt. eigenvalues --    0.19689   0.19778   0.21200   0.21912   0.23045

 Mulliken charges:
               1
     1  C   -0.299624
     2  C    0.107600
     3  O   -0.560887
     4  C    0.082175
     5  C   -0.290741
     6  H    0.157233
     7  H    0.151193
     8  H    0.155868
     9  N   -0.328299
    10  H    0.278635
    11  H    0.277210
    12  C   -0.355833
    13  H    0.142469
    14  H    0.133431
    15  H    0.145249
    16  C   -0.385837
    17  H    0.153734
    18  H    0.142613
    19  H    0.145149
    20  H    0.105670
    21  H    0.042992
 Sum of Mulliken charges =  -0.00000

 Dipole moment (field-independent basis, Debye):
    X=            -12.3762    Y=             -0.6127    Z=              0.6802  Tot=             12.4100
 Quadrupole moment (field-independent basis, Debye-Ang):
   XX=            -74.1832   YY=            -47.1664   ZZ=            -47.4151
   XY=              8.2482   XZ=              4.8196   YZ=              0.1102

  Exact polarizability: 172.086  -3.438 107.372  -0.397  -1.286 104.815
 Approx polarizability: 125.313  -3.262  88.441  -1.142  -0.640  86.849

 ******    1 imaginary frequencies (negative Signs) ******

                      1                      2                      3
                      A                      A                      A
 Frequencies --   -342.9191                44.8629                88.6843
 Red. masses --      5.8125                 1.7313                 4.5080
 Frc consts  --      0.4027                 0.0021                 0.0209
 IR Inten    --    842.0096                 4.1208                 4.7216

                      4                      5                      6
                      A                      A                      A
 Frequencies --    180.5016               198.3345               221.5137
 Red. masses --      1.2399                 1.7290                 2.1927
 Frc consts  --      0.0238                 0.0401                 0.0634
 IR Inten    --      0.8674                 6.9358                 7.0667

                      7                      8                      9
                      A                      A                      A
 Frequencies --    230.4379               245.4589               266.2051
 Red. masses --      2.8805                 1.2074                 1.2052
 Frc consts  --      0.0901                 0.0429                 0.0503
 IR Inten    --      1.9213                 3.2894                 1.2645

                     10                     11                     12
                      A                      A                      A
 Frequencies --    295.4048               356.4269               385.3663
 Red. masses --      2.0870                 2.5368                 3.3069
 Frc consts  --      0.1073                 0.1899                 0.2893
 IR Inten    --      1.4805                13.5444                21.6616

                     13                     14                     15
                      A                      A                      A
 Frequencies --    463.7624               473.2167               572.1694
 Red. masses --      2.8174                 2.8892                 3.8446
 Frc consts  --      0.3570                 0.3812                 0.7416
 IR Inten    --     79.8520                29.7019                48.1860

                     16                     17                     18
                      A                      A                      A
 Frequencies --    661.6269               781.7349               854.3584
 Red. masses --      1.2848                 1.2951                 3.0776
 Frc consts  --      0.3314                 0.4663                 1.3236
 IR Inten    --     23.2072               141.6722                40.6975

                     19                     20                     21
                      A                      A                      A
 Frequencies --    953.1329              1006.3831              1026.6929
 Red. masses --      1.3615                 1.1759                 1.2865
 Frc consts  --      0.7287                 0.7017                 0.7990
 IR Inten    --      1.1909                11.3298                 4.2340

                     22                     23                     24
                      A                      A                      A
 Frequencies --   1039.9661              1048.4746              1051.8282
 Red. masses --      1.5364                 1.4025                 1.6956
 Frc consts  --      0.9790                 0.9084                 1.1052
 IR Inten    --      9.3870                18.3100               330.8260

                     25                     26                     27
                      A                      A                      A
 Frequencies --   1057.0184              1108.1635              1212.0492
 Red. masses --      1.8059                 1.8817                 2.6310
 Frc consts  --      1.1888                 1.3615                 2.2772
 IR Inten    --     47.1706                36.7413                 6.2015

                     28                     29                     30
                      A                      A                      A
 Frequencies --   1235.2155              1247.7471              1341.0867
 Red. masses --      1.3957                 1.8330                 1.5343
 Frc consts  --      1.2546                 1.6814                 1.6258
 IR Inten    --     29.6092               243.5347                28.1334

                     31                     32                     33
                      A                      A                      A
 Frequencies --   1356.0210              1387.4895              1415.6145
 Red. masses --      1.6725                 1.5834                 1.3420
 Frc consts  --      1.8120                 1.7959                 1.5845
 IR Inten    --     54.5644               509.9255                55.0387

                     34                     35                     36
                      A                      A                      A
 Frequencies --   1422.4761              1459.0508              1473.3079
 Red. masses --      1.2720                 1.2156                 1.2033
 Frc consts  --      1.5165                 1.5247                 1.5388
 IR Inten    --     19.1544                 5.4696                29.3692

                     37                     38                     39
                      A                      A                      A
 Frequencies --   1478.9821              1485.8288              1493.4525
 Red. masses --      1.0728                 1.1261                 1.0755
 Frc consts  --      1.3825                 1.4648                 1.4133
 IR Inten    --      2.3440                 6.4909                11.5593

                     40                     41                     42
                      A                      A                      A
 Frequencies --   1499.7271              1511.9935              1529.1269
 Red. masses --      1.0632                 1.0322                 1.9552
 Frc consts  --      1.4089                 1.3903                 2.6935
 IR Inten    --     26.4820                13.2384                91.3017

                     43                     44                     45
                      A                      A                      A
 Frequencies --   1637.4553              1646.7337              2908.2357
 Red. masses --      1.4845                 2.1102                 1.0796
 Frc consts  --      2.3451                 3.3715                 5.3797
 IR Inten    --    774.3124               661.8671               170.1498

                     46                     47                     48
                      A                      A                      A
 Frequencies --   3058.6537              3068.0386              3069.3178
 Red. masses --      1.0363                 1.0365                 1.0372
 Frc consts  --      5.7120                 5.7483                 5.7572
 IR Inten    --     18.0897                41.5239                29.0607

                     49                     50                     51
                      A                      A                      A
 Frequencies --   3129.8332              3138.8669              3144.9023
 Red. masses --      1.1003                 1.1009                 1.1016
 Frc consts  --      6.3507                 6.3908                 6.4192
 IR Inten    --     20.9813                25.2392                 9.4864

                     52                     53                     54
                      A                      A                      A
 Frequencies --   3148.4009              3156.9127              3158.2903
 Red. masses --      1.1033                 1.0880                 1.1023
 Frc consts  --      6.4435                 6.3883                 6.4782
 IR Inten    --     34.2114                38.8139                29.5291

                     55                     56                     57
                      A                      A                      A
 Frequencies --   3173.2022              3521.0574              3601.1121
 Red. masses --      1.1058                 1.0516                 1.0959
 Frc consts  --      6.5605                 7.6813                 8.3735
 IR Inten    --     14.1130                15.8561                34.8797

 - Thermochemistry -
 -------------------
 Temperature   298.150 Kelvin.  Pressure   1.00000 Atm.
 Atom     1 has atomic number  6 and mass  12.00000

 Molecular mass:   115.09971 amu.
 Principal axes and moments of inertia in atomic units:
                           1         2         3
     Eigenvalues --   589.659291655.566401798.25924
           X            0.99985   0.01625   0.00520
           Y           -0.01607   0.99933  -0.03303
           Z           -0.00573   0.03294   0.99944
 This molecule is an asymmetric top.
 Rotational symmetry number  1.
 Warning -- assumption of classical behavior for rotation
           may cause significant error
 Rotational temperatures (Kelvin)      0.14689     0.05232     0.04817
 Rotational constants (GHZ):           3.06065     1.09010     1.00360
    1 imaginary frequencies ignored.
 Zero-point vibrational energy     488805.6 (Joules/Mol)
                                  116.82733 (Kcal/Mol)
 Warning -- explicit consideration of  14 degrees of freedom as
           vibrations may cause significant error
 Vibrational temperatures:     64.55   127.60   259.70   285.36   318.71
          (Kelvin)            331.55   353.16   383.01   425.02   512.82
                              554.46   667.25   680.85   823.22   951.93
                             1124.74  1229.23  1371.35  1447.96  1477.18
                             1496.28  1508.52  1513.35  1520.81  1594.40
                             1743.87  1777.20  1795.23  1929.52  1951.01
                             1996.29  2036.75  2046.63  2099.25  2119.76
                             2127.93  2137.78  2148.75  2157.77  2175.42
                             2200.07  2355.93  2369.28  4184.30  4400.72
                             4414.22  4416.06  4503.13  4516.13  4524.81
                             4529.85  4542.09  4544.08  4565.53  5066.02
                             5181.20

 Zero-point correction=                           0.186176 (Hartree/Particle)
 Thermal correction to Energy=                    0.196209
 Thermal correction to Enthalpy=                  0.197154
 Thermal correction to Gibbs Free Energy=         0.151167
 Sum of electronic and zero-point Energies=           -366.238009
 Sum of electronic and thermal Energies=              -366.227976
 Sum of electronic and thermal Enthalpies=            -366.227032
 Sum of electronic and thermal Free Energies=         -366.273019

                     E (Thermal)             CV                S
                      KCal/Mol        Cal/Mol-Kelvin    Cal/Mol-Kelvin
 Total                  123.123             35.899             96.787
 Electronic               0.000              0.000              0.000
 Translational            0.889              2.981             40.137
 Rotational               0.889              2.981             28.953
 Vibrational            121.346             29.938             27.697
 Vibration     1          0.595              1.979              5.032
 Vibration     2          0.602              1.957              3.689
 Vibration     3          0.629              1.866              2.323
 Vibration     4          0.637              1.842              2.148
 Vibration     5          0.648              1.808              1.947
 Vibration     6          0.652              1.794              1.876
 Vibration     7          0.660              1.770              1.763
 Vibration     8          0.672              1.735              1.621
 Vibration     9          0.690              1.682              1.443
 Vibration    10          0.732              1.562              1.138
 Vibration    11          0.754              1.501              1.018
 Vibration    12          0.821              1.330              0.755
 Vibration    13          0.830              1.309              0.729
 Vibration    14          0.928              1.091              0.500

 Optimization completed on the basis of negligible forces.
    -- Stationary point found.
 Normal termination of Gaussian 16 at Sat Feb 13 04:57:45 2021.
