 Gaussian 16, Revision A.03,
 Gaussian 16:  ES64L-G16RevA.03 25-Dec-2016

 ----------------------------------------------------------------------
 # wB97XD def2tzvp, opt=(ts, noeigen, calcfc, maxcycles=70, maxstep=8),
  freq=noraman, scrf=(iefpcm, solvent=water)
 ----------------------------------------------------------------------

 ------------------------
 1_iteration/TS-409-1.out
 ------------------------
 Symbolic Z-matrix:
 Charge =  0 Multiplicity = 1

 SCF Done:  E(RwB97XD) =  -558.155426060     A.U. after   15 cycles
 Optimization completed.
    -- Stationary point found.
 Normal termination of Gaussian 16 at Sat Feb 13 23:30:18 2021.

 ---------------------------------------------------------------------
 #N Geom=AllCheck Guess=TCheck SCRF=Check GenChk RwB97XD/def2TZVP Freq
 ---------------------------------------------------------------------

 Structure from the checkpoint file:  "/beegfs/scratch/user/q/tla25/Gau-34856.chk"
 ------------------------
 1_iteration/TS-409-1.out
 ------------------------
 Charge =  0 Multiplicity = 1

                         Standard orientation:
 ---------------------------------------------------------------------
 Center     Atomic      Atomic             Coordinates (Angstroms)
 Number     Number       Type             X           Y           Z
 ---------------------------------------------------------------------
      1          6           0        1.978568   -0.487865    0.358730
      2          6           0        1.905506   -1.781685   -0.171480
      3          8           0        2.856254   -2.577367   -0.290850
      4          6           0        0.908090    0.434557    0.509810
      5          6           0        0.143875    2.764559   -1.117650
      6          1           0        0.124896    3.419789   -0.249930
      7          1           0        0.393596    3.353298   -2.000610
      8          1           0       -0.840006    2.318771   -1.250220
      9          7           0        1.124373    1.698347   -0.897860
     10          1           0        1.226522    1.113846   -1.719500
     11          1           0        2.043674    2.080165   -0.702610
     12          6           0        1.069512    1.401197    1.665620
     13          1           0        0.964041    0.856937    2.604460
     14          1           0        2.069073    1.835255    1.657620
     15          1           0        0.330634    2.201588    1.652580
     16          6           0       -0.500791   -0.028410    0.252640
     17          6           0       -0.909282   -0.473699   -1.004800
     18          6           0       -2.205193   -0.909456   -1.224290
     19          6           0       -3.124773   -0.915004   -0.185350
     20          6           0       -2.734222   -0.475415    1.069050
     21          6           0       -1.437531   -0.029908    1.282950
     22          1           0       -0.211892   -0.484490   -1.832580
     23          1           0       -2.496013   -1.245276   -2.211430
     24          1           0       -4.138243   -1.255332   -0.354890
     25          1           0       -3.440952   -0.472104    1.889140
     26          1           0       -1.160700    0.310342    2.271240
     27          1           0        2.950209   -0.166427    0.724490
     28          1           0        0.901955   -2.129073   -0.477310
 ---------------------------------------------------------------------

 SCF Done:  E(RwB97XD) =  -558.155426060     A.U. after    1 cycles

 The electronic state is 1-A.
 Alpha  occ. eigenvalues --  -19.18958 -14.48970 -10.36023 -10.32898 -10.31973
 Alpha  occ. eigenvalues --  -10.30875 -10.29648 -10.29512 -10.29403 -10.29352
 Alpha  occ. eigenvalues --  -10.29278 -10.28372 -10.24434  -1.08803  -1.04526
 Alpha  occ. eigenvalues --   -0.97596  -0.91769  -0.85756  -0.84541  -0.80866
 Alpha  occ. eigenvalues --   -0.79136  -0.72892  -0.70824  -0.67564  -0.64779
 Alpha  occ. eigenvalues --   -0.63043  -0.59854  -0.58265  -0.56526  -0.55265
 Alpha  occ. eigenvalues --   -0.54895  -0.53318  -0.51520  -0.51223  -0.49388
 Alpha  occ. eigenvalues --   -0.48604  -0.47724  -0.46938  -0.46583  -0.46235
 Alpha  occ. eigenvalues --   -0.44774  -0.43550  -0.42308  -0.41346  -0.34393
 Alpha  occ. eigenvalues --   -0.34085  -0.30642  -0.27173
 Alpha virt. eigenvalues --    0.02988   0.04819   0.07225   0.10074   0.12563
 Alpha virt. eigenvalues --    0.13192   0.13669   0.14487   0.16155   0.16774
 Alpha virt. eigenvalues --    0.17171   0.17974   0.18420   0.18780   0.19246

 Mulliken charges:
               1
     1  C   -0.353581
     2  C    0.119046
     3  O   -0.561960
     4  C    0.192219
     5  C   -0.285100
     6  H    0.156371
     7  H    0.158791
     8  H    0.158688
     9  N   -0.310321
    10  H    0.276175
    11  H    0.285065
    12  C   -0.407733
    13  H    0.153758
    14  H    0.156131
    15  H    0.154755
    16  C    0.177381
    17  C   -0.357145
    18  C   -0.121204
    19  C   -0.149577
    20  C   -0.151292
    21  C   -0.225477
    22  H    0.169482
    23  H    0.145754
    24  H    0.145952
    25  H    0.144680
    26  H    0.153611
    27  H    0.102485
    28  H    0.073048
 Sum of Mulliken charges =  -0.00000

 Dipole moment (field-independent basis, Debye):
    X=             -5.9634    Y=             11.3825    Z=             -1.5792  Tot=             12.9467
 Quadrupole moment (field-independent basis, Debye-Ang):
   XX=            -92.4077   YY=            -86.8961   ZZ=            -69.1911
   XY=             28.6085   XZ=             -0.5809   YZ=             -3.2828

  Exact polarizability: 225.819 -11.033 203.739  -0.318   9.110 183.426
 Approx polarizability: 174.934  -4.615 158.654  -1.955   8.806 157.582

 ******    1 imaginary frequencies (negative Signs) ******

                      1                      2                      3
                      A                      A                      A
 Frequencies --   -334.7181                53.8328                76.9599
 Red. masses --      5.8846                 3.7316                 3.8079
 Frc consts  --      0.3884                 0.0064                 0.0133
 IR Inten    --    866.7993                 6.6931                 1.4742

                      4                      5                      6
                      A                      A                      A
 Frequencies --     89.5782               102.6485               149.5023
 Red. masses --      2.6394                 2.9208                 1.8859
 Frc consts  --      0.0125                 0.0181                 0.0248
 IR Inten    --      3.7263                 7.7314                 0.6432

                      7                      8                      9
                      A                      A                      A
 Frequencies --    194.7212               213.1042               246.6604
 Red. masses --      1.9985                 1.9787                 3.2904
 Frc consts  --      0.0446                 0.0529                 0.1180
 IR Inten    --      4.4495                 4.0267                 6.3536

                     10                     11                     12
                      A                      A                      A
 Frequencies --    265.0248               315.0034               329.4491
 Red. masses --      2.7240                 1.6129                 1.6061
 Frc consts  --      0.1127                 0.0943                 0.1027
 IR Inten    --      6.8074                 9.5863                 2.4516

                     13                     14                     15
                      A                      A                      A
 Frequencies --    353.7318               360.4935               375.0916
 Red. masses --      3.5911                 3.6568                 4.2061
 Frc consts  --      0.2647                 0.2800                 0.3487
 IR Inten    --     16.8641                 5.2795                19.8233

                     16                     17                     18
                      A                      A                      A
 Frequencies --    427.2870               471.8282               521.3657
 Red. masses --      2.9358                 3.8940                 3.0115
 Frc consts  --      0.3158                 0.5108                 0.4823
 IR Inten    --      0.2765                82.6099                41.1729

                     19                     20                     21
                      A                      A                      A
 Frequencies --    582.9645               632.1951               639.0930
 Red. masses --      3.4357                 3.9556                 6.2491
 Frc consts  --      0.6879                 0.9315                 1.5038
 IR Inten    --    105.1780                80.2050                 1.4573

                     22                     23                     24
                      A                      A                      A
 Frequencies --    690.1551               731.4335               771.4195
 Red. masses --      1.3713                 1.5312                 3.8958
 Frc consts  --      0.3848                 0.4826                 1.3659
 IR Inten    --     38.0247                85.1060                 2.5514

                     25                     26                     27
                      A                      A                      A
 Frequencies --    784.6147               807.3183               880.4905
 Red. masses --      1.3745                 2.0948                 1.2463
 Frc consts  --      0.4985                 0.8044                 0.5693
 IR Inten    --    120.9818                43.5576                 0.4291

                     28                     29                     30
                      A                      A                      A
 Frequencies --    962.8649              1009.0537              1015.8690
 Red. masses --      1.4036                 1.3572                 1.3731
 Frc consts  --      0.7667                 0.8142                 0.8349
 IR Inten    --      2.4432                24.9565                 1.4341

                     31                     32                     33
                      A                      A                      A
 Frequencies --   1019.1175              1026.9973              1032.2787
 Red. masses --      1.4171                 5.7106                 1.3102
 Frc consts  --      0.8671                 3.5487                 0.8226
 IR Inten    --     79.7582                 3.5981                 0.0927

                     34                     35                     36
                      A                      A                      A
 Frequencies --   1037.2819              1045.7543              1047.8518
 Red. masses --      1.6419                 1.5761                 1.3971
 Frc consts  --      1.0409                 1.0156                 0.9038
 IR Inten    --    139.3981                50.7011                39.0193

                     37                     38                     39
                      A                      A                      A
 Frequencies --   1062.6786              1084.3838              1113.8013
 Red. masses --      2.5833                 2.2190                 1.9258
 Frc consts  --      1.7188                 1.5373                 1.4076
 IR Inten    --     11.8096                64.1574                11.0444

                     40                     41                     42
                      A                      A                      A
 Frequencies --   1132.8655              1186.8781              1209.3903
 Red. masses --      1.8129                 1.1295                 2.5976
 Frc consts  --      1.3709                 0.9374                 2.2385
 IR Inten    --     11.6210                 0.4736                97.4557

                     43                     44                     45
                      A                      A                      A
 Frequencies --   1224.6455              1244.4343              1255.4728
 Red. masses --      1.1507                 1.3840                 1.9171
 Frc consts  --      1.0168                 1.2628                 1.7804
 IR Inten    --      2.3067                56.8229               185.6877

                     46                     47                     48
                      A                      A                      A
 Frequencies --   1320.4959              1340.1800              1368.2546
 Red. masses --      4.3977                 1.3286                 1.9421
 Frc consts  --      4.5181                 1.4059                 2.1421
 IR Inten    --     30.0083                 2.8517               112.6460

                     49                     50                     51
                      A                      A                      A
 Frequencies --   1371.9237              1391.5133              1422.9317
 Red. masses --      1.9909                 1.4037                 1.2542
 Frc consts  --      2.2078                 1.6013                 1.4962
 IR Inten    --    217.8077               292.0601                30.1520

                     52                     53                     54
                      A                      A                      A
 Frequencies --   1460.6646              1481.7458              1488.5106
 Red. masses --      1.1852                 2.1438                 1.1221
 Frc consts  --      1.4899                 2.7732                 1.4649
 IR Inten    --      1.9020                26.5201                 0.5772

                     55                     56                     57
                      A                      A                      A
 Frequencies --   1493.3384              1498.3485              1504.2855
 Red. masses --      1.0509                 1.5189                 1.2547
 Frc consts  --      1.3808                 2.0092                 1.6729
 IR Inten    --     12.8119                 2.5046                51.1411

                     58                     59                     60
                      A                      A                      A
 Frequencies --   1515.7069              1549.8757              1635.8832
 Red. masses --      1.2393                 2.2991                 3.1642
 Frc consts  --      1.6775                 3.2538                 4.9891
 IR Inten    --     29.5983                12.2029              1445.4631

                     61                     62                     63
                      A                      A                      A
 Frequencies --   1646.5809              1653.3743              1678.1672
 Red. masses --      1.2734                 4.2825                 5.7278
 Frc consts  --      2.0342                 6.8975                 9.5041
 IR Inten    --     72.5608                 7.2428                 1.0518

                     64                     65                     66
                      A                      A                      A
 Frequencies --   2950.2817              3068.6229              3074.6305
 Red. masses --      1.0806                 1.0360                 1.0346
 Frc consts  --      5.5416                 5.7478                 5.7624
 IR Inten    --    148.2758                13.7326                44.0773

                     67                     68                     69
                      A                      A                      A
 Frequencies --   3142.2275              3150.5920              3153.2783
 Red. masses --      1.1010                 1.0889                 1.1029
 Frc consts  --      6.4050                 6.3682                 6.4612
 IR Inten    --     16.5550                27.3687                19.1805

                     70                     71                     72
                      A                      A                      A
 Frequencies --   3155.6531              3176.8900              3196.7905
 Red. masses --      1.1030                 1.1057                 1.0859
 Frc consts  --      6.4717                 6.5747                 6.5384
 IR Inten    --     41.9237                11.4358                 2.5053

                     73                     74                     75
                      A                      A                      A
 Frequencies --   3203.3125              3212.2782              3221.9234
 Red. masses --      1.0887                 1.0930                 1.0961
 Frc consts  --      6.5820                 6.6447                 6.7041
 IR Inten    --      3.9073                28.3512                23.1700

                     76                     77                     78
                      A                      A                      A
 Frequencies --   3229.7412              3523.4101              3599.7207
 Red. masses --      1.0954                 1.0519                 1.0952
 Frc consts  --      6.7321                 7.6943                 8.3614
 IR Inten    --      8.8917                18.9555                37.3107

 - Thermochemistry -
 -------------------
 Temperature   298.150 Kelvin.  Pressure   1.00000 Atm.
 Atom     1 has atomic number  6 and mass  12.00000

 Molecular mass:   177.11536 amu.
 Principal axes and moments of inertia in atomic units:
                           1         2         3
     Eigenvalues --  1964.486332840.716383589.85707
           X            0.99734   0.07257   0.00682
           Y           -0.07257   0.99736   0.00000
           Z           -0.00680  -0.00050   0.99998
 This molecule is an asymmetric top.
 Rotational symmetry number  1.
 Warning -- assumption of classical behavior for rotation
           may cause significant error
 Rotational temperatures (Kelvin)      0.04409     0.03049     0.02413
 Rotational constants (GHZ):           0.91868     0.63531     0.50273
    1 imaginary frequencies ignored.
 Zero-point vibrational energy     631979.5 (Joules/Mol)
                                  151.04672 (Kcal/Mol)
 Warning -- explicit consideration of  18 degrees of freedom as
           vibrations may cause significant error
 Vibrational temperatures:     77.45   110.73   128.88   147.69   215.10
          (Kelvin)            280.16   306.61   354.89   381.31   453.22
                              474.00   508.94   518.67   539.67   614.77
                              678.86   750.13   838.76   909.59   919.51
                              992.98  1052.37  1109.90  1128.89  1161.55
                             1266.83  1385.35  1451.80  1461.61  1466.28
                             1477.62  1485.22  1492.42  1504.61  1507.63
                             1528.96  1560.19  1602.51  1629.94  1707.65
                             1740.04  1761.99  1790.46  1806.35  1899.90
                             1928.22  1968.61  1973.89  2002.08  2047.28
                             2101.57  2131.90  2141.63  2148.58  2155.79
                             2164.33  2180.76  2229.93  2353.67  2369.06
                             2378.84  2414.51  4244.80  4415.06  4423.71
                             4520.96  4533.00  4536.86  4540.28  4570.84
                             4599.47  4608.85  4621.75  4635.63  4646.88
                             5069.40  5179.20

 Zero-point correction=                           0.240708 (Hartree/Particle)
 Thermal correction to Energy=                    0.253467
 Thermal correction to Enthalpy=                  0.254411
 Thermal correction to Gibbs Free Energy=         0.201664
 Sum of electronic and zero-point Energies=           -557.914718
 Sum of electronic and thermal Energies=              -557.901959
 Sum of electronic and thermal Enthalpies=            -557.901015
 Sum of electronic and thermal Free Energies=         -557.953762

                     E (Thermal)             CV                S
                      KCal/Mol        Cal/Mol-Kelvin    Cal/Mol-Kelvin
 Total                  159.053             48.615            111.015
 Electronic               0.000              0.000              0.000
 Translational            0.889              2.981             41.422
 Rotational               0.889              2.981             31.372
 Vibrational            157.275             42.654             38.222
 Vibration     1          0.596              1.976              4.671
 Vibration     2          0.599              1.965              3.967
 Vibration     3          0.602              1.957              3.669
 Vibration     4          0.605              1.947              3.403
 Vibration     5          0.618              1.903              2.679
 Vibration     6          0.635              1.847              2.182
 Vibration     7          0.644              1.821              2.017
 Vibration     8          0.661              1.768              1.754
 Vibration     9          0.671              1.737              1.628
 Vibration    10          0.702              1.645              1.336
 Vibration    11          0.712              1.617              1.263
 Vibration    12          0.730              1.568              1.150
 Vibration    13          0.735              1.554              1.120
 Vibration    14          0.746              1.523              1.059
 Vibration    15          0.789              1.411              0.868
 Vibration    16          0.829              1.313              0.732
 Vibration    17          0.876              1.203              0.607
 Vibration    18          0.940              1.068              0.480

 Optimization completed.
    -- Stationary point found.
 Normal termination of Gaussian 16 at Sun Feb 14 00:15:02 2021.
