 Gaussian 16, Revision A.03,
 Gaussian 16:  ES64L-G16RevA.03 25-Dec-2016

 ----------------------------------------------------------------------
 # wB97XD def2tzvp, opt=(ts, noeigen, calcfc, maxcycles=70, maxstep=5),
  freq=noraman, scrf=(iefpcm, solvent=water)
 ----------------------------------------------------------------------

 ------------------------
 2_iteration/TS-438-2.out
 ------------------------
 Symbolic Z-matrix:
 Charge =  0 Multiplicity = 1

 SCF Done:  E(RwB97XD) =  -1151.75921619     A.U. after   15 cycles
 SCF Done:  E(RwB97XD) =  -1151.75942295     A.U. after   10 cycles
 SCF Done:  E(RwB97XD) =  -1151.75958142     A.U. after   10 cycles
 SCF Done:  E(RwB97XD) =  -1151.75969735     A.U. after   10 cycles
 SCF Done:  E(RwB97XD) =  -1151.75981886     A.U. after   10 cycles
 SCF Done:  E(RwB97XD) =  -1151.75988275     A.U. after   10 cycles
 SCF Done:  E(RwB97XD) =  -1151.75988918     A.U. after   10 cycles
 SCF Done:  E(RwB97XD) =  -1151.75989119     A.U. after   10 cycles
 SCF Done:  E(RwB97XD) =  -1151.75989172     A.U. after    8 cycles
 Optimization completed.
    -- Stationary point found.
 Normal termination of Gaussian 16 at Sun Feb 14 18:44:23 2021.

 ---------------------------------------------------------------------
 #N Geom=AllCheck Guess=TCheck SCRF=Check GenChk RwB97XD/def2TZVP Freq
 ---------------------------------------------------------------------

 Structure from the checkpoint file:  "/beegfs/scratch/user/q/tla25/Gau-87978.chk"
 ------------------------
 2_iteration/TS-438-2.out
 ------------------------
 Charge =  0 Multiplicity = 1

                         Standard orientation:
 ---------------------------------------------------------------------
 Center     Atomic      Atomic             Coordinates (Angstroms)
 Number     Number       Type             X           Y           Z
 ---------------------------------------------------------------------
      1          6           0       -0.858437    0.396085   -0.431339
      2          6           0       -1.291077   -0.571134    0.547086
      3          8           0       -0.685959   -0.687731    1.637066
      4          6           0        0.433624    0.972303   -0.358916
      5          6           0       -0.464580    2.853321    1.530490
      6          1           0       -0.593638    3.081385    2.589107
      7          1           0       -0.161160    3.757656    1.006801
      8          1           0       -1.415476    2.506936    1.127655
      9          7           0        0.530603    1.806347    1.334062
     10          1           0        1.454131    2.113841    1.610370
     11          1           0        0.275634    0.959898    1.851174
     12          6           0        0.748731    2.120198   -1.291903
     13          1           0        0.774105    1.746510   -2.316945
     14          1           0       -0.005190    2.902081   -1.238593
     15          1           0        1.723442    2.547693   -1.064372
     16          6           0        1.608112    0.013668   -0.233105
     17          6           0        1.483950   -1.312126   -0.640202
     18          6           0        2.563807   -2.180625   -0.597557
     19          6           0        3.801498   -1.738653   -0.156754
     20          6           0        3.948716   -0.414477    0.227450
     21          6           0        2.866177    0.449820    0.181704
     22          1           0        0.528906   -1.664464   -1.004292
     23          1           0        2.434848   -3.207412   -0.916345
     24          1           0        4.645893   -2.415249   -0.123149
     25          1           0        4.911288   -0.046788    0.559651
     26          1           0        3.028691    1.482270    0.463866
     27         17           0       -2.119017    1.251027   -1.341721
     28          7           0       -2.381762   -1.356500    0.303242
     29          6           0       -2.778418   -1.775062   -1.024989
     30          6           0       -2.934957   -2.139788    1.385407
     31          1           0       -2.064700   -1.418590   -1.762439
     32          1           0       -2.797045   -2.868114   -1.065069
     33          1           0       -3.771860   -1.403873   -1.289219
     34          1           0       -2.803712   -1.616447    2.328667
     35          1           0       -4.000678   -2.290154    1.204848
     36          1           0       -2.457277   -3.122888    1.465667
 ---------------------------------------------------------------------

 SCF Done:  E(RwB97XD) =  -1151.75989172     A.U. after    1 cycles

 The electronic state is 1-A.
 Alpha  occ. eigenvalues -- -101.67918 -19.20128 -14.47286 -14.44970 -10.37355
 Alpha  occ. eigenvalues --  -10.35646 -10.31232 -10.30564 -10.30388 -10.30133
 Alpha  occ. eigenvalues --  -10.29388 -10.29204 -10.29159 -10.29051 -10.28989
 Alpha  occ. eigenvalues --  -10.28888 -10.28137  -9.56444  -7.31059  -7.30248
 Alpha  occ. eigenvalues --   -7.30226  -1.12622  -1.03449  -1.02367  -0.97309
 Alpha  occ. eigenvalues --   -0.95046  -0.89580  -0.85342  -0.83465  -0.81850
 Alpha  occ. eigenvalues --   -0.80191  -0.78552  -0.76856  -0.71144  -0.70273
 Alpha  occ. eigenvalues --   -0.66458  -0.63663  -0.61795  -0.60748  -0.58015
 Alpha  occ. eigenvalues --   -0.57035  -0.56128  -0.55680  -0.55140  -0.54096
 Alpha  occ. eigenvalues --   -0.53364  -0.51773  -0.51036  -0.50197  -0.49186
 Alpha  occ. eigenvalues --   -0.48177  -0.48075  -0.47727  -0.47343  -0.46565
 Alpha  occ. eigenvalues --   -0.46336  -0.45833  -0.45083  -0.42909  -0.42564
 Alpha  occ. eigenvalues --   -0.41388  -0.40674  -0.38734  -0.34741  -0.33854
 Alpha  occ. eigenvalues --   -0.32757  -0.31407  -0.25592
 Alpha virt. eigenvalues --    0.03311   0.05210   0.07569   0.10346   0.11967
 Alpha virt. eigenvalues --    0.12044   0.13586   0.14666   0.15314   0.15580
 Alpha virt. eigenvalues --    0.16372   0.16507   0.17157   0.17898   0.18239

 Mulliken charges:
               1
     1  C   -0.399219
     2  C    0.308972
     3  O   -0.590005
     4  C    0.340316
     5  C   -0.316870
     6  H    0.152890
     7  H    0.156194
     8  H    0.153068
     9  N   -0.288535
    10  H    0.260632
    11  H    0.277364
    12  C   -0.380403
    13  H    0.151109
    14  H    0.143413
    15  H    0.144727
    16  C    0.151669
    17  C   -0.193596
    18  C   -0.163847
    19  C   -0.137354
    20  C   -0.176321
    21  C   -0.276305
    22  H    0.163080
    23  H    0.139220
    24  H    0.143694
    25  H    0.142496
    26  H    0.154680
    27  Cl  -0.197380
    28  N   -0.101771
    29  C   -0.295994
    30  C   -0.293574
    31  H    0.153531
    32  H    0.132733
    33  H    0.138315
    34  H    0.136729
    35  H    0.137264
    36  H    0.129079
 Sum of Mulliken charges =   0.00000

 Dipole moment (field-independent basis, Debye):
    X=              2.8276    Y=              2.6845    Z=              0.9569  Tot=              4.0147
 Quadrupole moment (field-independent basis, Debye-Ang):
   XX=           -100.1402   YY=            -93.0588   ZZ=           -113.1781
   XY=              9.5380   XZ=              1.1702   YZ=             11.6290

  Exact polarizability: 291.041  11.354 274.535  22.809  10.455 212.699
 Approx polarizability: 226.699   6.834 219.715  20.421   9.016 184.665

 ******    1 imaginary frequencies (negative Signs) ******

                      1                      2                      3
                      A                      A                      A
 Frequencies --   -395.5265                51.8535                57.2716
 Red. masses --      5.3746                 4.1187                 3.7914
 Frc consts  --      0.4954                 0.0065                 0.0073
 IR Inten    --    693.5460                 2.1202                 0.5465

                      4                      5                      6
                      A                      A                      A
 Frequencies --     68.9009                81.9564               105.2200
 Red. masses --      3.9085                 2.9364                 3.4728
 Frc consts  --      0.0109                 0.0116                 0.0227
 IR Inten    --      2.8737                 1.5278                 2.5493

                      7                      8                      9
                      A                      A                      A
 Frequencies --    112.1406               128.7260               151.7795
 Red. masses --      3.1259                 1.6768                 4.3853
 Frc consts  --      0.0232                 0.0164                 0.0595
 IR Inten    --      1.6232                 2.0471                15.1320

                     10                     11                     12
                      A                      A                      A
 Frequencies --    170.6526               175.5007               193.0862
 Red. masses --      1.4596                 1.6810                 1.7342
 Frc consts  --      0.0250                 0.0305                 0.0381
 IR Inten    --      6.2597                25.5229                12.7324

                     13                     14                     15
                      A                      A                      A
 Frequencies --    218.7869               231.5010               244.4979
 Red. masses --      3.1588                 2.4060                 2.7622
 Frc consts  --      0.0891                 0.0760                 0.0973
 IR Inten    --      0.9507                 7.1421                 7.5717

                     16                     17                     18
                      A                      A                      A
 Frequencies --    263.2992               277.1333               299.4265
 Red. masses --      1.7904                 2.9065                 2.0866
 Frc consts  --      0.0731                 0.1315                 0.1102
 IR Inten    --      4.5007                 0.3336                22.1445

                     19                     20                     21
                      A                      A                      A
 Frequencies --    318.1465               331.3047               338.3354
 Red. masses --      2.5551                 4.4491                 2.5282
 Frc consts  --      0.1524                 0.2877                 0.1705
 IR Inten    --      6.0696                 1.1611                21.5172

                     22                     23                     24
                      A                      A                      A
 Frequencies --    367.7879               421.5543               427.8563
 Red. masses --      3.2836                 4.7575                 2.9478
 Frc consts  --      0.2617                 0.4981                 0.3179
 IR Inten    --     38.7264                12.2934                 0.5264

                     25                     26                     27
                      A                      A                      A
 Frequencies --    437.7017               512.0539               563.8916
 Red. masses --      3.2021                 4.1828                 3.3632
 Frc consts  --      0.3614                 0.6462                 0.6301
 IR Inten    --      5.2171                 6.7610                11.1771

                     28                     29                     30
                      A                      A                      A
 Frequencies --    572.2562               631.8472               639.9995
 Red. masses --      3.9814                 4.1645                 6.3091
 Frc consts  --      0.7682                 0.9796                 1.5226
 IR Inten    --    164.6964                13.8566                 2.7810

                     31                     32                     33
                      A                      A                      A
 Frequencies --    675.1931               729.6771               730.7432
 Red. masses --      5.7829                 1.5726                 1.7943
 Frc consts  --      1.5533                 0.4933                 0.5645
 IR Inten    --     11.2464               140.3477                48.0235

                     34                     35                     36
                      A                      A                      A
 Frequencies --    788.3475               795.1967               814.2235
 Red. masses --      6.9965                 2.0335                 2.9041
 Frc consts  --      2.5619                 0.7576                 1.1343
 IR Inten    --     37.9609                38.5099                31.8007

                     37                     38                     39
                      A                      A                      A
 Frequencies --    881.5174               903.3124               964.2454
 Red. masses --      1.2409                 4.8671                 1.3918
 Frc consts  --      0.5681                 2.3399                 0.7624
 IR Inten    --      0.9121                30.6818                11.7402

                     40                     41                     42
                      A                      A                      A
 Frequencies --   1009.6702              1024.2988              1026.2969
 Red. masses --      1.2731                 2.6350                 1.6226
 Frc consts  --      0.7647                 1.6288                 1.0069
 IR Inten    --     14.5064                 6.5424                20.2939

                     43                     44                     45
                      A                      A                      A
 Frequencies --   1028.8857              1031.5870              1048.4054
 Red. masses --      2.0424                 1.3575                 2.0534
 Frc consts  --      1.2739                 0.8512                 1.3298
 IR Inten    --     26.7735                 4.3747               121.7168

                     46                     47                     48
                      A                      A                      A
 Frequencies --   1061.1905              1069.9191              1088.8279
 Red. masses --      2.2455                 1.8562                 2.5399
 Frc consts  --      1.4899                 1.2519                 1.7741
 IR Inten    --     19.5170                62.8689                 8.5497

                     49                     50                     51
                      A                      A                      A
 Frequencies --   1092.1100              1096.3839              1124.6611
 Red. masses --      1.4517                 1.3893                 1.6424
 Frc consts  --      1.0201                 0.9839                 1.2240
 IR Inten    --     76.9209                72.4031                 3.2867

                     52                     53                     54
                      A                      A                      A
 Frequencies --   1133.8484              1135.0123              1168.4752
 Red. masses --      1.4322                 1.6686                 1.3992
 Frc consts  --      1.0848                 1.2665                 1.1256
 IR Inten    --     11.7774                12.0136                14.3409

                     55                     56                     57
                      A                      A                      A
 Frequencies --   1185.8704              1219.4753              1232.3715
 Red. masses --      1.1257                 1.1637                 2.3616
 Frc consts  --      0.9327                 1.0196                 2.1132
 IR Inten    --      0.1270                12.5817               129.7077

                     58                     59                     60
                      A                      A                      A
 Frequencies --   1247.9612              1275.3869              1313.9984
 Red. masses --      1.5772                 4.1897                 4.8740
 Frc consts  --      1.4472                 4.0153                 4.9582
 IR Inten    --     77.8835               120.7176                13.6913

                     61                     62                     63
                      A                      A                      A
 Frequencies --   1320.5853              1356.6846              1376.2093
 Red. masses --      4.4021                 1.6219                 1.4040
 Frc consts  --      4.5232                 1.7589                 1.5667
 IR Inten    --     18.3820                69.6197                61.0971

                     64                     65                     66
                      A                      A                      A
 Frequencies --   1387.2383              1419.6306              1431.3052
 Red. masses --      2.4538                 1.2835                 1.8827
 Frc consts  --      2.7822                 1.5240                 2.2724
 IR Inten    --    606.1464                65.8077               213.0060

                     67                     68                     69
                      A                      A                      A
 Frequencies --   1447.2514              1454.7634              1474.6756
 Red. masses --      1.2710                 1.2011                 1.1542
 Frc consts  --      1.5685                 1.4977                 1.4788
 IR Inten    --     71.0183                 3.4827                61.8868

                     70                     71                     72
                      A                      A                      A
 Frequencies --   1481.4007              1483.6709              1489.5423
 Red. masses --      1.1394                 1.1224                 1.0812
 Frc consts  --      1.4732                 1.4557                 1.4134
 IR Inten    --      2.1158                11.5462                41.7719

                     73                     74                     75
                      A                      A                      A
 Frequencies --   1492.7570              1497.6288              1500.6386
 Red. masses --      1.6679                 1.1560                 1.0604
 Frc consts  --      2.1898                 1.5276                 1.4069
 IR Inten    --     36.1008                10.6924                14.5620

                     76                     77                     78
                      A                      A                      A
 Frequencies --   1506.3691              1514.9988              1530.2490
 Red. masses --      1.0401                 1.0734                 1.6517
 Frc consts  --      1.3905                 1.4516                 2.2788
 IR Inten    --     14.2329                26.6674               234.6248

                     79                     80                     81
                      A                      A                      A
 Frequencies --   1544.8407              1585.6436              1651.2922
 Red. masses --      2.2014                 3.6585                 1.7146
 Frc consts  --      3.0954                 5.4196                 2.7546
 IR Inten    --     17.7394               631.8850                11.9873

                     82                     83                     84
                      A                      A                      A
 Frequencies --   1653.3865              1674.9343              3021.8924
 Red. masses --      2.2251                 5.8559                 1.0474
 Frc consts  --      3.5838                 9.6792                 5.6354
 IR Inten    --      4.3848                 4.5981               101.7583

                     85                     86                     87
                      A                      A                      A
 Frequencies --   3034.6616              3067.4663              3073.2674
 Red. masses --      1.0397                 1.0342                 1.0379
 Frc consts  --      5.6413                 5.7334                 5.7760
 IR Inten    --    122.9517                52.9693                15.0912

                     88                     89                     90
                      A                      A                      A
 Frequencies --   3087.8193              3098.7629              3142.9090
 Red. masses --      1.1018                 1.0934                 1.1032
 Frc consts  --      6.1894                 6.1860                 6.4205
 IR Inten    --     74.8412                28.4684                16.5157

                     91                     92                     93
                      A                      A                      A
 Frequencies --   3147.2894              3165.6804              3168.5227
 Red. masses --      1.0994                 1.1056                 1.0997
 Frc consts  --      6.4162                 6.5281                 6.5047
 IR Inten    --     16.5305                20.4866                14.2429

                     94                     95                     96
                      A                      A                      A
 Frequencies --   3171.9247              3177.5163              3194.9169
 Red. masses --      1.1033                 1.0970                 1.0856
 Frc consts  --      6.5401                 6.5259                 6.5291
 IR Inten    --     19.7198                15.0012                 2.5166

                     97                     98                     99
                      A                      A                      A
 Frequencies --   3201.6478              3210.9367              3221.0122
 Red. masses --      1.0885                 1.0927                 1.0963
 Frc consts  --      6.5740                 6.6374                 6.7016
 IR Inten    --      4.7658                33.8847                24.2653

                    100                    101                    102
                      A                      A                      A
 Frequencies --   3228.8777              3365.2855              3593.7167
 Red. masses --      1.0945                 1.0674                 1.0819
 Frc consts  --      6.7234                 7.1224                 8.2322
 IR Inten    --     10.2054               201.9119                61.4598

 - Thermochemistry -
 -------------------
 Temperature   298.150 Kelvin.  Pressure   1.00000 Atm.
 Atom     1 has atomic number  6 and mass  12.00000

 Molecular mass:   254.11859 amu.
 Principal axes and moments of inertia in atomic units:
                           1         2         3
     Eigenvalues --  3186.464395292.189556518.98874
           X            0.99885   0.04708  -0.00900
           Y           -0.04672   0.99825   0.03635
           Z            0.01070  -0.03589   0.99930
 This molecule is an asymmetric top.
 Rotational symmetry number  1.
 Warning -- assumption of classical behavior for rotation
           may cause significant error
 Rotational temperatures (Kelvin)      0.02718     0.01637     0.01329
 Rotational constants (GHZ):           0.56638     0.34102     0.27684
    1 imaginary frequencies ignored.
 Zero-point vibrational energy     801147.3 (Joules/Mol)
                                  191.47879 (Kcal/Mol)
 Warning -- explicit consideration of  27 degrees of freedom as
           vibrations may cause significant error
 Vibrational temperatures:     74.61    82.40    99.13   117.92   151.39
          (Kelvin)            161.35   185.21   218.38   245.53   252.51
                              277.81   314.79   333.08   351.78   378.83
                              398.73   430.81   457.74   476.67   486.79
                              529.16   606.52   615.59   629.76   736.73
                              811.31   823.35   909.09   920.82   971.45
                             1049.84  1051.38  1134.26  1144.11  1171.49
                             1268.31  1299.67  1387.33  1452.69  1473.74
                             1476.61  1480.34  1484.22  1508.42  1526.82
                             1539.38  1566.58  1571.30  1577.45  1618.14
                             1631.35  1633.03  1681.18  1706.20  1754.55
                             1773.11  1795.54  1835.00  1890.55  1900.03
                             1951.97  1980.06  1995.93  2042.53  2059.33
                             2082.27  2093.08  2121.73  2131.41  2134.67
                             2143.12  2147.74  2154.75  2159.08  2167.33
                             2179.75  2201.69  2222.68  2281.39  2375.84
                             2378.85  2409.86  4347.83  4366.20  4413.40
                             4421.75  4442.68  4458.43  4521.95  4528.25
                             4554.71  4558.80  4563.69  4571.74  4596.77
                             4606.46  4619.82  4634.32  4645.63  4841.90
                             5170.56

 Zero-point correction=                           0.305141 (Hartree/Particle)
 Thermal correction to Energy=                    0.323146
 Thermal correction to Enthalpy=                  0.324090
 Thermal correction to Gibbs Free Energy=         0.259632
 Sum of electronic and zero-point Energies=          -1151.454751
 Sum of electronic and thermal Energies=             -1151.436746
 Sum of electronic and thermal Enthalpies=           -1151.435802
 Sum of electronic and thermal Free Energies=        -1151.500260

                     E (Thermal)             CV                S
                      KCal/Mol        Cal/Mol-Kelvin    Cal/Mol-Kelvin
 Total                  202.777             66.916            135.663
 Electronic               0.000              0.000              0.000
 Translational            0.889              2.981             42.498
 Rotational               0.889              2.981             33.063
 Vibrational            201.000             60.954             60.102
 Vibration     1          0.596              1.977              4.745
 Vibration     2          0.596              1.975              4.549
 Vibration     3          0.598              1.969              4.185
 Vibration     4          0.600              1.962              3.843
 Vibration     5          0.605              1.945              3.355
 Vibration     6          0.607              1.939              3.232
 Vibration     7          0.611              1.925              2.965
 Vibration     8          0.619              1.901              2.650
 Vibration     9          0.626              1.879              2.428
 Vibration    10          0.627              1.873              2.376
 Vibration    11          0.635              1.849              2.198
 Vibration    12          0.647              1.812              1.969
 Vibration    13          0.653              1.793              1.867
 Vibration    14          0.660              1.772              1.770
 Vibration    15          0.670              1.740              1.640
 Vibration    16          0.678              1.716              1.551
 Vibration    17          0.692              1.675              1.420
 Vibration    18          0.705              1.639              1.320
 Vibration    19          0.714              1.613              1.254
 Vibration    20          0.719              1.599              1.220
 Vibration    21          0.740              1.538              1.089
 Vibration    22          0.784              1.423              0.887
 Vibration    23          0.789              1.410              0.866
 Vibration    24          0.798              1.388              0.834
 Vibration    25          0.867              1.223              0.629
 Vibration    26          0.920              1.109              0.516
 Vibration    27          0.928              1.091              0.500

 Optimization completed.
    -- Stationary point found.
 Normal termination of Gaussian 16 at Sun Feb 14 20:28:01 2021.
