 Gaussian 16, Revision A.03,
 Gaussian 16:  ES64L-G16RevA.03 25-Dec-2016

 ----------------------------------------------------------------------
 # wB97XD def2tzvp, opt=(ts, noeigen, calcfc, maxcycles=70, maxstep=1),
  freq=noraman, scrf=(iefpcm, solvent=water)
 ----------------------------------------------------------------------

 ------------------------
 0_iteration/TS-492-0.out
 ------------------------
 Symbolic Z-matrix:
 Charge =  0 Multiplicity = 1

 SCF Done:  E(RwB97XD) =  -480.982819163     A.U. after   14 cycles
 SCF Done:  E(RwB97XD) =  -480.982796905     A.U. after   10 cycles
 SCF Done:  E(RwB97XD) =  -480.982782056     A.U. after   10 cycles
 SCF Done:  E(RwB97XD) =  -480.982770363     A.U. after   10 cycles
 SCF Done:  E(RwB97XD) =  -480.982763683     A.U. after   10 cycles
 SCF Done:  E(RwB97XD) =  -480.982768923     A.U. after   10 cycles
 SCF Done:  E(RwB97XD) =  -480.982799132     A.U. after   10 cycles
 SCF Done:  E(RwB97XD) =  -480.982842498     A.U. after   10 cycles
 SCF Done:  E(RwB97XD) =  -480.982903004     A.U. after    9 cycles
 SCF Done:  E(RwB97XD) =  -480.982986023     A.U. after    9 cycles
 SCF Done:  E(RwB97XD) =  -480.986821769     A.U. after   10 cycles
 SCF Done:  E(RwB97XD) =  -480.986922528     A.U. after   10 cycles
 SCF Done:  E(RwB97XD) =  -480.987009789     A.U. after   10 cycles
 SCF Done:  E(RwB97XD) =  -480.987079336     A.U. after   10 cycles
 SCF Done:  E(RwB97XD) =  -480.987136249     A.U. after   10 cycles
 SCF Done:  E(RwB97XD) =  -480.987178634     A.U. after   10 cycles
 SCF Done:  E(RwB97XD) =  -480.987205574     A.U. after   10 cycles
 SCF Done:  E(RwB97XD) =  -480.987217102     A.U. after   10 cycles
 SCF Done:  E(RwB97XD) =  -480.987217701     A.U. after    7 cycles
 Optimization completed.
    -- Stationary point found.
 Normal termination of Gaussian 16 at Sat Feb 13 09:32:34 2021.

 ---------------------------------------------------------------------
 #N Geom=AllCheck Guess=TCheck SCRF=Check GenChk RwB97XD/def2TZVP Freq
 ---------------------------------------------------------------------

 Structure from the checkpoint file:  "/beegfs/scratch/user/q/tla25/Gau-39929.chk"
 ------------------------
 0_iteration/TS-492-0.out
 ------------------------
 Charge =  0 Multiplicity = 1

                         Standard orientation:
 ---------------------------------------------------------------------
 Center     Atomic      Atomic             Coordinates (Angstroms)
 Number     Number       Type             X           Y           Z
 ---------------------------------------------------------------------
      1          6           0       -0.079535   -0.359813    0.779554
      2          6           0       -1.256423   -0.208631    0.011696
      3          8           0       -1.370830   -0.240249   -1.215764
      4          6           0        1.184909   -0.638206    0.221283
      5          6           0        1.662265    2.136821   -0.000310
      6          1           0        0.792481    2.093885    0.658521
      7          1           0        2.565390    2.194208    0.603744
      8          1           0        1.592772    3.026463   -0.626007
      9          7           0        1.684497    0.914982   -0.792061
     10          1           0        0.938257    0.911382   -1.479584
     11          1           0        2.565303    0.791709   -1.277442
     12          6           0        2.322550   -0.711823    1.212049
     13          1           0        2.265968   -1.666523    1.739021
     14          1           0        3.292090   -0.663020    0.715276
     15          1           0        2.260673    0.084986    1.953063
     16          6           0        1.321088   -1.638610   -0.905661
     17          1           0        2.313150   -1.598927   -1.358827
     18          1           0        1.189747   -2.637982   -0.484935
     19          1           0        0.561965   -1.488191   -1.668461
     20          1           0       -0.129257   -0.057951    1.817202
     21          8           0       -2.355887    0.038977    0.789196
     22          6           0       -3.571996    0.282282    0.103947
     23          1           0       -4.318942    0.463128    0.874216
     24          1           0       -3.495594    1.156853   -0.544509
     25          1           0       -3.868893   -0.576837   -0.499654
 ---------------------------------------------------------------------

 SCF Done:  E(RwB97XD) =  -480.987217701     A.U. after    1 cycles

 The electronic state is 1-A.
 Alpha  occ. eigenvalues --  -19.26843 -19.20071 -14.47584 -10.38085 -10.34243
 Alpha  occ. eigenvalues --  -10.32018 -10.31157 -10.27644 -10.27076 -10.23446
 Alpha  occ. eigenvalues --   -1.17871  -1.08371  -1.03298  -0.91208  -0.83284
 Alpha  occ. eigenvalues --   -0.79874  -0.77788  -0.77013  -0.66909  -0.62518
 Alpha  occ. eigenvalues --   -0.61553  -0.57675  -0.56928  -0.55736  -0.55102
 Alpha  occ. eigenvalues --   -0.54417  -0.52299  -0.50405  -0.49371  -0.47383
 Alpha  occ. eigenvalues --   -0.47125  -0.46363  -0.45937  -0.44116  -0.43422
 Alpha  occ. eigenvalues --   -0.42299  -0.39756  -0.37015  -0.33949  -0.26772
 Alpha virt. eigenvalues --    0.07089   0.10073   0.13409   0.13912   0.14397
 Alpha virt. eigenvalues --    0.15915   0.16335   0.17044   0.18035   0.18409
 Alpha virt. eigenvalues --    0.19391   0.19610   0.20330   0.21046   0.21714

 Mulliken charges:
               1
     1  C   -0.567485
     2  C    0.462812
     3  O   -0.556926
     4  C    0.204837
     5  C   -0.292683
     6  H    0.145436
     7  H    0.156068
     8  H    0.151935
     9  N   -0.330807
    10  H    0.275878
    11  H    0.280874
    12  C   -0.386329
    13  H    0.145293
    14  H    0.139546
    15  H    0.142980
    16  C   -0.358994
    17  H    0.125772
    18  H    0.132271
    19  H    0.148002
    20  H    0.122222
    21  O   -0.323840
    22  C   -0.184076
    23  H    0.132010
    24  H    0.117247
    25  H    0.117958
 Sum of Mulliken charges =  -0.00000

 Dipole moment (field-independent basis, Debye):
    X=              6.4054    Y=              3.0890    Z=             -0.6581  Tot=              7.1417
 Quadrupole moment (field-independent basis, Debye-Ang):
   XX=            -50.1938   YY=            -58.5324   ZZ=            -65.4952
   XY=              1.4619   XZ=             -4.4496   YZ=             -1.7668

  Exact polarizability: 171.560   2.613 128.758  -2.196  -4.169 129.235
 Approx polarizability: 125.505   1.389 103.527  -2.223  -3.109 112.140

 ******    1 imaginary frequencies (negative Signs) ******

                      1                      2                      3
                      A                      A                      A
 Frequencies --   -375.0982                55.1058                76.8514
 Red. masses --      5.1585                 3.1627                 5.6774
 Frc consts  --      0.4276                 0.0057                 0.0198
 IR Inten    --    707.0084                 3.8062                18.7117

                      4                      5                      6
                      A                      A                      A
 Frequencies --    103.5512               127.1852               172.1917
 Red. masses --      2.2034                 2.0917                 1.6554
 Frc consts  --      0.0139                 0.0199                 0.0289
 IR Inten    --      6.3256                15.4840                 5.6519

                      7                      8                      9
                      A                      A                      A
 Frequencies --    176.2411               185.9471               206.5564
 Red. masses --      1.4385                 1.4352                 1.4407
 Frc consts  --      0.0263                 0.0292                 0.0362
 IR Inten    --      1.6632                 2.6390                 1.5329

                     10                     11                     12
                      A                      A                      A
 Frequencies --    228.8700               260.0460               289.4006
 Red. masses --      1.5790                 1.1357                 3.0241
 Frc consts  --      0.0487                 0.0452                 0.1492
 IR Inten    --      3.2253                 3.8139                12.3237

                     13                     14                     15
                      A                      A                      A
 Frequencies --    314.8940               341.3483               362.9842
 Red. masses --      2.7398                 2.6508                 3.4803
 Frc consts  --      0.1601                 0.1820                 0.2702
 IR Inten    --      5.2690                 9.0732                35.0588

                     16                     17                     18
                      A                      A                      A
 Frequencies --    403.6507               496.9457               508.1604
 Red. masses --      3.6149                 2.5687                 2.8181
 Frc consts  --      0.3470                 0.3737                 0.4288
 IR Inten    --      5.8389                14.5530                13.3296

                     19                     20                     21
                      A                      A                      A
 Frequencies --    688.5613               695.7906               733.5861
 Red. masses --      1.2728                 1.4301                 3.8404
 Frc consts  --      0.3556                 0.4079                 1.2177
 IR Inten    --     73.0421               115.1007                21.4380

                     22                     23                     24
                      A                      A                      A
 Frequencies --    803.3665               855.4973               945.8835
 Red. masses --      9.6018                 3.3039                 3.1547
 Frc consts  --      3.6512                 1.4247                 1.6630
 IR Inten    --     62.2066                15.8829                68.6098

                     25                     26                     27
                      A                      A                      A
 Frequencies --    954.8786              1005.7573              1022.6254
 Red. masses --      1.5405                 1.1230                 1.3328
 Frc consts  --      0.8276                 0.6693                 0.8212
 IR Inten    --     17.3898                72.8441                15.2821

                     28                     29                     30
                      A                      A                      A
 Frequencies --   1039.4576              1055.7180              1076.7920
 Red. masses --      1.7742                 1.3028                 2.2506
 Frc consts  --      1.1295                 0.8555                 1.5375
 IR Inten    --     30.8374               128.8788                80.9329

                     31                     32                     33
                      A                      A                      A
 Frequencies --   1115.8524              1127.8301              1179.9756
 Red. masses --      2.1890                 2.7007                 1.9383
 Frc consts  --      1.6058                 2.0240                 1.5900
 IR Inten    --     32.8149                68.5051               444.0665

                     34                     35                     36
                      A                      A                      A
 Frequencies --   1181.2232              1215.3148              1218.5062
 Red. masses --      1.4221                 1.5136                 1.4157
 Frc consts  --      1.1691                 1.3171                 1.2384
 IR Inten    --    140.8895                52.7759                43.7507

                     37                     38                     39
                      A                      A                      A
 Frequencies --   1269.4185              1352.2444              1358.8652
 Red. masses --      3.6116                 1.3956                 1.7892
 Frc consts  --      3.4290                 1.5036                 1.9466
 IR Inten    --    251.3141                 8.5835                 4.7768

                     40                     41                     42
                      A                      A                      A
 Frequencies --   1409.9396              1421.0915              1447.6912
 Red. masses --      1.3629                 1.2903                 1.2030
 Frc consts  --      1.5963                 1.5353                 1.4854
 IR Inten    --     31.5460                 9.2762                59.2948

                     43                     44                     45
                      A                      A                      A
 Frequencies --   1461.3830              1477.5284              1480.9415
 Red. masses --      1.3739                 1.0775                 1.0522
 Frc consts  --      1.7288                 1.3859                 1.3597
 IR Inten    --    253.9633                44.2437                20.5858

                     46                     47                     48
                      A                      A                      A
 Frequencies --   1482.3215              1486.1569              1493.9334
 Red. masses --      1.0559                 1.1971                 1.0463
 Frc consts  --      1.3669                 1.5578                 1.3759
 IR Inten    --     11.5600               172.9040                 9.5393

                     49                     50                     51
                      A                      A                      A
 Frequencies --   1498.7774              1503.4413              1504.2821
 Red. masses --      1.0620                 1.0732                 1.0446
 Frc consts  --      1.4056                 1.4292                 1.3927
 IR Inten    --     21.9318                37.5844                30.5637

                     52                     53                     54
                      A                      A                      A
 Frequencies --   1526.0740              1650.0889              1666.6737
 Red. masses --      1.7969                 1.2600                 4.3641
 Frc consts  --      2.4656                 2.0213                 7.1424
 IR Inten    --    374.0221               261.9552               487.6737

                     55                     56                     57
                      A                      A                      A
 Frequencies --   3052.4035              3056.2693              3057.5090
 Red. masses --      1.0314                 1.0375                 1.0347
 Frc consts  --      5.6616                 5.7099                 5.6991
 IR Inten    --     77.7040                19.8789                50.3072

                     58                     59                     60
                      A                      A                      A
 Frequencies --   3058.9259              3121.1822              3122.2256
 Red. masses --      1.0375                 1.1015                 1.1059
 Frc consts  --      5.7198                 6.3223                 6.3519
 IR Inten    --     37.4621                25.1341                52.8328

                     61                     62                     63
                      A                      A                      A
 Frequencies --   3129.9674              3131.6970              3144.7418
 Red. masses --      1.1008                 1.1030                 1.1038
 Frc consts  --      6.3541                 6.3738                 6.4315
 IR Inten    --     37.3668                11.7864                34.8678

                     64                     65                     66
                      A                      A                      A
 Frequencies --   3158.4089              3161.7082              3176.0021
 Red. masses --      1.1043                 1.1048                 1.0999
 Frc consts  --      6.4903                 6.5070                 6.5369
 IR Inten    --     34.0121                17.2974                 5.2545

                     67                     68                     69
                      A                      A                      A
 Frequencies --   3202.5805              3515.8497              3601.7068
 Red. masses --      1.0885                 1.0511                 1.0960
 Frc consts  --      6.5781                 7.6555                 8.3764
 IR Inten    --     12.9937                23.2505                56.4480

 - Thermochemistry -
 -------------------
 Temperature   298.150 Kelvin.  Pressure   1.00000 Atm.
 Atom     1 has atomic number  6 and mass  12.00000

 Molecular mass:   145.11028 amu.
 Principal axes and moments of inertia in atomic units:
                           1         2         3
     Eigenvalues --   894.406812348.672882529.97983
           X            0.99997  -0.00533   0.00491
           Y            0.00522   0.99974   0.02218
           Z           -0.00503  -0.02215   0.99974
 This molecule is an asymmetric top.
 Rotational symmetry number  1.
 Warning -- assumption of classical behavior for rotation
           may cause significant error
 Rotational temperatures (Kelvin)      0.09684     0.03688     0.03424
 Rotational constants (GHZ):           2.01781     0.76841     0.71334
    1 imaginary frequencies ignored.
 Zero-point vibrational energy     576651.3 (Joules/Mol)
                                  137.82298 (Kcal/Mol)
 Warning -- explicit consideration of  17 degrees of freedom as
           vibrations may cause significant error
 Vibrational temperatures:     79.28   110.57   148.99   182.99   247.75
          (Kelvin)            253.57   267.54   297.19   329.29   374.15
                              416.38   453.06   491.12   522.25   580.76
                              714.99   731.13   990.69  1001.09  1055.47
                             1155.87  1230.87  1360.92  1373.86  1447.06
                             1471.33  1495.55  1518.94  1549.26  1605.46
                             1622.70  1697.72  1699.52  1748.57  1753.16
                             1826.41  1945.58  1955.10  2028.59  2044.63
                             2082.90  2102.60  2125.83  2130.74  2132.73
                             2138.25  2149.44  2156.41  2163.12  2164.33
                             2195.68  2374.11  2397.97  4391.73  4397.29
                             4399.07  4401.11  4490.69  4492.19  4503.33
                             4505.81  4524.58  4544.25  4548.99  4569.56
                             4607.80  5058.52  5182.05

 Zero-point correction=                           0.219635 (Hartree/Particle)
 Thermal correction to Energy=                    0.232055
 Thermal correction to Enthalpy=                  0.232999
 Thermal correction to Gibbs Free Energy=         0.181523
 Sum of electronic and zero-point Energies=           -480.767583
 Sum of electronic and thermal Energies=              -480.755163
 Sum of electronic and thermal Enthalpies=            -480.754218
 Sum of electronic and thermal Free Energies=         -480.805694

                     E (Thermal)             CV                S
                      KCal/Mol        Cal/Mol-Kelvin    Cal/Mol-Kelvin
 Total                  145.617             44.307            108.340
 Electronic               0.000              0.000              0.000
 Translational            0.889              2.981             40.828
 Rotational               0.889              2.981             30.053
 Vibrational            143.839             38.346             37.459
 Vibration     1          0.596              1.976              4.625
 Vibration     2          0.599              1.965              3.970
 Vibration     3          0.605              1.946              3.386
 Vibration     4          0.611              1.926              2.988
 Vibration     5          0.626              1.877              2.411
 Vibration     6          0.628              1.872              2.368
 Vibration     7          0.632              1.859              2.268
 Vibration     8          0.641              1.831              2.074
 Vibration     9          0.652              1.797              1.888
 Vibration    10          0.668              1.746              1.661
 Vibration    11          0.686              1.693              1.477
 Vibration    12          0.702              1.645              1.336
 Vibration    13          0.721              1.593              1.206
 Vibration    14          0.737              1.548              1.109
 Vibration    15          0.769              1.462              0.949
 Vibration    16          0.852              1.257              0.666
 Vibration    17          0.863              1.232              0.638

 Optimization completed.
    -- Stationary point found.
 Normal termination of Gaussian 16 at Sat Feb 13 09:53:42 2021.
