 Gaussian 16, Revision C.01,
 Gaussian 16:  ES64L-G16RevC.01  3-Jul-2019

 ----------------------------------------------------------------------
 # wb97xd def2tzvp opt=(ts, noeigen, calcfc, maxcycles=100, maxstep=10)
  freq=noraman scrf=(iefpcm, solvent=water)
 ----------------------------------------------------------------------

 ---------
 TS-40.out
 ---------
 Symbolic Z-matrix:
 Charge =  0 Multiplicity = 1

 SCF Done:  E(RwB97XD) =  -1440.52850701     A.U. after   17 cycles
 SCF Done:  E(RwB97XD) =  -1440.52694618     A.U. after   14 cycles
 SCF Done:  E(RwB97XD) =  -1440.52604642     A.U. after   14 cycles
 SCF Done:  E(RwB97XD) =  -1440.52856335     A.U. after   15 cycles
 SCF Done:  E(RwB97XD) =  -1440.53154542     A.U. after   14 cycles
 SCF Done:  E(RwB97XD) =  -1440.53449762     A.U. after   14 cycles
 SCF Done:  E(RwB97XD) =  -1440.53726481     A.U. after   14 cycles
 SCF Done:  E(RwB97XD) =  -1440.53961208     A.U. after   13 cycles
 SCF Done:  E(RwB97XD) =  -1440.54142363     A.U. after   12 cycles
 SCF Done:  E(RwB97XD) =  -1440.54243264     A.U. after   13 cycles
 SCF Done:  E(RwB97XD) =  -1440.55016536     A.U. after   12 cycles
 SCF Done:  E(RwB97XD) =  -1440.55016724     A.U. after   10 cycles
 SCF Done:  E(RwB97XD) =  -1440.55016713     A.U. after    9 cycles
 SCF Done:  E(RwB97XD) =  -1440.55011831     A.U. after   12 cycles
 SCF Done:  E(RwB97XD) =  -1440.55015510     A.U. after   12 cycles
 SCF Done:  E(RwB97XD) =  -1440.55016724     A.U. after   12 cycles
 SCF Done:  E(RwB97XD) =  -1440.55016763     A.U. after    9 cycles
 SCF Done:  E(RwB97XD) =  -1440.55016766     A.U. after    7 cycles
 SCF Done:  E(RwB97XD) =  -1440.55016770     A.U. after    7 cycles
 Optimization completed.
    -- Stationary point found.
 Normal termination of Gaussian 16 at Thu Jun  2 05:08:51 2022.

 ---------------------------------------------------------------------
 #N Geom=AllCheck Guess=TCheck SCRF=Check GenChk RwB97XD/def2TZVP Freq
 ---------------------------------------------------------------------

 Structure from the checkpoint file:  "/local/jobs/107272/Gau-1947709.chk"
 ---------
 TS-40.out
 ---------
 Charge =  0 Multiplicity = 1

                         Standard orientation:
 ---------------------------------------------------------------------
 Center     Atomic      Atomic             Coordinates (Angstroms)
 Number     Number       Type             X           Y           Z
 ---------------------------------------------------------------------
      1          6           0        0.430887   -0.386941   -0.017275
      2          6           0        1.530947    0.372884    0.462414
      3          8           0        1.374903    1.302184    1.275324
      4          6           0       -0.905371   -0.011275    0.276885
      5          6           0       -0.138839   -0.968170    2.923293
      6          1           0        0.614822   -1.338298    2.224100
      7          1           0        0.374084   -0.513320    3.769698
      8          1           0       -0.739010   -1.802208    3.277492
      9          7           0       -0.977118    0.009406    2.239346
     10          1           0       -1.931821   -0.004933    2.572203
     11          1           0       -0.585886    0.937651    2.351781
     12          6           0       -2.010047   -0.960989   -0.116402
     13          6           0       -2.242351   -2.151799    0.564882
     14          6           0       -3.246502   -3.016051    0.161857
     15          6           0       -4.026270   -2.713733   -0.945275
     16          6           0       -3.793250   -1.538464   -1.641402
     17          6           0       -2.798696   -0.665855   -1.225215
     18          1           0       -1.628919   -2.422584    1.411348
     19          1           0       -3.415366   -3.932213    0.713172
     20          1           0       -4.809284   -3.390530   -1.262466
     21          1           0       -4.390751   -1.291409   -2.509626
     22          1           0       -2.634561    0.251717   -1.774435
     23          6           0       -1.296167    1.435940    0.049501
     24          6           0       -0.614517    2.211195   -0.882749
     25          6           0       -1.020819    3.505645   -1.165784
     26          6           0       -2.125549    4.047598   -0.527064
     27          6           0       -2.830017    3.275873    0.385046
     28          6           0       -2.424326    1.980224    0.660300
     29          1           0        0.237976    1.791014   -1.398321
     30          1           0       -0.472259    4.089735   -1.893793
     31          1           0       -2.443615    5.058552   -0.747528
     32          1           0       -3.706079    3.677730    0.877767
     33          1           0       -3.017081    1.388387    1.345707
     34         17           0        0.748505   -1.965191   -0.737728
     35          6           0        2.930418    0.066095    0.015371
     36          6           0        3.265055    0.017808   -1.333975
     37          6           0        4.581483   -0.177829   -1.722294
     38          6           0        5.571595   -0.348619   -0.764085
     39          6           0        5.242570   -0.307295    0.583800
     40          6           0        3.929220   -0.087339    0.970767
     41          1           0        2.492042    0.140256   -2.082786
     42          1           0        4.835048   -0.199895   -2.774701
     43          1           0        6.598125   -0.511196   -1.067664
     44          1           0        6.011290   -0.440515    1.334598
     45          1           0        3.670538   -0.036425    2.021242
 ---------------------------------------------------------------------

 SCF Done:  E(RwB97XD) =  -1440.55016770     A.U. after    1 cycles

 The electronic state is 1-A.
 Alpha  occ. eigenvalues -- -101.68648 -19.21378 -14.48424 -10.37026 -10.36076
 Alpha  occ. eigenvalues --  -10.31639 -10.31294 -10.31149 -10.30994 -10.29715
 Alpha  occ. eigenvalues --  -10.29656 -10.29601 -10.29566 -10.29404 -10.29376
 Alpha  occ. eigenvalues --  -10.29356 -10.29316 -10.29315 -10.29295 -10.29248
 Alpha  occ. eigenvalues --  -10.29211 -10.29183 -10.29148 -10.29070 -10.29047
 Alpha  occ. eigenvalues --   -9.57184  -7.31821  -7.30968  -7.30957  -1.12107
 Alpha  occ. eigenvalues --   -1.04011  -0.98798  -0.96931  -0.96785  -0.95572
 Alpha  occ. eigenvalues --   -0.90356  -0.86375  -0.85826  -0.85675  -0.85308
 Alpha  occ. eigenvalues --   -0.85217  -0.82009  -0.79082  -0.76222  -0.71985
 Alpha  occ. eigenvalues --   -0.71452  -0.70548  -0.70333  -0.70162  -0.67183
 Alpha  occ. eigenvalues --   -0.64653  -0.63154  -0.62347  -0.60704  -0.58563
 Alpha  occ. eigenvalues --   -0.57438  -0.56704  -0.56481  -0.55456  -0.55035
 Alpha  occ. eigenvalues --   -0.54595  -0.54049  -0.53253  -0.52728  -0.52055
 Alpha  occ. eigenvalues --   -0.51628  -0.51054  -0.50985  -0.50730  -0.48798
 Alpha  occ. eigenvalues --   -0.48423  -0.47367  -0.47239  -0.46772  -0.45502
 Alpha  occ. eigenvalues --   -0.44958  -0.44095  -0.44027  -0.43041  -0.42998
 Alpha  occ. eigenvalues --   -0.42696  -0.41994  -0.41173  -0.39738  -0.35473
 Alpha  occ. eigenvalues --   -0.34630  -0.34051  -0.33793  -0.33271  -0.33027
 Alpha  occ. eigenvalues --   -0.32043  -0.27559
 Alpha virt. eigenvalues --    0.00276   0.04038   0.04270   0.04434   0.05221
 Alpha virt. eigenvalues --    0.05767   0.07956   0.10762   0.11641   0.12491
 Alpha virt. eigenvalues --    0.12744   0.13435   0.14158   0.14598   0.14845

 Mulliken charges:
               1
     1  C   -0.342273
     2  C    0.312019
     3  O   -0.523426
     4  C    0.597205
     5  C   -0.299323
     6  H    0.148083
     7  H    0.159357
     8  H    0.162278
     9  N   -0.348912
    10  H    0.286369
    11  H    0.287496
    12  C    0.029775
    13  C   -0.243102
    14  C   -0.139616
    15  C   -0.138670
    16  C   -0.146851
    17  C   -0.246543
    18  H    0.146327
    19  H    0.143369
    20  H    0.145886
    21  H    0.143661
    22  H    0.161845
    23  C    0.038700
    24  C   -0.163068
    25  C   -0.169788
    26  C   -0.122370
    27  C   -0.146894
    28  C   -0.252709
    29  H    0.160964
    30  H    0.140850
    31  H    0.145368
    32  H    0.143880
    33  H    0.145538
    34  Cl  -0.151915
    35  C    0.134129
    36  C   -0.259048
    37  C   -0.142120
    38  C   -0.129750
    39  C   -0.154660
    40  C   -0.244570
    41  H    0.159190
    42  H    0.142523
    43  H    0.145278
    44  H    0.142109
    45  H    0.143412
 Sum of Mulliken charges =  -0.00000

 Dipole moment (field-independent basis, Debye):
    X=             -5.4526    Y=             -0.7456    Z=              3.0900  Tot=              6.3115
 Quadrupole moment (field-independent basis, Debye-Ang):
   XX=           -136.1072   YY=           -151.1301   ZZ=           -133.6228
   XY=             -3.0251   XZ=             -7.9894   YZ=            -10.6193

  Exact polarizability:     442.240       3.584     368.598      -6.862     -15.980     360.880
 Approx polarizability:     333.561       0.794     301.677      -5.776     -11.050     313.040

 ******    1 imaginary frequencies (negative Signs) ******

                      1                      2                      3
                      A                      A                      A
 Frequencies --   -330.8953                23.0746                27.4091
 Red. masses --      5.7071                 4.8309                 4.6762
 Frc consts  --      0.3682                 0.0015                 0.0021
 IR Inten    --    514.5845                 0.5927                 0.2393

                      4                      5                      6
                      A                      A                      A
 Frequencies --     39.7271                52.4714                57.4774
 Red. masses --      4.1742                 4.0690                 4.5474
 Frc consts  --      0.0039                 0.0066                 0.0089
 IR Inten    --      1.6533                 1.7814                 0.5942

                      7                      8                      9
                      A                      A                      A
 Frequencies --     67.7211                81.7720               108.0710
 Red. masses --      4.8299                 7.5298                 6.0724
 Frc consts  --      0.0131                 0.0297                 0.0418
 IR Inten    --      1.3009                 3.8669                 2.2214

                     10                     11                     12
                      A                      A                      A
 Frequencies --    129.5515               141.7356               144.7542
 Red. masses --      2.4290                 4.3544                 2.7966
 Frc consts  --      0.0240                 0.0515                 0.0345
 IR Inten    --      0.7875                 8.5295                12.9550

                     13                     14                     15
                      A                      A                      A
 Frequencies --    169.9149               201.0092               206.8543
 Red. masses --      3.1001                 1.5102                 3.8302
 Frc consts  --      0.0527                 0.0360                 0.0966
 IR Inten    --     12.1541                 0.2828                 2.4471

                     16                     17                     18
                      A                      A                      A
 Frequencies --    210.3552               234.0943               251.8377
 Red. masses --      4.6522                 8.1603                 4.9544
 Frc consts  --      0.1213                 0.2635                 0.1851
 IR Inten    --      6.5453                 5.6493                 1.0098

                     19                     20                     21
                      A                      A                      A
 Frequencies --    270.8486               287.9439               305.7274
 Red. masses --      4.0491                 6.0607                 3.6308
 Frc consts  --      0.1750                 0.2961                 0.1999
 IR Inten    --      1.0914                 5.9226                12.2549

                     22                     23                     24
                      A                      A                      A
 Frequencies --    321.1112               364.4776               385.0032
 Red. masses --      4.1481                 8.1014                 6.5216
 Frc consts  --      0.2520                 0.6341                 0.5696
 IR Inten    --     12.0241                40.2043                11.5566

                     25                     26                     27
                      A                      A                      A
 Frequencies --    418.7567               419.3839               425.6966
 Red. masses --      2.8973                 2.8867                 2.9318
 Frc consts  --      0.2993                 0.2991                 0.3130
 IR Inten    --      1.2468                 0.6936                 0.4113

                     28                     29                     30
                      A                      A                      A
 Frequencies --    442.6197               488.2086               516.9912
 Red. masses --      5.5135                 3.8772                 4.5190
 Frc consts  --      0.6364                 0.5445                 0.7116
 IR Inten    --      8.1602                12.3707                 8.5255

                     31                     32                     33
                      A                      A                      A
 Frequencies --    567.6231               579.0390               627.4697
 Red. masses --      4.7486                 2.0563                 5.3050
 Frc consts  --      0.9014                 0.4062                 1.2306
 IR Inten    --     15.6259                58.0976               120.0536

                     34                     35                     36
                      A                      A                      A
 Frequencies --    635.7567               637.8682               643.7397
 Red. masses --      6.3600                 6.1805                 5.5485
 Frc consts  --      1.5146                 1.4816                 1.3547
 IR Inten    --      4.5902                 6.0105                85.7578

                     37                     38                     39
                      A                      A                      A
 Frequencies --    646.0046               655.7325               697.9020
 Red. masses --      2.8830                 5.0085                 5.8926
 Frc consts  --      0.7089                 1.2689                 1.6910
 IR Inten    --     89.4138                42.0643                11.0740

                     40                     41                     42
                      A                      A                      A
 Frequencies --    724.6768               725.4323               726.6003
 Red. masses --      1.6337                 1.5858                 1.5748
 Frc consts  --      0.5055                 0.4917                 0.4898
 IR Inten    --     91.1704                92.1564                80.8431

                     43                     44                     45
                      A                      A                      A
 Frequencies --    754.0217               776.0610               794.0799
 Red. masses --      3.6703                 3.3611                 2.1274
 Frc consts  --      1.2295                 1.1927                 0.7904
 IR Inten    --     63.1959                43.9182                33.7164

                     46                     47                     48
                      A                      A                      A
 Frequencies --    812.3275               829.0596               876.5851
 Red. masses --      3.0136                 2.9883                 1.2488
 Frc consts  --      1.1716                 1.2102                 0.5654
 IR Inten    --     16.0619                21.7662                 0.4537

                     49                     50                     51
                      A                      A                      A
 Frequencies --    877.6109               880.5096               897.3614
 Red. masses --      1.2540                 1.2487                 6.5436
 Frc consts  --      0.5691                 0.5704                 3.1046
 IR Inten    --      1.0199                 0.6065                44.9269

                     52                     53                     54
                      A                      A                      A
 Frequencies --    959.1473               961.5050               964.9634
 Red. masses --      1.5605                 1.4325                 1.4709
 Frc consts  --      0.8458                 0.7803                 0.8069
 IR Inten    --      1.9974                 2.5387                 8.1475

                     55                     56                     57
                      A                      A                      A
 Frequencies --    992.6121              1013.4082              1014.2040
 Red. masses --      4.1530                 1.3844                 1.3950
 Frc consts  --      2.4109                 0.8377                 0.8454
 IR Inten    --     17.2230                 1.2031                 8.4509

                     58                     59                     60
                      A                      A                      A
 Frequencies --   1014.6132              1019.6940              1026.2909
 Red. masses --      1.2977                 1.3251                 5.6443
 Frc consts  --      0.7871                 0.8118                 3.5027
 IR Inten    --     42.9920                45.3167                 2.2741

                     61                     62                     63
                      A                      A                      A
 Frequencies --   1027.5785              1028.2744              1030.2826
 Red. masses --      4.7536                 4.6872                 1.3372
 Frc consts  --      2.9573                 2.9200                 0.8363
 IR Inten    --      9.3339                 2.8663                 0.4600

                     64                     65                     66
                      A                      A                      A
 Frequencies --   1032.0574              1033.0439              1060.0058
 Red. masses --      1.3579                 1.3273                 2.2246
 Frc consts  --      0.8522                 0.8346                 1.4727
 IR Inten    --      0.5843                 1.9316                16.9384

                     67                     68                     69
                      A                      A                      A
 Frequencies --   1063.6320              1068.1613              1072.5934
 Red. masses --      2.6737                 1.9538                 2.1144
 Frc consts  --      1.7822                 1.3135                 1.4332
 IR Inten    --     32.1725                27.1188                35.2764

                     70                     71                     72
                      A                      A                      A
 Frequencies --   1101.0346              1110.7829              1123.5476
 Red. masses --      1.4688                 1.5415                 1.6271
 Frc consts  --      1.0491                 1.1206                 1.2102
 IR Inten    --     28.9152                11.9127                11.5260

                     73                     74                     75
                      A                      A                      A
 Frequencies --   1125.2361              1152.3967              1182.6645
 Red. masses --      1.5868                 3.6781                 1.2312
 Frc consts  --      1.1838                 2.8779                 1.0146
 IR Inten    --      8.6612                14.7436                 6.9148

                     76                     77                     78
                      A                      A                      A
 Frequencies --   1185.3278              1185.6799              1187.0751
 Red. masses --      1.1446                 2.2916                 1.2323
 Frc consts  --      0.9475                 1.8981                 1.0231
 IR Inten    --      1.0842                35.2588                 3.5476

                     79                     80                     81
                      A                      A                      A
 Frequencies --   1194.1503              1205.2623              1220.5322
 Red. masses --      1.4135                 1.1305                 1.1377
 Frc consts  --      1.1876                 0.9676                 0.9985
 IR Inten    --     35.6467                 7.3667                 6.8937

                     82                     83                     84
                      A                      A                      A
 Frequencies --   1222.7811              1272.0735              1316.1898
 Red. masses --      1.1277                 4.3865                 4.2235
 Frc consts  --      0.9934                 4.1821                 4.3108
 IR Inten    --      4.2569                25.8136                 9.0573

                     85                     86                     87
                      A                      A                      A
 Frequencies --   1322.8081              1323.4344              1340.9910
 Red. masses --      4.8767                 4.2745                 5.5972
 Frc consts  --      5.0277                 4.4111                 5.9302
 IR Inten    --      2.6881                44.0922                12.8986

                     88                     89                     90
                      A                      A                      A
 Frequencies --   1353.0836              1357.6184              1368.0472
 Red. masses --      1.4353                 1.4906                 1.3831
 Frc consts  --      1.5482                 1.6187                 1.5252
 IR Inten    --     26.7104                23.1968                 9.0415

                     91                     92                     93
                      A                      A                      A
 Frequencies --   1371.2684              1389.2529              1450.6559
 Red. masses --      1.3955                 5.5454                 1.1723
 Frc consts  --      1.5460                 6.3059                 1.4535
 IR Inten    --      3.6740              1390.7494                18.3080

                     94                     95                     96
                      A                      A                      A
 Frequencies --   1489.4840              1491.1526              1492.9723
 Red. masses --      2.2462                 2.1885                 1.8495
 Frc consts  --      2.9360                 2.8671                 2.4289
 IR Inten    --     22.1185                25.8299                29.6680

                     97                     98                     99
                      A                      A                      A
 Frequencies --   1494.6421              1503.8051              1541.7546
 Red. masses --      1.1959                 1.0391                 2.3450
 Frc consts  --      1.5740                 1.3845                 3.2842
 IR Inten    --     23.7498                14.3119                 8.5599

                    100                    101                    102
                      A                      A                      A
 Frequencies --   1543.2341              1547.9086              1590.9622
 Red. masses --      2.2324                 2.2508                 3.6445
 Frc consts  --      3.1325                 3.1775                 5.4352
 IR Inten    --     19.7074                 6.3816               446.9993

                    103                    104                    105
                      A                      A                      A
 Frequencies --   1627.3474              1651.9004              1652.8547
 Red. masses --      1.3834                 5.6152                 5.7589
 Frc consts  --      2.1585                 9.0278                 9.2696
 IR Inten    --     62.1199                 0.5775                 7.8404

                    106                    107                    108
                      A                      A                      A
 Frequencies --   1654.9586              1674.2658              1674.4767
 Red. masses --      5.9211                 5.8728                 5.8778
 Frc consts  --      9.5550                 9.6993                 9.7101
 IR Inten    --      9.7782                 1.6397                 4.6489

                    109                    110                    111
                      A                      A                      A
 Frequencies --   1677.2997              3056.0372              3129.4327
 Red. masses --      5.8418                 1.0384                 1.0987
 Frc consts  --      9.6832                 5.7141                 6.3395
 IR Inten    --      0.2622                32.6771                11.6656

                    112                    113                    114
                      A                      A                      A
 Frequencies --   3171.8194              3192.9985              3197.7818
 Red. masses --      1.1050                 1.0858                 1.0859
 Frc consts  --      6.5496                 6.5220                 6.5421
 IR Inten    --     16.8665                 2.2577                 1.3425

                    115                    116                    117
                      A                      A                      A
 Frequencies --   3198.2681              3198.9781              3205.0189
 Red. masses --      1.0880                 1.0862                 1.0886
 Frc consts  --      6.5571                 6.5491                 6.5884
 IR Inten    --      0.4314                 0.0280                 3.7933

                    118                    119                    120
                      A                      A                      A
 Frequencies --   3205.6760              3208.1339              3212.9515
 Red. masses --      1.0917                 1.0898                 1.0953
 Frc consts  --      6.6097                 6.6085                 6.6618
 IR Inten    --     11.2155                 8.3642                37.8402

                    121                    122                    123
                      A                      A                      A
 Frequencies --   3213.9245              3217.8497              3221.8635
 Red. masses --      1.0925                 1.0934                 1.0989
 Frc consts  --      6.6490                 6.6708                 6.7208
 IR Inten    --     26.5175                22.4813                20.0823

                    124                    125                    126
                      A                      A                      A
 Frequencies --   3222.9510              3225.5544              3228.7915
 Red. masses --      1.0954                 1.0973                 1.0963
 Frc consts  --      6.7037                 6.7265                 6.7339
 IR Inten    --     26.6442                19.2835                10.6665

                    127                    128                    129
                      A                      A                      A
 Frequencies --   3250.0758              3524.7181              3624.8782
 Red. masses --      1.0916                 1.0520                 1.0956
 Frc consts  --      6.7936                 7.7005                 8.4822
 IR Inten    --      7.5098                37.9350                80.8788

 - Thermochemistry -
 -------------------
 Temperature   298.150 Kelvin.  Pressure   1.00000 Atm.
 Atom     1 has atomic number  6 and mass  12.00000

 Molecular mass:   349.12334 amu.
 Principal axes and moments of inertia in atomic units:
                           1         2         3
     Eigenvalues --  5964.05593********************
           X            1.00000   0.00088  -0.00169
           Y           -0.00093   0.99968  -0.02541
           Z            0.00167   0.02541   0.99968
 This molecule is an asymmetric top.
 Rotational symmetry number  1.
 Warning -- assumption of classical behavior for rotation
           may cause significant error
 Rotational temperatures (Kelvin)      0.01452     0.00773     0.00632
 Rotational constants (GHZ):           0.30260     0.16114     0.13176
    1 imaginary frequencies ignored.
 Zero-point vibrational energy     960725.4 (Joules/Mol)
                                  229.61888 (Kcal/Mol)
 Warning -- explicit consideration of  31 degrees of freedom as
           vibrations may cause significant error
 Vibrational temperatures:     33.20    39.44    57.16    75.49    82.70
          (Kelvin)             97.44   117.65   155.49   186.40   203.93
                              208.27   244.47   289.21   297.62   302.65
                              336.81   362.34   389.69   414.29   439.87
                              462.01   524.40   553.93   602.50   603.40
                              612.48   636.83   702.42   743.84   816.68
                              833.11   902.79   914.71   917.75   926.20
                              929.46   943.45  1004.13  1042.65  1043.74
                             1045.42  1084.87  1116.58  1142.50  1168.76
                             1192.83  1261.21  1262.69  1266.86  1291.10
                             1380.00  1383.39  1388.37  1428.15  1458.07
                             1459.21  1459.80  1467.11  1476.60  1478.46
                             1479.46  1482.35  1484.90  1486.32  1525.11
                             1530.33  1536.85  1543.22  1584.14  1598.17
                             1616.53  1618.96  1658.04  1701.59  1705.42
                             1705.93  1707.94  1718.12  1734.10  1756.07
                             1759.31  1830.23  1893.70  1903.23  1904.13
                             1929.39  1946.79  1953.31  1968.31  1972.95
                             1998.83  2087.17  2143.04  2145.44  2148.05
                             2150.46  2163.64  2218.24  2220.37  2227.10
                             2289.04  2341.39  2376.72  2378.09  2381.12
                             2408.90  2409.20  2413.26  4396.96  4502.56
                             4563.54  4594.01  4600.89  4601.59  4602.62
                             4611.31  4612.25  4615.79  4622.72  4624.12
                             4629.77  4635.54  4637.11  4640.85  4645.51
                             4676.13  5071.28  5215.39

 Zero-point correction=                           0.365921 (Hartree/Particle)
 Thermal correction to Energy=                    0.387787
 Thermal correction to Enthalpy=                  0.388731
 Thermal correction to Gibbs Free Energy=         0.313214
 Sum of electronic and zero-point Energies=          -1440.184247
 Sum of electronic and thermal Energies=             -1440.162381
 Sum of electronic and thermal Enthalpies=           -1440.161437
 Sum of electronic and thermal Free Energies=        -1440.236954

                     E (Thermal)             CV                S
                      KCal/Mol        Cal/Mol-Kelvin    Cal/Mol-Kelvin
 Total                  243.340             84.428            158.940
 Electronic               0.000              0.000              0.000
 Translational            0.889              2.981             43.445
 Rotational               0.889              2.981             35.169
 Vibrational            241.562             78.467             80.326
 Vibration     1          0.593              1.985              6.350
 Vibration     2          0.593              1.984              6.009
 Vibration     3          0.594              1.981              5.273
 Vibration     4          0.596              1.977              4.722
 Vibration     5          0.596              1.975              4.542
 Vibration     6          0.598              1.970              4.219
 Vibration     7          0.600              1.962              3.848
 Vibration     8          0.606              1.943              3.303
 Vibration     9          0.612              1.924              2.953
 Vibration    10          0.615              1.912              2.780
 Vibration    11          0.616              1.908              2.740
 Vibration    12          0.625              1.880              2.436
 Vibration    13          0.638              1.838              2.124
 Vibration    14          0.641              1.830              2.071
 Vibration    15          0.643              1.825              2.041
 Vibration    16          0.654              1.789              1.847
 Vibration    17          0.664              1.760              1.718
 Vibration    18          0.675              1.727              1.591
 Vibration    19          0.685              1.696              1.486
 Vibration    20          0.696              1.663              1.385
 Vibration    21          0.707              1.633              1.304
 Vibration    22          0.738              1.545              1.103
 Vibration    23          0.754              1.502              1.019
 Vibration    24          0.782              1.429              0.896
 Vibration    25          0.782              1.428              0.894
 Vibration    26          0.788              1.414              0.873
 Vibration    27          0.802              1.377              0.818
 Vibration    28          0.844              1.276              0.688
 Vibration    29          0.872              1.212              0.617
 Vibration    30          0.924              1.101              0.509
 Vibration    31          0.936              1.077              0.487

 Optimization completed.
    -- Stationary point found.
 Normal termination of Gaussian 16 at Thu Jun  2 08:03:36 2022.
