 Gaussian 16, Revision A.03,
 Gaussian 16:  ES64L-G16RevA.03 25-Dec-2016

 ----------------------------------------------------------------------
 # wB97XD def2tzvp, opt=(ts, noeigen, calcfc, maxcycles=70, maxstep=1),
  freq=noraman, scrf=(iefpcm, solvent=water)
 ----------------------------------------------------------------------

 ------------------------
 0_iteration/TS-558-0.out
 ------------------------
 Symbolic Z-matrix:
 Charge =  0 Multiplicity = 1

 SCF Done:  E(RwB97XD) =  -3494.32096347     A.U. after   15 cycles
 SCF Done:  E(RwB97XD) =  -3494.32090627     A.U. after   10 cycles
 SCF Done:  E(RwB97XD) =  -3494.32086439     A.U. after   10 cycles
 SCF Done:  E(RwB97XD) =  -3494.32081766     A.U. after   10 cycles
 SCF Done:  E(RwB97XD) =  -3494.32077490     A.U. after   10 cycles
 SCF Done:  E(RwB97XD) =  -3494.32073606     A.U. after   10 cycles
 SCF Done:  E(RwB97XD) =  -3494.32070130     A.U. after   10 cycles
 SCF Done:  E(RwB97XD) =  -3494.32067130     A.U. after   10 cycles
 SCF Done:  E(RwB97XD) =  -3494.32064714     A.U. after   10 cycles
 SCF Done:  E(RwB97XD) =  -3494.32063008     A.U. after   10 cycles
 SCF Done:  E(RwB97XD) =  -3494.32217143     A.U. after   10 cycles
 SCF Done:  E(RwB97XD) =  -3494.32220963     A.U. after   10 cycles
 SCF Done:  E(RwB97XD) =  -3494.32224066     A.U. after   10 cycles
 SCF Done:  E(RwB97XD) =  -3494.32225923     A.U. after   10 cycles
 SCF Done:  E(RwB97XD) =  -3494.32226208     A.U. after   10 cycles
 SCF Done:  E(RwB97XD) =  -3494.32226044     A.U. after   10 cycles
 SCF Done:  E(RwB97XD) =  -3494.32226363     A.U. after    9 cycles
 SCF Done:  E(RwB97XD) =  -3494.32226351     A.U. after    8 cycles
 SCF Done:  E(RwB97XD) =  -3494.32226384     A.U. after    8 cycles
 Optimization completed.
    -- Stationary point found.
 Normal termination of Gaussian 16 at Tue Feb 16 13:10:07 2021.

 ---------------------------------------------------------------------
 #N Geom=AllCheck Guess=TCheck SCRF=Check GenChk RwB97XD/def2TZVP Freq
 ---------------------------------------------------------------------

 Structure from the checkpoint file:  "/beegfs/scratch/user/q/tla25/Gau-102775.chk"
 ------------------------
 0_iteration/TS-558-0.out
 ------------------------
 Charge =  0 Multiplicity = 1

                         Standard orientation:
 ---------------------------------------------------------------------
 Center     Atomic      Atomic             Coordinates (Angstroms)
 Number     Number       Type             X           Y           Z
 ---------------------------------------------------------------------
      1          6           0       -0.355670    0.524730   -0.339594
      2          6           0       -1.235597   -0.265061    0.522875
      3          8           0       -0.807838   -0.729781    1.593323
      4          6           0        1.017121    0.373113   -0.334492
      5          6           0        1.440114    2.037898    1.923568
      6          1           0        0.434264    2.328305    1.618208
      7          1           0        1.512534    2.117612    3.009078
      8          1           0        2.160302    2.715367    1.469124
      9          7           0        1.681686    0.677018    1.467345
     10          1           0        1.046669    0.020279    1.920052
     11          1           0        2.643202    0.383238    1.588742
     12          6           0        1.917192    1.265779   -1.135574
     13          1           0        1.715215    2.310509   -0.903978
     14          1           0        2.962123    1.048929   -0.926346
     15          1           0        1.734447    1.111774   -2.199661
     16         35           0        1.651607   -1.496637   -0.432726
     17         17           0       -1.011570    2.023659   -1.010237
     18          7           0       -2.526939   -0.457680    0.159059
     19          6           0       -3.448538   -1.037960    1.112346
     20          6           0       -2.999092   -0.399531   -1.209246
     21          1           0       -3.146335   -0.779759    2.123510
     22          1           0       -4.447933   -0.644214    0.922637
     23          1           0       -3.483301   -2.128793    1.026593
     24          1           0       -2.163117   -0.295808   -1.894898
     25          1           0       -3.520807   -1.330802   -1.443022
     26          1           0       -3.690507    0.432534   -1.361320
 ---------------------------------------------------------------------

 SCF Done:  E(RwB97XD) =  -3494.32226384     A.U. after    1 cycles

 The electronic state is 1-A.
 Alpha  occ. eigenvalues -- -483.12482-101.68946 -62.67332 -56.46442 -56.46096
 Alpha  occ. eigenvalues --  -56.46088 -19.21089 -14.47269 -14.46049 -10.39594
 Alpha  occ. eigenvalues --  -10.38562 -10.31395 -10.30855 -10.30833 -10.30548
 Alpha  occ. eigenvalues --  -10.29098  -9.57460  -8.81436  -7.32098  -7.31254
 Alpha  occ. eigenvalues --   -7.31226  -6.63561  -6.62470  -6.62442  -2.73946
 Alpha  occ. eigenvalues --   -2.73642  -2.73620  -2.72737  -2.72737  -1.13787
 Alpha  occ. eigenvalues --   -1.03642  -1.03041  -0.96886  -0.91426  -0.83792
 Alpha  occ. eigenvalues --   -0.82567  -0.80945  -0.78460  -0.77640  -0.67475
 Alpha  occ. eigenvalues --   -0.62954  -0.61474  -0.58761  -0.57389  -0.56762
 Alpha  occ. eigenvalues --   -0.56165  -0.54565  -0.53200  -0.51726  -0.49790
 Alpha  occ. eigenvalues --   -0.48739  -0.48641  -0.47960  -0.47837  -0.46856
 Alpha  occ. eigenvalues --   -0.45782  -0.44359  -0.42957  -0.41495  -0.39946
 Alpha  occ. eigenvalues --   -0.37317  -0.36653  -0.34681  -0.32174  -0.26818
 Alpha virt. eigenvalues --    0.03349   0.05974   0.10419   0.10780   0.12372
 Alpha virt. eigenvalues --    0.14611   0.15384   0.15617   0.16654   0.17183
 Alpha virt. eigenvalues --    0.17854   0.18208   0.18987   0.19951   0.20150

 Mulliken charges:
               1
     1  C   -0.322698
     2  C    0.371256
     3  O   -0.561711
     4  C    0.193171
     5  C   -0.308086
     6  H    0.151570
     7  H    0.153263
     8  H    0.157199
     9  N   -0.327615
    10  H    0.278016
    11  H    0.279098
    12  C   -0.379940
    13  H    0.151730
    14  H    0.154897
    15  H    0.161355
    16  Br  -0.144469
    17  Cl  -0.169991
    18  N   -0.104503
    19  C   -0.292157
    20  C   -0.300380
    21  H    0.140561
    22  H    0.141154
    23  H    0.137214
    24  H    0.160046
    25  H    0.138557
    26  H    0.142463
 Sum of Mulliken charges =  -0.00000

 Dipole moment (field-independent basis, Debye):
    X=              2.0360    Y=              2.5593    Z=              0.9584  Tot=              3.4079
 Quadrupole moment (field-independent basis, Debye-Ang):
   XX=            -74.8475   YY=            -94.4157   ZZ=            -91.2798
   XY=             10.0570   XZ=              7.0026   YZ=              5.9551

  Exact polarizability: 225.502  -0.629 192.147  16.216  -2.397 176.391
 Approx polarizability: 171.242  -4.140 159.059  12.982  -4.940 150.571

 ******    1 imaginary frequencies (negative Signs) ******

                      1                      2                      3
                      A                      A                      A
 Frequencies --   -396.1677                48.7010                79.3690
 Red. masses --      5.6406                 4.3339                 3.9948
 Frc consts  --      0.5216                 0.0061                 0.0148
 IR Inten    --    733.6735                 4.2327                 4.0106

                      4                      5                      6
                      A                      A                      A
 Frequencies --     88.7548               101.9386               131.1048
 Red. masses --      3.0175                 3.4118                 1.5473
 Frc consts  --      0.0140                 0.0209                 0.0157
 IR Inten    --      0.5263                 5.6072                 1.6673

                      7                      8                      9
                      A                      A                      A
 Frequencies --    146.7378               151.8720               170.5580
 Red. masses --      5.0364                 2.4268                 2.6727
 Frc consts  --      0.0639                 0.0330                 0.0458
 IR Inten    --     21.8440                 6.0030                 8.2924

                     10                     11                     12
                      A                      A                      A
 Frequencies --    185.4455               198.6713               229.7235
 Red. masses --      2.1440                 1.2793                 3.2012
 Frc consts  --      0.0434                 0.0297                 0.0995
 IR Inten    --      5.6913                 2.6957                 4.2172

                     13                     14                     15
                      A                      A                      A
 Frequencies --    245.6614               262.4995               280.7722
 Red. masses --      2.4984                 2.7938                 2.1610
 Frc consts  --      0.0888                 0.1134                 0.1004
 IR Inten    --      9.4744                14.5806                11.8749

                     16                     17                     18
                      A                      A                      A
 Frequencies --    290.6508               299.1760               329.3847
 Red. masses --      5.5559                 1.8695                 1.7437
 Frc consts  --      0.2765                 0.0986                 0.1115
 IR Inten    --     10.3992                44.3970                 8.3818

                     19                     20                     21
                      A                      A                      A
 Frequencies --    354.5341               415.0647               419.5996
 Red. masses --      2.7237                 2.5949                 5.1595
 Frc consts  --      0.2017                 0.2634                 0.5352
 IR Inten    --      9.1227                 9.4227                12.7185

                     22                     23                     24
                      A                      A                      A
 Frequencies --    508.8218               523.6542               644.9754
 Red. masses --      3.5076                 6.1638                 2.3621
 Frc consts  --      0.5351                 0.9958                 0.5789
 IR Inten    --     41.0817                85.9634                85.1273

                     25                     26                     27
                      A                      A                      A
 Frequencies --    677.7592               734.5226               780.9233
 Red. masses --      5.1594                 1.9100                 8.1520
 Frc consts  --      1.3964                 0.6072                 2.9291
 IR Inten    --     28.8933               162.5576                38.2406

                     28                     29                     30
                      A                      A                      A
 Frequencies --    898.8456               994.8522              1029.9955
 Red. masses --      5.3033                 1.0905                 2.1621
 Frc consts  --      2.5244                 0.6359                 1.3514
 IR Inten    --     42.2714                62.2134                43.9340

                     31                     32                     33
                      A                      A                      A
 Frequencies --   1049.0431              1061.8137              1081.4995
 Red. masses --      2.0295                 1.3717                 1.5266
 Frc consts  --      1.3159                 0.9112                 1.0520
 IR Inten    --     73.7705                33.5690               167.5587

                     34                     35                     36
                      A                      A                      A
 Frequencies --   1086.6572              1094.3962              1132.3797
 Red. masses --      3.2335                 1.3788                 1.7219
 Frc consts  --      2.2496                 0.9729                 1.3009
 IR Inten    --      4.0260                20.0206                67.1509

                     37                     38                     39
                      A                      A                      A
 Frequencies --   1134.5101              1171.1730              1210.7143
 Red. masses --      1.5446                 1.4077                 1.4009
 Frc consts  --      1.1713                 1.1376                 1.2099
 IR Inten    --     39.2175                 8.4215                66.7963

                     40                     41                     42
                      A                      A                      A
 Frequencies --   1231.8845              1316.9191              1358.0890
 Red. masses --      3.0154                 5.1811                 1.2921
 Frc consts  --      2.6961                 5.2940                 1.4041
 IR Inten    --    201.8096                43.5570                13.3378

                     43                     44                     45
                      A                      A                      A
 Frequencies --   1416.5132              1436.1996              1449.0557
 Red. masses --      1.3244                 1.9066                 1.2860
 Frc consts  --      1.5657                 2.3170                 1.5909
 IR Inten    --    133.5772               600.9754                82.0920

                     46                     47                     48
                      A                      A                      A
 Frequencies --   1452.8785              1464.3858              1474.6774
 Red. masses --      1.4576                 1.3610                 1.1899
 Frc consts  --      1.8128                 1.7196                 1.5246
 IR Inten    --     11.8668                81.0969                57.8187

                     49                     50                     51
                      A                      A                      A
 Frequencies --   1483.4001              1485.8117              1490.5833
 Red. masses --      1.0651                 1.0630                 1.1958
 Frc consts  --      1.3809                 1.3827                 1.5654
 IR Inten    --      9.3910                30.0691                60.7593

                     52                     53                     54
                      A                      A                      A
 Frequencies --   1498.3415              1502.0955              1510.1842
 Red. masses --      1.2188                 1.0796                 1.0371
 Frc consts  --      1.6121                 1.4353                 1.3935
 IR Inten    --     54.0119                32.3057                 5.4525

                     55                     56                     57
                      A                      A                      A
 Frequencies --   1515.3372              1538.3157              1616.5206
 Red. masses --      1.0710                 1.7377                 2.1198
 Frc consts  --      1.4490                 2.4228                 3.2637
 IR Inten    --     19.2255               177.8025               601.9505

                     58                     59                     60
                      A                      A                      A
 Frequencies --   1649.5599              3034.8597              3044.4077
 Red. masses --      1.6750                 1.0440                 1.0385
 Frc consts  --      2.6854                 5.6652                 5.6710
 IR Inten    --    162.0375                77.9934               102.4705

                     61                     62                     63
                      A                      A                      A
 Frequencies --   3062.1655              3075.3718              3099.7715
 Red. masses --      1.0337                 1.0361                 1.1023
 Frc consts  --      5.7109                 5.7739                 6.2404
 IR Inten    --     47.3721                 8.3351                67.1484

                     64                     65                     66
                      A                      A                      A
 Frequencies --   3108.3755              3134.7704              3151.7998
 Red. masses --      1.0975                 1.1040                 1.1015
 Frc consts  --      6.2476                 6.3920                 6.4469
 IR Inten    --     17.2733                15.9924                 8.4712

                     67                     68                     69
                      A                      A                      A
 Frequencies --   3160.7537              3170.6494              3174.8534
 Red. masses --      1.1049                 1.1037                 1.1001
 Frc consts  --      6.5036                 6.5371                 6.5335
 IR Inten    --     22.3957                10.4204                10.8040

                     70                     71                     72
                      A                      A                      A
 Frequencies --   3179.8391              3436.4389              3590.2063
 Red. masses --      1.0983                 1.0603                 1.0892
 Frc consts  --      6.5431                 7.3773                 8.2714
 IR Inten    --     13.3894               112.7608               101.1767

 - Thermochemistry -
 -------------------
 Temperature   298.150 Kelvin.  Pressure   1.00000 Atm.
 Atom     1 has atomic number  6 and mass  12.00000

 Molecular mass:   255.99780 amu.
 Principal axes and moments of inertia in atomic units:
                           1         2         3
     Eigenvalues --  2537.209283974.842414655.25167
           X            0.98889   0.14712   0.02114
           Y           -0.14761   0.98875   0.02421
           Z           -0.01734  -0.02706   0.99948
 This molecule is an asymmetric top.
 Rotational symmetry number  1.
 Warning -- assumption of classical behavior for rotation
           may cause significant error
 Rotational temperatures (Kelvin)      0.03414     0.02179     0.01861
 Rotational constants (GHZ):           0.71131     0.45404     0.38768
    1 imaginary frequencies ignored.
 Zero-point vibrational energy     559623.7 (Joules/Mol)
                                  133.75327 (Kcal/Mol)
 Warning -- explicit consideration of  22 degrees of freedom as
           vibrations may cause significant error
 Vibrational temperatures:     70.07   114.19   127.70   146.67   188.63
          (Kelvin)            211.12   218.51   245.39   266.81   285.84
                              330.52   353.45   377.68   403.97   418.18
                              430.45   473.91   510.10   597.19   603.71
                              732.08   753.42   927.98   975.14  1056.81
                             1123.57  1293.24  1431.37  1481.93  1509.34
                             1527.71  1556.04  1563.46  1574.59  1629.24
                             1632.31  1685.06  1741.95  1772.41  1894.75
                             1953.99  2038.05  2066.37  2084.87  2090.37
                             2106.92  2121.73  2134.28  2137.75  2144.62
                             2155.78  2161.18  2172.82  2180.23  2213.29
                             2325.81  2373.35  4366.49  4380.22  4405.77
                             4424.77  4459.88  4472.26  4510.24  4534.74
                             4547.62  4561.86  4567.91  4575.08  4944.27
                             5165.51

 Zero-point correction=                           0.213149 (Hartree/Particle)
 Thermal correction to Energy=                    0.228228
 Thermal correction to Enthalpy=                  0.229172
 Thermal correction to Gibbs Free Energy=         0.170609
 Sum of electronic and zero-point Energies=          -3494.109114
 Sum of electronic and thermal Energies=             -3494.094036
 Sum of electronic and thermal Enthalpies=           -3494.093091
 Sum of electronic and thermal Free Energies=        -3494.151655

                     E (Thermal)             CV                S
                      KCal/Mol        Cal/Mol-Kelvin    Cal/Mol-Kelvin
 Total                  143.215             52.578            123.257
 Electronic               0.000              0.000              0.000
 Translational            0.889              2.981             42.520
 Rotational               0.889              2.981             32.218
 Vibrational            141.438             46.616             48.519
 Vibration     1          0.595              1.978              4.869
 Vibration     2          0.600              1.963              3.906
 Vibration     3          0.602              1.957              3.687
 Vibration     4          0.604              1.948              3.417
 Vibration     5          0.612              1.922              2.930
 Vibration     6          0.617              1.906              2.714
 Vibration     7          0.619              1.901              2.649
 Vibration     8          0.626              1.879              2.429
 Vibration     9          0.632              1.860              2.273
 Vibration    10          0.637              1.842              2.145
 Vibration    11          0.652              1.796              1.881
 Vibration    12          0.660              1.770              1.762
 Vibration    13          0.670              1.742              1.645
 Vibration    14          0.680              1.709              1.529
 Vibration    15          0.687              1.691              1.470
 Vibration    16          0.692              1.675              1.422
 Vibration    17          0.712              1.617              1.263
 Vibration    18          0.730              1.566              1.146
 Vibration    19          0.778              1.438              0.909
 Vibration    20          0.782              1.428              0.893
 Vibration    21          0.864              1.230              0.636
 Vibration    22          0.879              1.198              0.602

 Optimization completed.
    -- Stationary point found.
 Normal termination of Gaussian 16 at Tue Feb 16 13:45:24 2021.
