 Gaussian 16, Revision A.03,
 Gaussian 16:  ES64L-G16RevA.03 25-Dec-2016

 ----------------------------------------------------------------------
 # wB97XD def2tzvp, opt=(ts, noeigen, calcfc, maxcycles=70, maxstep=8),
  freq=noraman, scrf=(iefpcm, solvent=water)
 ----------------------------------------------------------------------

 ------------------------
 1_iteration/TS-539-1.out
 ------------------------
 Symbolic Z-matrix:
 Charge =  0 Multiplicity = 1

 SCF Done:  E(RwB97XD) =  -2995.41960520     A.U. after   15 cycles
 SCF Done:  E(RwB97XD) =  -2995.42002641     A.U. after   12 cycles
 SCF Done:  E(RwB97XD) =  -2995.42010849     A.U. after   12 cycles
 SCF Done:  E(RwB97XD) =  -2995.42022057     A.U. after   12 cycles
 SCF Done:  E(RwB97XD) =  -2995.42023308     A.U. after   10 cycles
 SCF Done:  E(RwB97XD) =  -2995.42023286     A.U. after   10 cycles
 SCF Done:  E(RwB97XD) =  -2995.42023405     A.U. after   10 cycles
 SCF Done:  E(RwB97XD) =  -2995.42023418     A.U. after    8 cycles
 SCF Done:  E(RwB97XD) =  -2995.42023418     A.U. after    7 cycles
 Optimization completed.
    -- Stationary point found.
 Normal termination of Gaussian 16 at Tue Feb 16 23:02:26 2021.

 ---------------------------------------------------------------------
 #N Geom=AllCheck Guess=TCheck SCRF=Check GenChk RwB97XD/def2TZVP Freq
 ---------------------------------------------------------------------

 Structure from the checkpoint file:  "/beegfs/scratch/user/q/tla25/Gau-15338.chk"
 ------------------------
 1_iteration/TS-539-1.out
 ------------------------
 Charge =  0 Multiplicity = 1

                         Standard orientation:
 ---------------------------------------------------------------------
 Center     Atomic      Atomic             Coordinates (Angstroms)
 Number     Number       Type             X           Y           Z
 ---------------------------------------------------------------------
      1          6           0        1.031903    0.028159    0.614623
      2          6           0        1.593249   -0.845608   -0.396180
      3          8           0        1.060604   -1.060868   -1.498544
      4          6           0       -0.273748    0.452977    0.512221
      5          6           0        0.472037    2.529333   -1.295500
      6          1           0        0.725138    2.797137   -2.322431
      7          1           0        0.041784    3.396389   -0.797717
      8          1           0        1.389278    2.239539   -0.775809
      9          7           0       -0.451542    1.412429   -1.228695
     10          1           0       -1.404017    1.659889   -1.463620
     11          1           0       -0.138969    0.625819   -1.793785
     12          6           0       -0.869972    1.462351    1.448646
     13          1           0       -0.241148    2.351353    1.498489
     14          1           0       -1.863120    1.758908    1.120654
     15          1           0       -0.952771    1.040559    2.451640
     16         35           0       -1.682786   -0.890634    0.059384
     17          6           0        1.941660    0.548555    1.706004
     18          1           0        2.200154   -0.233480    2.429463
     19          1           0        2.879499    0.939538    1.301606
     20          1           0        1.480687    1.350161    2.277547
     21          7           0        2.818037   -1.389724   -0.135992
     22          1           0        3.185130   -1.425788    0.797183
     23          1           0        3.174786   -2.054420   -0.799398
 ---------------------------------------------------------------------

 SCF Done:  E(RwB97XD) =  -2995.42023418     A.U. after    1 cycles

 The electronic state is 1-A.
 Alpha  occ. eigenvalues -- -483.11405 -62.66260 -56.45356 -56.45033 -56.45019
 Alpha  occ. eigenvalues --  -19.20119 -14.46372 -14.43769 -10.38483 -10.37582
 Alpha  occ. eigenvalues --  -10.31002 -10.28793 -10.27638 -10.26216  -8.80366
 Alpha  occ. eigenvalues --   -6.62448  -6.61433  -6.61385  -2.72838  -2.72563
 Alpha  occ. eigenvalues --   -2.72525  -2.71703  -2.71703  -1.12451  -1.02303
 Alpha  occ. eigenvalues --   -0.99265  -0.93153  -0.85764  -0.82350  -0.77875
 Alpha  occ. eigenvalues --   -0.76233  -0.70266  -0.63579  -0.61822  -0.59358
 Alpha  occ. eigenvalues --   -0.56803  -0.56063  -0.54228  -0.52910  -0.50959
 Alpha  occ. eigenvalues --   -0.49601  -0.49086  -0.47791  -0.47324  -0.46502
 Alpha  occ. eigenvalues --   -0.46192  -0.42780  -0.41346  -0.37103  -0.35809
 Alpha  occ. eigenvalues --   -0.34602  -0.33363  -0.26802
 Alpha virt. eigenvalues --    0.04275   0.06331   0.10266   0.12505   0.14260
 Alpha virt. eigenvalues --    0.14883   0.16065   0.16402   0.17425   0.18411
 Alpha virt. eigenvalues --    0.19274   0.20216   0.20567   0.20892   0.22446

 Mulliken charges:
               1
     1  C   -0.307169
     2  C    0.363208
     3  O   -0.561028
     4  C    0.235187
     5  C   -0.298312
     6  H    0.149296
     7  H    0.154313
     8  H    0.147593
     9  N   -0.354294
    10  H    0.275302
    11  H    0.273068
    12  C   -0.415217
    13  H    0.154049
    14  H    0.154797
    15  H    0.166793
    16  Br  -0.189529
    17  C   -0.416897
    18  H    0.134890
    19  H    0.136806
    20  H    0.135267
    21  N   -0.474529
    22  H    0.274667
    23  H    0.261738
 Sum of Mulliken charges =  -0.00000

 Dipole moment (field-independent basis, Debye):
    X=              1.5345    Y=              5.4157    Z=              1.7511  Tot=              5.8950
 Quadrupole moment (field-independent basis, Debye-Ang):
   XX=            -68.1594   YY=            -66.6310   ZZ=            -73.7305
   XY=             -8.0809   XZ=              5.5100   YZ=             -5.8833

  Exact polarizability: 186.878  -7.820 160.778   9.515  -2.361 148.656
 Approx polarizability: 144.195  -4.086 129.061   8.919   0.249 126.193

 ******    1 imaginary frequencies (negative Signs) ******

                      1                      2                      3
                      A                      A                      A
 Frequencies --   -409.3501                66.4169                94.6952
 Red. masses --      5.2961                 3.1171                 3.5389
 Frc consts  --      0.5229                 0.0081                 0.0187
 IR Inten    --    569.1681                 2.8719                 9.9169

                      4                      5                      6
                      A                      A                      A
 Frequencies --    110.2443               143.4961               150.0098
 Red. masses --      3.2651                 2.6194                 4.9650
 Frc consts  --      0.0234                 0.0318                 0.0658
 IR Inten    --     19.1694                 5.7483                 2.2606

                      7                      8                      9
                      A                      A                      A
 Frequencies --    166.1304               188.3019               213.4065
 Red. masses --      1.2676                 1.7435                 1.6088
 Frc consts  --      0.0206                 0.0364                 0.0432
 IR Inten    --      5.4521                19.3958                21.0399

                     10                     11                     12
                      A                      A                      A
 Frequencies --    255.5216               258.3117               273.4821
 Red. masses --      2.2123                 3.5878                 1.2803
 Frc consts  --      0.0851                 0.1410                 0.0564
 IR Inten    --     14.9329                19.9323               396.2943

                     13                     14                     15
                      A                      A                      A
 Frequencies --    292.3724               319.9789               329.4454
 Red. masses --      1.4453                 3.5555                 3.0891
 Frc consts  --      0.0728                 0.2145                 0.1975
 IR Inten    --      5.1455                37.9369                 7.1838

                     16                     17                     18
                      A                      A                      A
 Frequencies --    383.8065               429.5195               485.4066
 Red. masses --      2.0770                 4.0852                 2.8725
 Frc consts  --      0.1803                 0.4440                 0.3988
 IR Inten    --      1.6718                27.4977                48.7729

                     19                     20                     21
                      A                      A                      A
 Frequencies --    539.9910               567.3501               620.5713
 Red. masses --      1.2632                 2.5152                 3.5563
 Frc consts  --      0.2170                 0.4770                 0.8069
 IR Inten    --     13.2485                59.4065                73.0133

                     22                     23                     24
                      A                      A                      A
 Frequencies --    680.6161               773.3310               804.0236
 Red. masses --      1.4615                 3.5353                 5.4365
 Frc consts  --      0.3989                 1.2457                 2.0706
 IR Inten    --     45.4446                82.4774                62.5716

                     25                     26                     27
                      A                      A                      A
 Frequencies --    965.5686               968.2092              1039.2174
 Red. masses --      1.8278                 1.0973                 1.1406
 Frc consts  --      1.0040                 0.6061                 0.7258
 IR Inten    --    153.7062               126.5427                51.8189

                     28                     29                     30
                      A                      A                      A
 Frequencies --   1047.1145              1064.3816              1084.7256
 Red. masses --      1.3665                 1.4541                 1.6369
 Frc consts  --      0.8828                 0.9706                 1.1348
 IR Inten    --     86.7835                16.1808                68.7120

                     31                     32                     33
                      A                      A                      A
 Frequencies --   1090.7567              1095.8415              1127.7834
 Red. masses --      1.9898                 4.0578                 1.8989
 Frc consts  --      1.3948                 2.8710                 1.4230
 IR Inten    --     55.7905                41.4847                47.7627

                     34                     35                     36
                      A                      A                      A
 Frequencies --   1187.2938              1220.2710              1345.8147
 Red. masses --      1.4133                 5.2195                 1.3173
 Frc consts  --      1.1738                 4.5792                 1.4057
 IR Inten    --     32.6100                69.5938                 4.8709

                     37                     38                     39
                      A                      A                      A
 Frequencies --   1384.9052              1409.3657              1424.2219
 Red. masses --      4.0132                 1.3045                 1.2533
 Frc consts  --      4.5351                 1.5266                 1.4978
 IR Inten    --    495.0796                66.1841               101.7332

                     40                     41                     42
                      A                      A                      A
 Frequencies --   1448.8626              1467.4078              1485.0216
 Red. masses --      1.2216                 1.2619                 1.0715
 Frc consts  --      1.5109                 1.6009                 1.3922
 IR Inten    --     46.2465               140.5554                32.0292

                     43                     44                     45
                      A                      A                      A
 Frequencies --   1490.4321              1493.6594              1505.0666
 Red. masses --      1.0688                 1.0494                 1.2978
 Frc consts  --      1.3988                 1.3794                 1.7321
 IR Inten    --      5.9578                12.0081                34.2609

                     46                     47                     48
                      A                      A                      A
 Frequencies --   1506.3919              1525.2688              1620.9414
 Red. masses --      1.0809                 1.6309                 1.5422
 Frc consts  --      1.4451                 2.2355                 2.3873
 IR Inten    --     65.5036               410.2783               164.4459

                     49                     50                     51
                      A                      A                      A
 Frequencies --   1636.8307              1666.0033              3016.6385
 Red. masses --      1.2042                 2.6635                 1.0491
 Frc consts  --      1.9008                 4.3556                 5.6251
 IR Inten    --    305.8850               352.7242               107.2453

                     52                     53                     54
                      A                      A                      A
 Frequencies --   3046.9579              3068.6178              3070.3980
 Red. masses --      1.0354                 1.0424                 1.0895
 Frc consts  --      5.6634                 5.7830                 6.0515
 IR Inten    --     56.5214                12.9504                48.1561

                     55                     56                     57
                      A                      A                      A
 Frequencies --   3114.3502              3141.9646              3154.0218
 Red. masses --      1.1024                 1.1018                 1.1036
 Frc consts  --      6.2996                 6.4084                 6.4684
 IR Inten    --     19.4920                13.1767                23.1136

                     58                     59                     60
                      A                      A                      A
 Frequencies --   3160.3460              3167.2456              3462.8365
 Red. masses --      1.0942                 1.1004                 1.0587
 Frc consts  --      6.4392                 6.5039                 7.4796
 IR Inten    --     23.2695                13.4442                75.4129

                     61                     62                     63
                      A                      A                      A
 Frequencies --   3605.1716              3626.4232              3750.5648
 Red. masses --      1.0904                 1.0459                 1.1041
 Frc consts  --      8.3501                 8.1036                 9.1503
 IR Inten    --     92.3180                74.7713                66.8536

 - Thermochemistry -
 -------------------
 Temperature   298.150 Kelvin.  Pressure   1.00000 Atm.
 Atom     1 has atomic number  6 and mass  12.00000

 Molecular mass:   208.02112 amu.
 Principal axes and moments of inertia in atomic units:
                           1         2         3
     Eigenvalues --  1707.047672440.296672840.76854
           X            0.99516  -0.09428   0.02772
           Y            0.09476   0.99536  -0.01658
           Z           -0.02603   0.01912   0.99948
 This molecule is an asymmetric top.
 Rotational symmetry number  1.
 Warning -- assumption of classical behavior for rotation
           may cause significant error
 Rotational temperatures (Kelvin)      0.05074     0.03549     0.03049
 Rotational constants (GHZ):           1.05723     0.73956     0.63530
    1 imaginary frequencies ignored.
 Zero-point vibrational energy     507416.0 (Joules/Mol)
                                  121.27532 (Kcal/Mol)
 Warning -- explicit consideration of  20 degrees of freedom as
           vibrations may cause significant error
 Vibrational temperatures:     95.56   136.25   158.62   206.46   215.83
          (Kelvin)            239.02   270.92   307.04   367.64   371.65
                              393.48   420.66   460.38   474.00   552.21
                              617.98   698.39   776.93   816.29   892.86
                              979.25  1112.65  1156.81  1389.24  1393.04
                             1495.20  1506.56  1531.41  1560.68  1569.36
                             1576.67  1622.63  1708.25  1755.70  1936.33
                             1992.57  2027.76  2049.14  2084.59  2111.27
                             2136.61  2144.40  2149.04  2165.46  2167.36
                             2194.52  2332.17  2355.03  2397.01  4340.27
                             4383.89  4415.06  4417.62  4480.86  4520.59
                             4537.93  4547.03  4556.96  4982.25  5187.04
                             5217.61  5396.23

 Zero-point correction=                           0.193265 (Hartree/Particle)
 Thermal correction to Energy=                    0.206048
 Thermal correction to Enthalpy=                  0.206992
 Thermal correction to Gibbs Free Energy=         0.154360
 Sum of electronic and zero-point Energies=          -2995.226970
 Sum of electronic and thermal Energies=             -2995.214186
 Sum of electronic and thermal Enthalpies=           -2995.213242
 Sum of electronic and thermal Free Energies=        -2995.265874

                     E (Thermal)             CV                S
                      KCal/Mol        Cal/Mol-Kelvin    Cal/Mol-Kelvin
 Total                  129.297             45.546            110.774
 Electronic               0.000              0.000              0.000
 Translational            0.889              2.981             41.901
 Rotational               0.889              2.981             30.849
 Vibrational            127.520             39.584             38.023
 Vibration     1          0.598              1.970              4.257
 Vibration     2          0.603              1.953              3.561
 Vibration     3          0.606              1.941              3.265
 Vibration     4          0.616              1.910              2.757
 Vibration     5          0.618              1.903              2.672
 Vibration     6          0.624              1.884              2.479
 Vibration     7          0.633              1.856              2.244
 Vibration     8          0.644              1.821              2.014
 Vibration     9          0.666              1.753              1.692
 Vibration    10          0.667              1.749              1.673
 Vibration    11          0.676              1.722              1.574
 Vibration    12          0.688              1.688              1.460
 Vibration    13          0.706              1.635              1.310
 Vibration    14          0.712              1.617              1.263
 Vibration    15          0.753              1.505              1.024
 Vibration    16          0.791              1.406              0.860
 Vibration    17          0.841              1.282              0.696
 Vibration    18          0.895              1.162              0.565
 Vibration    19          0.923              1.102              0.509
 Vibration    20          0.981              0.988              0.416

 Optimization completed.
    -- Stationary point found.
 Normal termination of Gaussian 16 at Tue Feb 16 23:25:34 2021.
