 Gaussian 16, Revision A.03,
 Gaussian 16:  ES64L-G16RevA.03 25-Dec-2016

 ----------------------------------------------------------------------
 # wB97XD def2tzvp, opt=(ts, noeigen, calcfc, maxcycles=70, maxstep=8),
  freq=noraman, scrf=(iefpcm, solvent=water)
 ----------------------------------------------------------------------

 ------------------------
 1_iteration/TS-575-1.out
 ------------------------
 Symbolic Z-matrix:
 Charge =  0 Multiplicity = 1

 SCF Done:  E(RwB97XD) =  -1073.14533431     A.U. after   14 cycles
 SCF Done:  E(RwB97XD) =  -1073.14533437     A.U. after    9 cycles
 SCF Done:  E(RwB97XD) =  -1073.14533434     A.U. after    8 cycles
 Optimization completed on the basis of negligible forces.
    -- Stationary point found.
 Normal termination of Gaussian 16 at Tue Feb 16 17:08:02 2021.

 ---------------------------------------------------------------------
 #N Geom=AllCheck Guess=TCheck SCRF=Check GenChk RwB97XD/def2TZVP Freq
 ---------------------------------------------------------------------

 Structure from the checkpoint file:  "/beegfs/scratch/user/q/tla25/Gau-32237.chk"
 ------------------------
 1_iteration/TS-575-1.out
 ------------------------
 Charge =  0 Multiplicity = 1

                         Standard orientation:
 ---------------------------------------------------------------------
 Center     Atomic      Atomic             Coordinates (Angstroms)
 Number     Number       Type             X           Y           Z
 ---------------------------------------------------------------------
      1          6           0        1.496604    1.455163   -0.303067
      2          6           0        0.066485    1.473461   -0.165276
      3          8           0       -0.555862    2.533101   -0.033352
      4          6           0        2.410902    0.408523   -0.311403
      5          6           0        3.278998   -1.517887    1.759846
      6          1           0        3.098271   -1.836314    2.786845
      7          1           0        3.050408   -2.339191    1.084633
      8          1           0        4.325979   -1.243834    1.654012
      9          7           0        2.439603   -0.368015    1.414206
     10          1           0        1.457894   -0.570205    1.573731
     11          1           0        2.667091    0.441951    1.981339
     12          6           0        3.864433    0.745399   -0.505657
     13          1           0        4.148905    1.552764    0.169006
     14          1           0        4.507177   -0.114068   -0.328827
     15          1           0        4.017110    1.078628   -1.531843
     16         17           0        2.016102   -1.106132   -1.235023
     17          1           0        1.943432    2.437150   -0.213654
     18          7           0       -0.598363    0.255797   -0.162185
     19          6           0       -1.967644    0.003199   -0.048686
     20          6           0       -2.892421    0.914487    0.464832
     21          6           0       -4.229133    0.556133    0.570377
     22          6           0       -4.672404   -0.698088    0.179833
     23          6           0       -3.751897   -1.607428   -0.324325
     24          6           0       -2.417485   -1.262578   -0.439292
     25          1           0       -0.058653   -0.533544   -0.478677
     26          1           0       -2.559878    1.892494    0.771112
     27          1           0       -4.932595    1.276444    0.970239
     28          1           0       -5.717455   -0.965138    0.267729
     29          1           0       -4.073358   -2.594012   -0.634392
     30          1           0       -1.708473   -1.980472   -0.836286
 ---------------------------------------------------------------------

 SCF Done:  E(RwB97XD) =  -1073.14533434     A.U. after    1 cycles

 The electronic state is 1-A.
 Alpha  occ. eigenvalues -- -101.70116 -19.19842 -14.49601 -14.45702 -10.40751
 Alpha  occ. eigenvalues --  -10.38111 -10.33559 -10.32188 -10.29261 -10.28926
 Alpha  occ. eigenvalues --  -10.28773 -10.28665 -10.28120 -10.28041 -10.25201
 Alpha  occ. eigenvalues --   -9.58736  -7.33327  -7.32540  -7.32509  -1.12722
 Alpha  occ. eigenvalues --   -1.05231  -1.03376  -0.97375  -0.95122  -0.87756
 Alpha  occ. eigenvalues --   -0.85031  -0.84922  -0.80922  -0.79286  -0.72628
 Alpha  occ. eigenvalues --   -0.71100  -0.67851  -0.64916  -0.63993  -0.62390
 Alpha  occ. eigenvalues --   -0.59864  -0.58069  -0.56616  -0.56322  -0.53758
 Alpha  occ. eigenvalues --   -0.53069  -0.52017  -0.51484  -0.50986  -0.50371
 Alpha  occ. eigenvalues --   -0.49712  -0.48799  -0.47418  -0.46481  -0.45868
 Alpha  occ. eigenvalues --   -0.44558  -0.44450  -0.42762  -0.40335  -0.39762
 Alpha  occ. eigenvalues --   -0.39025  -0.33993  -0.33254  -0.30289  -0.27278
 Alpha virt. eigenvalues --    0.04224   0.05525   0.06673   0.08634   0.09717
 Alpha virt. eigenvalues --    0.13086   0.13781   0.14449   0.15211   0.15883
 Alpha virt. eigenvalues --    0.16762   0.17241   0.18052   0.18285   0.19170

 Mulliken charges:
               1
     1  C   -0.443104
     2  C    0.397148
     3  O   -0.547026
     4  C    0.136286
     5  C   -0.286195
     6  H    0.161269
     7  H    0.153121
     8  H    0.158108
     9  N   -0.294800
    10  H    0.279641
    11  H    0.286996
    12  C   -0.377400
    13  H    0.152647
    14  H    0.152719
    15  H    0.157864
    16  Cl  -0.149086
    17  H    0.128746
    18  N   -0.271962
    19  C    0.284976
    20  C   -0.301816
    21  C   -0.100130
    22  C   -0.200653
    23  C   -0.101795
    24  C   -0.301432
    25  H    0.213253
    26  H    0.150642
    27  H    0.140209
    28  H    0.139491
    29  H    0.142126
    30  H    0.140159
 Sum of Mulliken charges =  -0.00000

 Dipole moment (field-independent basis, Debye):
    X=              8.2421    Y=             -6.6705    Z=              4.9294  Tot=             11.6930
 Quadrupole moment (field-independent basis, Debye-Ang):
   XX=            -73.1173   YY=           -106.5880   ZZ=            -92.8874
   XY=              3.6030   XZ=             10.9197   YZ=              0.7022

  Exact polarizability: 299.487  -6.311 241.775  -2.552  10.673 172.273
 Approx polarizability: 216.068  -4.449 203.334  -3.692  12.163 148.662

 ******    1 imaginary frequencies (negative Signs) ******

                      1                      2                      3
                      A                      A                      A
 Frequencies --   -381.4743                10.3197                24.9853
 Red. masses --      5.7872                 3.8658                 4.1510
 Frc consts  --      0.4962                 0.0002                 0.0015
 IR Inten    --    839.1376                 1.3864                 4.6104

                      4                      5                      6
                      A                      A                      A
 Frequencies --     55.6314                75.5800                89.5455
 Red. masses --      2.7433                 5.4290                 2.8283
 Frc consts  --      0.0050                 0.0183                 0.0134
 IR Inten    --      1.2513                 5.2407                 3.1688

                      7                      8                      9
                      A                      A                      A
 Frequencies --    104.4822               183.3110               185.0038
 Red. masses --      5.5279                 6.7946                 1.3455
 Frc consts  --      0.0356                 0.1345                 0.0271
 IR Inten    --     16.9629                20.8097                 1.3680

                     10                     11                     12
                      A                      A                      A
 Frequencies --    202.6877               237.0910               249.6649
 Red. masses --      2.8637                 1.5955                 4.4089
 Frc consts  --      0.0693                 0.0528                 0.1619
 IR Inten    --     10.4500                 0.3588                 5.2057

                     13                     14                     15
                      A                      A                      A
 Frequencies --    270.6205               307.1310               319.1947
 Red. masses --      1.9712                 3.2493                 3.3040
 Frc consts  --      0.0851                 0.1806                 0.1983
 IR Inten    --      3.0303                16.3445                 2.1242

                     16                     17                     18
                      A                      A                      A
 Frequencies --    354.6986               385.9327               422.7751
 Red. masses --      5.9677                 3.8965                 2.9724
 Frc consts  --      0.4424                 0.3419                 0.3130
 IR Inten    --      6.3433                 1.6089                 0.2637

                     19                     20                     21
                      A                      A                      A
 Frequencies --    441.3984               479.3633               527.3883
 Red. masses --      4.3260                 3.6484                 2.8101
 Frc consts  --      0.4966                 0.4940                 0.4605
 IR Inten    --     62.2434                48.6398                38.4221

                     22                     23                     24
                      A                      A                      A
 Frequencies --    544.0959               584.8400               611.3134
 Red. masses --      4.7716                 1.2608                 2.6382
 Frc consts  --      0.8323                 0.2541                 0.5809
 IR Inten    --     11.0987               161.5689                82.8660

                     25                     26                     27
                      A                      A                      A
 Frequencies --    636.8950               669.0273               704.5087
 Red. masses --      5.9371                 1.6315                 1.7301
 Frc consts  --      1.4189                 0.4303                 0.5059
 IR Inten    --      8.7102                93.8153                16.6880

                     28                     29                     30
                      A                      A                      A
 Frequencies --    717.8931               730.9449               781.9421
 Red. masses --      1.8661                 2.9383                 2.0179
 Frc consts  --      0.5666                 0.9249                 0.7269
 IR Inten    --     63.5816                22.5033                26.8949

                     31                     32                     33
                      A                      A                      A
 Frequencies --    788.4617               859.5893               883.4091
 Red. masses --      4.7615                 1.2603                 5.1749
 Frc consts  --      1.7440                 0.5487                 2.3795
 IR Inten    --    157.7779                 0.7038                18.8429

                     34                     35                     36
                      A                      A                      A
 Frequencies --    930.4238               963.9878               999.9387
 Red. masses --      1.5046                 3.2535                 1.3483
 Frc consts  --      0.7674                 1.7813                 0.7943
 IR Inten    --     11.2344                59.1373                 0.2426

                     37                     38                     39
                      A                      A                      A
 Frequencies --   1015.2738              1019.8576              1023.9503
 Red. masses --      1.2856                 4.9527                 1.2312
 Frc consts  --      0.7808                 3.0351                 0.7606
 IR Inten    --      0.8557                 9.1110                12.6858

                     40                     41                     42
                      A                      A                      A
 Frequencies --   1039.7258              1053.2718              1059.3536
 Red. masses --      2.5059                 1.6867                 1.6826
 Frc consts  --      1.5961                 1.1025                 1.1125
 IR Inten    --    212.6660                 8.9432                39.1834

                     43                     44                     45
                      A                      A                      A
 Frequencies --   1068.0618              1092.1216              1116.3715
 Red. masses --      1.5705                 1.7127                 1.5589
 Frc consts  --      1.0556                 1.2036                 1.1447
 IR Inten    --     48.2672               100.1880                 3.8652

                     46                     47                     48
                      A                      A                      A
 Frequencies --   1125.8557              1180.9580              1205.0238
 Red. masses --      2.6984                 1.1211                 1.1385
 Frc consts  --      2.0152                 0.9212                 0.9740
 IR Inten    --     52.9247                 3.0922                21.9810

                     49                     50                     51
                      A                      A                      A
 Frequencies --   1251.6196              1266.7855              1286.5958
 Red. masses --      1.3892                 1.7323                 2.0562
 Frc consts  --      1.2822                 1.6379                 2.0054
 IR Inten    --     84.8211               638.8898               244.2693

                     52                     53                     54
                      A                      A                      A
 Frequencies --   1292.6342              1344.3493              1350.9277
 Red. masses --      3.5514                 2.3939                 1.4959
 Frc consts  --      3.4962                 2.5491                 1.6085
 IR Inten    --     80.6504               357.6910               142.1705

                     55                     56                     57
                      A                      A                      A
 Frequencies --   1359.5716              1417.2588              1458.2278
 Red. masses --      1.7479                 1.2430                 1.2169
 Frc consts  --      1.9036                 1.4710                 1.5246
 IR Inten    --      1.4927                 7.3193                61.8275

                     58                     59                     60
                      A                      A                      A
 Frequencies --   1475.2722              1478.2477              1482.3373
 Red. masses --      1.2202                 1.9797                 1.1797
 Frc consts  --      1.5647                 2.5489                 1.5272
 IR Inten    --     66.8619               262.9029               113.4944

                     61                     62                     63
                      A                      A                      A
 Frequencies --   1492.5408              1497.7440              1509.9632
 Red. masses --      1.2162                 1.5285                 1.0677
 Frc consts  --      1.5963                 2.0202                 1.4342
 IR Inten    --    160.4889               380.9769                32.0653

                     64                     65                     66
                      A                      A                      A
 Frequencies --   1545.3858              1567.1342              1640.3655
 Red. masses --      2.5158                 2.0972                 1.0961
 Frc consts  --      3.5399                 3.0346                 1.7377
 IR Inten    --    216.2056               417.2999                99.3002

                     67                     68                     69
                      A                      A                      A
 Frequencies --   1655.2273              1669.5719              1678.1232
 Red. masses --      6.8810                 3.5368                 5.7383
 Frc consts  --     11.1075                 5.8086                 9.5210
 IR Inten    --    383.8888               291.7116               584.6896

                     70                     71                     72
                      A                      A                      A
 Frequencies --   3075.1064              3075.9337              3154.4155
 Red. masses --      1.0356                 1.0357                 1.1031
 Frc consts  --      5.7696                 5.7734                 6.4669
 IR Inten    --     15.7601                30.3631                 9.0803

                     73                     74                     75
                      A                      A                      A
 Frequencies --   3155.8141              3168.8806              3182.1179
 Red. masses --      1.1024                 1.1031                 1.1062
 Frc consts  --      6.4689                 6.5263                 6.5997
 IR Inten    --      9.8797                13.9525                10.5908

                     76                     77                     78
                      A                      A                      A
 Frequencies --   3185.3912              3195.7066              3199.6950
 Red. masses --      1.0878                 1.0882                 1.0873
 Frc consts  --      6.5033                 6.5477                 6.5587
 IR Inten    --     14.0605                 2.7452                 5.0305

                     79                     80                     81
                      A                      A                      A
 Frequencies --   3204.7816              3220.5579              3268.9854
 Red. masses --      1.0933                 1.0978                 1.0924
 Frc consts  --      6.6156                 6.7087                 6.8778
 IR Inten    --     31.6456                23.1039                 2.9984

                     82                     83                     84
                      A                      A                      A
 Frequencies --   3512.7977              3589.5521              3605.7373
 Red. masses --      1.0518                 1.0960                 1.0769
 Frc consts  --      7.6473                 8.3203                 8.2495
 IR Inten    --     23.4790                54.0464               182.3985

 - Thermochemistry -
 -------------------
 Temperature   298.150 Kelvin.  Pressure   1.00000 Atm.
 Atom     1 has atomic number  6 and mass  12.00000

 Molecular mass:   226.08729 amu.
 Principal axes and moments of inertia in atomic units:
                           1         2         3
     Eigenvalues --  1791.785586605.284057268.53683
           X            0.99992   0.00607   0.01133
           Y           -0.00564   0.99929  -0.03712
           Z           -0.01154   0.03705   0.99925
 This molecule is an asymmetric top.
 Rotational symmetry number  1.
 Warning -- assumption of classical behavior for rotation
           may cause significant error
 Rotational temperatures (Kelvin)      0.04834     0.01311     0.01192
 Rotational constants (GHZ):           1.00723     0.27323     0.24829
    1 imaginary frequencies ignored.
 Zero-point vibrational energy     651063.1 (Joules/Mol)
                                  155.60783 (Kcal/Mol)
 Warning -- explicit consideration of  23 degrees of freedom as
           vibrations may cause significant error
 Vibrational temperatures:     14.85    35.95    80.04   108.74   128.84
          (Kelvin)            150.33   263.74   266.18   291.62   341.12
                              359.21   389.36   441.89   459.25   510.33
                              555.27   608.28   635.07   689.70   758.79
                              782.83   841.45   879.54   916.35   962.58
                             1013.63  1032.89  1051.67  1125.04  1134.42
                             1236.76  1271.03  1338.67  1386.96  1438.69
                             1460.75  1467.35  1473.24  1495.93  1515.42
                             1524.17  1536.70  1571.32  1606.21  1619.86
                             1699.14  1733.76  1800.80  1822.62  1851.12
                             1859.81  1934.22  1943.68  1956.12  2039.12
                             2098.06  2122.59  2126.87  2132.75  2147.43
                             2154.92  2172.50  2223.47  2254.76  2360.12
                             2381.50  2402.14  2414.44  4424.39  4425.58
                             4538.50  4540.51  4559.31  4578.36  4583.07
                             4597.91  4603.65  4610.97  4633.66  4703.34
                             5054.13  5164.56  5187.85

 Zero-point correction=                           0.247977 (Hartree/Particle)
 Thermal correction to Energy=                    0.263353
 Thermal correction to Enthalpy=                  0.264298
 Thermal correction to Gibbs Free Energy=         0.202652
 Sum of electronic and zero-point Energies=          -1072.897357
 Sum of electronic and thermal Energies=             -1072.881981
 Sum of electronic and thermal Enthalpies=           -1072.881037
 Sum of electronic and thermal Free Energies=        -1072.942682

                     E (Thermal)             CV                S
                      KCal/Mol        Cal/Mol-Kelvin    Cal/Mol-Kelvin
 Total                  165.257             56.949            129.743
 Electronic               0.000              0.000              0.000
 Translational            0.889              2.981             42.150
 Rotational               0.889              2.981             32.820
 Vibrational            163.479             50.988             54.774
 Vibration     1          0.593              1.987              7.949
 Vibration     2          0.593              1.985              6.192
 Vibration     3          0.596              1.975              4.606
 Vibration     4          0.599              1.965              4.002
 Vibration     5          0.602              1.957              3.670
 Vibration     6          0.605              1.946              3.369
 Vibration     7          0.631              1.863              2.294
 Vibration     8          0.631              1.860              2.277
 Vibration     9          0.639              1.836              2.109
 Vibration    10          0.656              1.784              1.825
 Vibration    11          0.662              1.763              1.733
 Vibration    12          0.674              1.727              1.592
 Vibration    13          0.697              1.660              1.378
 Vibration    14          0.705              1.637              1.314
 Vibration    15          0.731              1.566              1.145
 Vibration    16          0.755              1.500              1.016
 Vibration    17          0.785              1.421              0.883
 Vibration    18          0.801              1.380              0.822
 Vibration    19          0.836              1.296              0.712
 Vibration    20          0.882              1.189              0.593
 Vibration    21          0.899              1.153              0.557
 Vibration    22          0.942              1.064              0.476
 Vibration    23          0.970              1.008              0.431

 Optimization completed on the basis of negligible forces.
    -- Stationary point found.
 Normal termination of Gaussian 16 at Tue Feb 16 17:58:50 2021.
