 Gaussian 16, Revision A.03,
 Gaussian 16:  ES64L-G16RevA.03 25-Dec-2016

 ----------------------------------------------------------------------
 # wB97XD def2tzvp, opt=(ts, noeigen, calcfc, maxcycles=70, maxstep=1),
  freq=noraman, scrf=(iefpcm, solvent=water)
 ----------------------------------------------------------------------

 ------------------------
 0_iteration/TS-537-0.out
 ------------------------
 Symbolic Z-matrix:
 Charge =  0 Multiplicity = 1

 SCF Done:  E(RwB97XD) =  -2940.03232295     A.U. after   15 cycles
 SCF Done:  E(RwB97XD) =  -2940.03228763     A.U. after   10 cycles
 SCF Done:  E(RwB97XD) =  -2940.03225670     A.U. after   10 cycles
 SCF Done:  E(RwB97XD) =  -2940.03223021     A.U. after   10 cycles
 SCF Done:  E(RwB97XD) =  -2940.03220818     A.U. after   10 cycles
 SCF Done:  E(RwB97XD) =  -2940.03219064     A.U. after   10 cycles
 SCF Done:  E(RwB97XD) =  -2940.03217771     A.U. after   10 cycles
 SCF Done:  E(RwB97XD) =  -2940.03216965     A.U. after   10 cycles
 SCF Done:  E(RwB97XD) =  -2940.03216741     A.U. after   10 cycles
 SCF Done:  E(RwB97XD) =  -2940.03217447     A.U. after   10 cycles
 SCF Done:  E(RwB97XD) =  -2940.03321203     A.U. after   10 cycles
 SCF Done:  E(RwB97XD) =  -2940.03326154     A.U. after   10 cycles
 SCF Done:  E(RwB97XD) =  -2940.03330167     A.U. after   10 cycles
 SCF Done:  E(RwB97XD) =  -2940.03333043     A.U. after   10 cycles
 SCF Done:  E(RwB97XD) =  -2940.03334710     A.U. after   10 cycles
 SCF Done:  E(RwB97XD) =  -2940.03335098     A.U. after   10 cycles
 SCF Done:  E(RwB97XD) =  -2940.03335103     A.U. after    8 cycles
 SCF Done:  E(RwB97XD) =  -2940.03334300     A.U. after   10 cycles
 SCF Done:  E(RwB97XD) =  -2940.03335106     A.U. after   10 cycles
 Optimization completed.
    -- Stationary point found.
 Normal termination of Gaussian 16 at Mon Feb 15 20:13:37 2021.

 ---------------------------------------------------------------------
 #N Geom=AllCheck Guess=TCheck SCRF=Check GenChk RwB97XD/def2TZVP Freq
 ---------------------------------------------------------------------

 Structure from the checkpoint file:  "/beegfs/scratch/user/q/tla25/Gau-77820.chk"
 ------------------------
 0_iteration/TS-537-0.out
 ------------------------
 Charge =  0 Multiplicity = 1

                         Standard orientation:
 ---------------------------------------------------------------------
 Center     Atomic      Atomic             Coordinates (Angstroms)
 Number     Number       Type             X           Y           Z
 ---------------------------------------------------------------------
      1          6           0        1.126643   -0.398039    0.378791
      2          6           0        1.330137   -1.419067   -0.578685
      3          8           0        2.363510   -2.079295   -0.744547
      4          6           0       -0.068665    0.327369    0.438007
      5          6           0        1.122201    2.345005   -1.133243
      6          1           0        1.157461    2.911452   -2.063306
      7          1           0        1.229345    3.029061   -0.294292
      8          1           0        1.940899    1.625966   -1.122489
      9          7           0       -0.132210    1.610313   -1.005370
     10          1           0       -0.928052    2.230995   -0.900206
     11          1           0       -0.297746    1.033760   -1.822846
     12          6           0       -0.323297    1.246536    1.599245
     13          1           0        0.509234    1.938725    1.724507
     14          1           0       -1.243522    1.813097    1.477026
     15          1           0       -0.403379    0.651086    2.509970
     16         35           0       -1.738053   -0.595441   -0.055365
     17          6           0        2.263777   -0.028862    1.302397
     18          1           0        2.624254    0.993439    1.157157
     19          1           0        1.993654   -0.129485    2.356892
     20          1           0        3.096855   -0.702512    1.104631
     21          1           0        0.465487   -1.630622   -1.234368
 ---------------------------------------------------------------------

 SCF Done:  E(RwB97XD) =  -2940.03335106     A.U. after    1 cycles

 The electronic state is 1-A.
 Alpha  occ. eigenvalues -- -483.12922 -62.67784 -56.46888 -56.46551 -56.46537
 Alpha  occ. eigenvalues --  -19.20304 -14.49149 -10.39988 -10.33773 -10.31972
 Alpha  occ. eigenvalues --  -10.29278 -10.26959 -10.26194  -8.81897  -6.64012
 Alpha  occ. eigenvalues --   -6.62944  -6.62902  -2.74401  -2.74105  -2.74071
 Alpha  occ. eigenvalues --   -2.73207  -2.73206  -1.10333  -1.04633  -0.94491
 Alpha  occ. eigenvalues --   -0.86574  -0.83138  -0.79225  -0.76789  -0.69196
 Alpha  occ. eigenvalues --   -0.63624  -0.60236  -0.58286  -0.57700  -0.55265
 Alpha  occ. eigenvalues --   -0.52669  -0.50404  -0.49674  -0.48573  -0.48023
 Alpha  occ. eigenvalues --   -0.47590  -0.45261  -0.45065  -0.43193  -0.42882
 Alpha  occ. eigenvalues --   -0.37809  -0.37253  -0.31689  -0.27382
 Alpha virt. eigenvalues --    0.03976   0.05094   0.09827   0.12595   0.14033
 Alpha virt. eigenvalues --    0.15124   0.15515   0.16498   0.17523   0.18572
 Alpha virt. eigenvalues --    0.19410   0.19939   0.20732   0.21213   0.22093

 Mulliken charges:
               1
     1  C   -0.156471
     2  C    0.083357
     3  O   -0.526445
     4  C    0.139910
     5  C   -0.318174
     6  H    0.163636
     7  H    0.164191
     8  H    0.164376
     9  N   -0.313049
    10  H    0.290745
    11  H    0.284035
    12  C   -0.380006
    13  H    0.149839
    14  H    0.156383
    15  H    0.166796
    16  Br  -0.127245
    17  C   -0.408526
    18  H    0.133601
    19  H    0.129408
    20  H    0.130029
    21  H    0.073612
 Sum of Mulliken charges =  -0.00000

 Dipole moment (field-independent basis, Debye):
    X=             -4.4259    Y=             10.2431    Z=             -0.5477  Tot=             11.1718
 Quadrupole moment (field-independent basis, Debye-Ang):
   XX=            -82.7915   YY=            -68.6215   ZZ=            -63.1150
   XY=             11.8419   XZ=              4.2708   YZ=             -6.6800

  Exact polarizability: 172.324 -16.956 163.980   2.428   5.390 130.097
 Approx polarizability: 136.404 -12.059 131.418   1.510   4.953 109.883

 ******    1 imaginary frequencies (negative Signs) ******

                      1                      2                      3
                      A                      A                      A
 Frequencies --   -374.9589                68.6161                87.2450
 Red. masses --      5.6852                 3.3641                 2.4344
 Frc consts  --      0.4709                 0.0093                 0.0109
 IR Inten    --    831.1205                 2.5430                10.6623

                      4                      5                      6
                      A                      A                      A
 Frequencies --    139.9525               148.7550               161.3237
 Red. masses --      2.7115                 1.0814                 5.2391
 Frc consts  --      0.0313                 0.0141                 0.0803
 IR Inten    --      2.1196                 0.9469                 6.6888

                      7                      8                      9
                      A                      A                      A
 Frequencies --    198.0898               225.7851               262.9722
 Red. masses --      2.8356                 1.3791                 1.7873
 Frc consts  --      0.0656                 0.0414                 0.0728
 IR Inten    --      2.9010                 0.3009                 0.2219

                     10                     11                     12
                      A                      A                      A
 Frequencies --    276.9125               286.6887               300.9131
 Red. masses --      2.9319                 1.5292                 3.6943
 Frc consts  --      0.1325                 0.0740                 0.1971
 IR Inten    --     26.6578                 6.9841                25.6529

                     13                     14                     15
                      A                      A                      A
 Frequencies --    333.9416               340.8818               371.9608
 Red. masses --      2.8151                 2.8565                 2.5366
 Frc consts  --      0.1850                 0.1956                 0.2068
 IR Inten    --     12.4773                 3.6961                10.5173

                     16                     17                     18
                      A                      A                      A
 Frequencies --    490.9032               555.8702               672.9364
 Red. masses --      3.2337                 4.2570                 2.2218
 Frc consts  --      0.4591                 0.7750                 0.5928
 IR Inten    --     29.2897                98.7101                68.5006

                     19                     20                     21
                      A                      A                      A
 Frequencies --    708.7845               843.9286               990.9202
 Red. masses --      1.7392                 3.2826                 1.4873
 Frc consts  --      0.5148                 1.3775                 0.8604
 IR Inten    --    110.5595                46.3788               125.2456

                     22                     23                     24
                      A                      A                      A
 Frequencies --   1004.3832              1027.3519              1040.4365
 Red. masses --      1.1549                 1.6072                 1.1637
 Frc consts  --      0.6864                 0.9994                 0.7422
 IR Inten    --     84.5852                 3.7019                45.1720

                     25                     26                     27
                      A                      A                      A
 Frequencies --   1049.9547              1068.5849              1078.8303
 Red. masses --      1.4621                 1.5951                 2.9205
 Frc consts  --      0.9496                 1.0731                 2.0027
 IR Inten    --     87.5187                28.3793                 1.9016

                     28                     29                     30
                      A                      A                      A
 Frequencies --   1096.3255              1126.1781              1230.0690
 Red. masses --      1.9007                 2.7066                 1.3873
 Frc consts  --      1.3460                 2.0225                 1.2368
 IR Inten    --    153.6413                22.5309                31.2489

                     31                     32                     33
                      A                      A                      A
 Frequencies --   1343.5109              1357.4261              1390.3396
 Red. masses --      1.3511                 2.3736                 3.3425
 Frc consts  --      1.4369                 2.5768                 3.8068
 IR Inten    --     35.8729               293.3621               526.6970

                     34                     35                     36
                      A                      A                      A
 Frequencies --   1402.3886              1422.3020              1454.3454
 Red. masses --      1.2895                 1.2645                 1.1809
 Frc consts  --      1.4941                 1.5071                 1.4717
 IR Inten    --     74.4735                58.1256                 3.1121

                     37                     38                     39
                      A                      A                      A
 Frequencies --   1471.8784              1479.2468              1484.3973
 Red. masses --      1.2693                 1.0997                 1.0684
 Frc consts  --      1.6202                 1.4178                 1.3870
 IR Inten    --     34.9769                23.0766                 3.7306

                     40                     41                     42
                      A                      A                      A
 Frequencies --   1494.4979              1501.5961              1506.5603
 Red. masses --      1.0558                 1.0705                 1.0883
 Frc consts  --      1.3893                 1.4221                 1.4554
 IR Inten    --      0.7827                26.3394                70.0490

                     43                     44                     45
                      A                      A                      A
 Frequencies --   1510.9089              1642.6864              1652.8249
 Red. masses --      1.3227                 1.0913                 6.3090
 Frc consts  --      1.7791                 1.7350                10.1547
 IR Inten    --    163.5997                78.3866              1056.7898

                     46                     47                     48
                      A                      A                      A
 Frequencies --   2943.2546              3034.1263              3070.2967
 Red. masses --      1.0812                 1.0390                 1.0362
 Frc consts  --      5.5184                 5.6357                 5.7549
 IR Inten    --    116.7782                80.9666                 7.4347

                     49                     50                     51
                      A                      A                      A
 Frequencies --   3072.7094              3084.3435              3140.0870
 Red. masses --      1.0334                 1.1012                 1.0975
 Frc consts  --      5.7484                 6.1723                 6.3759
 IR Inten    --     31.2049                51.9170                10.0367

                     52                     53                     54
                      A                      A                      A
 Frequencies --   3144.8130              3150.2265              3165.3855
 Red. masses --      1.1012                 1.1049                 1.1041
 Frc consts  --      6.4166                 6.4606                 6.5181
 IR Inten    --     11.0000                 6.6684                15.0826

                     55                     56                     57
                      A                      A                      A
 Frequencies --   3171.7510              3514.6575              3599.4407
 Red. masses --      1.1056                 1.0507                 1.0967
 Frc consts  --      6.5532                 7.6471                 8.3716
 IR Inten    --     12.4809                47.8684                47.4376

 - Thermochemistry -
 -------------------
 Temperature   298.150 Kelvin.  Pressure   1.00000 Atm.
 Atom     1 has atomic number  6 and mass  12.00000

 Molecular mass:   193.01023 amu.
 Principal axes and moments of inertia in atomic units:
                           1         2         3
     Eigenvalues --  1466.113972136.053672683.25632
           X            0.99990  -0.00505   0.01355
           Y            0.00530   0.99982  -0.01842
           Z           -0.01345   0.01849   0.99974
 This molecule is an asymmetric top.
 Rotational symmetry number  1.
 Warning -- assumption of classical behavior for rotation
           may cause significant error
 Rotational temperatures (Kelvin)      0.05908     0.04055     0.03228
 Rotational constants (GHZ):           1.23097     0.84490     0.67259
    1 imaginary frequencies ignored.
 Zero-point vibrational energy     462927.9 (Joules/Mol)
                                  110.64242 (Kcal/Mol)
 Warning -- explicit consideration of  16 degrees of freedom as
           vibrations may cause significant error
 Vibrational temperatures:     98.72   125.53   201.36   214.03   232.11
          (Kelvin)            285.01   324.85   378.36   398.42   412.48
                              432.95   480.47   490.45   535.17   706.30
                              799.77   968.21  1019.78  1214.23  1425.71
                             1445.08  1478.13  1496.96  1510.65  1537.46
                             1552.20  1577.37  1620.32  1769.79  1933.01
                             1953.03  2000.39  2017.72  2046.38  2092.48
                             2117.70  2128.31  2135.72  2150.25  2160.46
                             2167.60  2173.86  2363.46  2378.05  4234.69
                             4365.43  4417.47  4420.94  4437.68  4517.88
                             4524.68  4532.47  4554.28  4563.44  5056.81
                             5178.79

 Zero-point correction=                           0.176320 (Hartree/Particle)
 Thermal correction to Energy=                    0.187678
 Thermal correction to Enthalpy=                  0.188622
 Thermal correction to Gibbs Free Energy=         0.138844
 Sum of electronic and zero-point Energies=          -2939.857031
 Sum of electronic and thermal Energies=             -2939.845673
 Sum of electronic and thermal Enthalpies=           -2939.844729
 Sum of electronic and thermal Free Energies=        -2939.894507

                     E (Thermal)             CV                S
                      KCal/Mol        Cal/Mol-Kelvin    Cal/Mol-Kelvin
 Total                  117.769             39.853            104.766
 Electronic               0.000              0.000              0.000
 Translational            0.889              2.981             41.678
 Rotational               0.889              2.981             30.509
 Vibrational            115.992             33.891             32.580
 Vibration     1          0.598              1.969              4.193
 Vibration     2          0.601              1.958              3.721
 Vibration     3          0.615              1.913              2.805
 Vibration     4          0.618              1.904              2.688
 Vibration     5          0.622              1.890              2.534
 Vibration     6          0.637              1.843              2.151
 Vibration     7          0.650              1.802              1.912
 Vibration     8          0.670              1.741              1.642
 Vibration     9          0.678              1.716              1.553
 Vibration    10          0.684              1.698              1.493
 Vibration    11          0.693              1.672              1.412
 Vibration    12          0.715              1.608              1.241
 Vibration    13          0.720              1.594              1.208
 Vibration    14          0.744              1.530              1.072
 Vibration    15          0.847              1.270              0.681
 Vibration    16          0.911              1.127              0.532

 Optimization completed.
    -- Stationary point found.
 Normal termination of Gaussian 16 at Mon Feb 15 20:26:57 2021.
