 Gaussian 16, Revision A.03,
 Gaussian 16:  ES64L-G16RevA.03 25-Dec-2016

 ----------------------------------------------------------------------
 # wB97XD def2tzvp, opt=(ts, noeigen, calcfc, maxcycles=70, maxstep=5),
  freq=noraman, scrf=(iefpcm, solvent=water)
 ----------------------------------------------------------------------

 ------------------------
 2_iteration/TS-562-2.out
 ------------------------
 Symbolic Z-matrix:
 Charge =  0 Multiplicity = 1

 SCF Done:  E(RwB97XD) =  -1057.08373572     A.U. after   15 cycles
 Optimization completed.
    -- Stationary point found.
 Normal termination of Gaussian 16 at Wed Feb 17 17:58:00 2021.

 ---------------------------------------------------------------------
 #N Geom=AllCheck Guess=TCheck SCRF=Check GenChk RwB97XD/def2TZVP Freq
 ---------------------------------------------------------------------

 Structure from the checkpoint file:  "/beegfs/scratch/user/q/tla25/Gau-10840.chk"
 ------------------------
 2_iteration/TS-562-2.out
 ------------------------
 Charge =  0 Multiplicity = 1

                         Standard orientation:
 ---------------------------------------------------------------------
 Center     Atomic      Atomic             Coordinates (Angstroms)
 Number     Number       Type             X           Y           Z
 ---------------------------------------------------------------------
      1          6           0       -0.260489    0.414371   -0.131851
      2          6           0       -0.639757    1.775341    0.103470
      3          8           0        0.211245    2.669930    0.217190
      4          6           0       -1.112570   -0.673338   -0.376731
      5          6           0       -1.305301   -1.000548    2.403900
      6          1           0       -1.902251   -1.200817    3.292590
      7          1           0       -0.446332   -1.668339    2.386410
      8          1           0       -0.952729    0.029672    2.429430
      9          7           0       -2.087381   -1.190327    1.189700
     10          1           0       -2.362742   -2.158446    1.067070
     11          1           0       -2.937580   -0.639425    1.208360
     12          6           0       -0.511092   -2.015009   -0.714581
     13          1           0        0.209017   -2.311340    0.047530
     14          1           0       -1.280163   -2.778958   -0.805931
     15          1           0        0.014908   -1.947100   -1.666031
     16         17           0       -2.571520   -0.416916   -1.415321
     17          6           0        1.213531    0.143338   -0.103681
     18          6           0        1.934511    0.052897   -1.293281
     19          6           0        3.300370   -0.191345   -1.292191
     20          6           0        3.977860   -0.344916   -0.091061
     21          6           0        3.278090   -0.246955    1.103290
     22          6           0        1.911851   -0.004683    1.092930
     23          1           0        1.411251    0.175888   -2.234671
     24          1           0        3.836400   -0.260125   -2.230951
     25          1           0        5.043570   -0.536807   -0.085521
     26          1           0        3.797190   -0.360325    2.047250
     27          1           0        1.378641    0.075538    2.031860
     28          6           0       -2.090236    2.199433    0.247690
     29          1           0       -2.497766    2.452194   -0.732651
     30          1           0       -2.739777    1.444194    0.683700
     31          1           0       -2.114705    3.093083    0.869170
 ---------------------------------------------------------------------

 SCF Done:  E(RwB97XD) =  -1057.08373572     A.U. after    1 cycles

 The electronic state is 1-A.
 Alpha  occ. eigenvalues -- -101.69424 -19.19916 -14.49559 -10.40635 -10.35098
 Alpha  occ. eigenvalues --  -10.32126 -10.29458 -10.29147 -10.28593 -10.28572
 Alpha  occ. eigenvalues --  -10.28493 -10.28240 -10.28221 -10.27160 -10.26215
 Alpha  occ. eigenvalues --   -9.58042  -7.32655  -7.31841  -7.31797  -1.10676
 Alpha  occ. eigenvalues --   -1.05282  -0.97567  -0.95834  -0.88767  -0.84603
 Alpha  occ. eigenvalues --   -0.84347  -0.83536  -0.79599  -0.78879  -0.69874
 Alpha  occ. eigenvalues --   -0.69832  -0.67735  -0.64123  -0.62172  -0.59102
 Alpha  occ. eigenvalues --   -0.58460  -0.56542  -0.55317  -0.54852  -0.53678
 Alpha  occ. eigenvalues --   -0.52405  -0.51334  -0.50616  -0.50258  -0.49903
 Alpha  occ. eigenvalues --   -0.48998  -0.47973  -0.46840  -0.46571  -0.45552
 Alpha  occ. eigenvalues --   -0.44773  -0.42683  -0.42001  -0.41759  -0.39435
 Alpha  occ. eigenvalues --   -0.38721  -0.33289  -0.32793  -0.31766  -0.27758
 Alpha virt. eigenvalues --    0.04011   0.05234   0.05752   0.08319   0.09828
 Alpha virt. eigenvalues --    0.12567   0.13217   0.14024   0.14921   0.15466
 Alpha virt. eigenvalues --    0.16137   0.17003   0.18032   0.18532   0.18981

 Mulliken charges:
               1
     1  C   -0.267675
     2  C    0.220603
     3  O   -0.523420
     4  C    0.107705
     5  C   -0.317774
     6  H    0.169826
     7  H    0.168093
     8  H    0.158233
     9  N   -0.303049
    10  H    0.289608
    11  H    0.282747
    12  C   -0.374245
    13  H    0.157702
    14  H    0.152720
    15  H    0.159261
    16  Cl  -0.131062
    17  C    0.293984
    18  C   -0.277812
    19  C   -0.150116
    20  C   -0.139490
    21  C   -0.162007
    22  C   -0.232931
    23  H    0.144791
    24  H    0.137556
    25  H    0.140756
    26  H    0.136762
    27  H    0.148885
    28  C   -0.356205
    29  H    0.146903
    30  H    0.093000
    31  H    0.126650
 Sum of Mulliken charges =  -0.00000

 Dipole moment (field-independent basis, Debye):
    X=             -5.3884    Y=             -9.2472    Z=              4.0817  Tot=             11.4545
 Quadrupole moment (field-independent basis, Debye-Ang):
   XX=            -84.9014   YY=           -107.7415   ZZ=            -86.8337
   XY=              0.3208   XZ=            -10.4099   YZ=             -5.5531

  Exact polarizability: 264.168   7.573 213.765   2.135  -2.613 222.834
 Approx polarizability: 206.928   6.731 174.956   2.692  -1.983 190.310

 ******    1 imaginary frequencies (negative Signs) ******

                      1                      2                      3
                      A                      A                      A
 Frequencies --   -367.1192                40.9283                62.5836
 Red. masses --      5.5581                 3.6837                 4.1939
 Frc consts  --      0.4414                 0.0036                 0.0097
 IR Inten    --    792.7808                 0.4126                 2.0945

                      4                      5                      6
                      A                      A                      A
 Frequencies --     79.4059                84.2242                97.8014
 Red. masses --      4.7090                 3.5049                 4.6233
 Frc consts  --      0.0175                 0.0146                 0.0261
 IR Inten    --      5.9316                11.9804                 0.3626

                      7                      8                      9
                      A                      A                      A
 Frequencies --    149.3183               165.6588               172.6483
 Red. masses --      2.9749                 1.4365                 3.0324
 Frc consts  --      0.0391                 0.0232                 0.0533
 IR Inten    --      8.2164                 0.8692                 0.9032

                     10                     11                     12
                      A                      A                      A
 Frequencies --    183.7682               217.3298               246.3385
 Red. masses --      1.1887                 2.3304                 3.6162
 Frc consts  --      0.0237                 0.0648                 0.1293
 IR Inten    --      0.6028                 4.8516                17.4541

                     13                     14                     15
                      A                      A                      A
 Frequencies --    268.4682               280.0159               310.8404
 Red. masses --      1.9219                 3.6347                 3.0479
 Frc consts  --      0.0816                 0.1679                 0.1735
 IR Inten    --      7.5410                 4.9888                24.9813

                     16                     17                     18
                      A                      A                      A
 Frequencies --    331.4837               359.9850               377.7741
 Red. masses --      1.8766                 3.0904                 3.7656
 Frc consts  --      0.1215                 0.2360                 0.3166
 IR Inten    --     10.8452                 3.1793                10.6773

                     19                     20                     21
                      A                      A                      A
 Frequencies --    390.2674               426.9683               490.5038
 Red. masses --      3.1624                 2.8682                 4.9083
 Frc consts  --      0.2838                 0.3081                 0.6958
 IR Inten    --      4.2916                 0.1197                37.1381

                     22                     23                     24
                      A                      A                      A
 Frequencies --    526.2773               555.6691               603.5858
 Red. masses --      3.6688                 3.7566                 3.3988
 Frc consts  --      0.5987                 0.6834                 0.7296
 IR Inten    --      2.3169                81.4371                29.8174

                     25                     26                     27
                      A                      A                      A
 Frequencies --    633.9065               645.3856               682.7779
 Red. masses --      5.3853                 4.4202                 1.6925
 Frc consts  --      1.2750                 1.0847                 0.4649
 IR Inten    --     10.9702               100.7291                28.0362

                     28                     29                     30
                      A                      A                      A
 Frequencies --    701.0209               729.8774               753.2091
 Red. masses --      2.3852                 1.5867                 3.0995
 Frc consts  --      0.6906                 0.4980                 1.0360
 IR Inten    --     43.5535                72.4455               183.9413

                     31                     32                     33
                      A                      A                      A
 Frequencies --    802.7701               880.2411               917.6436
 Red. masses --      2.5119                 1.2469                 3.2175
 Frc consts  --      0.9537                 0.5692                 1.5963
 IR Inten    --     33.4170                 0.1961                27.3579

                     34                     35                     36
                      A                      A                      A
 Frequencies --    958.2477               997.4721              1013.1037
 Red. masses --      1.5140                 1.1158                 1.3864
 Frc consts  --      0.8191                 0.6541                 0.8384
 IR Inten    --     12.9657                 6.3714                 5.0784

                     37                     38                     39
                      A                      A                      A
 Frequencies --   1015.6492              1026.7368              1027.1484
 Red. masses --      1.6420                 1.3092                 5.9127
 Frc consts  --      0.9980                 0.8131                 3.6754
 IR Inten    --     80.9963                 0.7849                 1.9482

                     40                     41                     42
                      A                      A                      A
 Frequencies --   1033.8921              1041.4424              1057.2344
 Red. masses --      1.2029                 1.6633                 2.2612
 Frc consts  --      0.7576                 1.0629                 1.4891
 IR Inten    --     35.2719                68.4681                37.4713

                     43                     44                     45
                      A                      A                      A
 Frequencies --   1065.8079              1081.5523              1089.6348
 Red. masses --      1.6900                 2.3104                 3.1356
 Frc consts  --      1.1311                 1.5924                 2.1935
 IR Inten    --     55.5432                 9.1022                 5.6762

                     46                     47                     48
                      A                      A                      A
 Frequencies --   1108.9523              1120.9371              1180.6335
 Red. masses --      1.5591                 2.4037                 1.1321
 Frc consts  --      1.1297                 1.7795                 0.9297
 IR Inten    --     14.1069               100.3172                 0.0367

                     49                     50                     51
                      A                      A                      A
 Frequencies --   1206.6856              1227.4041              1232.5476
 Red. masses --      1.1243                 2.5854                 1.6261
 Frc consts  --      0.9645                 2.2948                 1.4555
 IR Inten    --      0.0042                45.8603                24.0209

                     52                     53                     54
                      A                      A                      A
 Frequencies --   1306.7461              1342.6817              1356.2005
 Red. masses --      4.5107                 1.3446                 1.4523
 Frc consts  --      4.5381                 1.4281                 1.5738
 IR Inten    --      0.5282                 9.3690                 1.7804

                     55                     56                     57
                      A                      A                      A
 Frequencies --   1369.7247              1400.0638              1407.8205
 Red. masses --      1.9672                 1.7739                 2.5548
 Frc consts  --      2.1745                 2.0487                 2.9834
 IR Inten    --    254.0957               286.1214               459.7667

                     58                     59                     60
                      A                      A                      A
 Frequencies --   1428.0647              1457.7909              1463.2349
 Red. masses --      1.6245                 1.1903                 1.1884
 Frc consts  --      1.9519                 1.4904                 1.4991
 IR Inten    --    399.1085                56.4673                25.7026

                     61                     62                     63
                      A                      A                      A
 Frequencies --   1477.8679              1485.7441              1495.7538
 Red. masses --      1.0644                 2.0459                 1.0856
 Frc consts  --      1.3697                 2.6608                 1.4310
 IR Inten    --      2.9397                 3.8275                18.2652

                     64                     65                     66
                      A                      A                      A
 Frequencies --   1496.8908              1497.5570              1500.7008
 Red. masses --      1.1047                 1.0410                 1.0596
 Frc consts  --      1.4584                 1.3755                 1.4060
 IR Inten    --     29.9510                15.5231                55.1962

                     67                     68                     69
                      A                      A                      A
 Frequencies --   1543.3679              1622.9880              1645.2527
 Red. masses --      2.4030                 9.0457                 5.7224
 Frc consts  --      3.3724                14.0386                 9.1264
 IR Inten    --     43.4585               675.8467                 2.1844

                     70                     71                     72
                      A                      A                      A
 Frequencies --   1652.1234              1672.2305              3073.9570
 Red. masses --      1.0897                 6.0096                 1.0331
 Frc consts  --      1.7524                 9.9012                 5.7516
 IR Inten    --     59.1493                36.3115                21.3683

                     73                     74                     75
                      A                      A                      A
 Frequencies --   3074.0399              3075.6090              3147.1651
 Red. masses --      1.0378                 1.0356                 1.0994
 Frc consts  --      5.7780                 5.7719                 6.4156
 IR Inten    --     15.0324                 9.6693                17.9032

                     76                     77                     78
                      A                      A                      A
 Frequencies --   3155.9903              3157.0021              3163.8639
 Red. masses --      1.1022                 1.1050                 1.1044
 Frc consts  --      6.4682                 6.4887                 6.5133
 IR Inten    --      8.9449                 6.8668                23.7077

                     79                     80                     81
                      A                      A                      A
 Frequencies --   3168.0025              3174.2177              3184.6829
 Red. masses --      1.1062                 1.1009                 1.0868
 Frc consts  --      6.5410                 6.5354                 6.4946
 IR Inten    --     14.2758                43.6798                 8.3178

                     82                     83                     84
                      A                      A                      A
 Frequencies --   3191.8950              3201.5789              3211.0727
 Red. masses --      1.0873                 1.0922                 1.0937
 Frc consts  --      6.5268                 6.5957                 6.6442
 IR Inten    --      0.0089                25.9684                45.9316

                     85                     86                     87
                      A                      A                      A
 Frequencies --   3219.3497              3528.2661              3606.5599
 Red. masses --      1.0981                 1.0512                 1.0956
 Frc consts  --      6.7053                 7.7104                 8.3960
 IR Inten    --     17.0082                58.1697                50.1147

 - Thermochemistry -
 -------------------
 Temperature   298.150 Kelvin.  Pressure   1.00000 Atm.
 Atom     1 has atomic number  6 and mass  12.00000

 Molecular mass:   225.09204 amu.
 Principal axes and moments of inertia in atomic units:
                           1         2         3
     Eigenvalues --  2276.008994749.690784985.10688
           X            0.99950  -0.01558  -0.02741
           Y            0.01365   0.99750  -0.06941
           Z            0.02842   0.06900   0.99721
 This molecule is an asymmetric top.
 Rotational symmetry number  1.
 Warning -- assumption of classical behavior for rotation
           may cause significant error
 Rotational temperatures (Kelvin)      0.03806     0.01824     0.01737
 Rotational constants (GHZ):           0.79294     0.37997     0.36203
    1 imaginary frequencies ignored.
 Zero-point vibrational energy     679537.6 (Joules/Mol)
                                  162.41339 (Kcal/Mol)
 Warning -- explicit consideration of  23 degrees of freedom as
           vibrations may cause significant error
 Vibrational temperatures:     58.89    90.04   114.25   121.18   140.71
          (Kelvin)            214.84   238.35   248.40   264.40   312.69
                              354.43   386.27   402.88   447.23   476.93
                              517.94   543.53   561.51   614.31   705.73
                              757.20   799.48   868.43   912.05   928.57
                              982.37  1008.61  1050.13  1083.70  1155.01
                             1266.47  1320.28  1378.70  1435.14  1457.63
                             1461.29  1477.25  1477.84  1487.54  1498.40
                             1521.12  1533.46  1556.11  1567.74  1595.53
                             1612.78  1698.67  1736.15  1765.96  1773.36
                             1880.12  1931.82  1951.27  1970.73  2014.38
                             2025.54  2054.67  2097.44  2105.27  2126.32
                             2137.65  2152.06  2153.69  2154.65  2159.17
                             2220.56  2335.12  2367.15  2377.04  2405.97
                             4422.74  4422.86  4425.12  4528.07  4540.77
                             4542.22  4552.09  4558.05  4566.99  4582.05
                             4592.42  4606.36  4620.02  4631.93  5076.39
                             5189.04

 Zero-point correction=                           0.258822 (Hartree/Particle)
 Thermal correction to Energy=                    0.274345
 Thermal correction to Enthalpy=                  0.275290
 Thermal correction to Gibbs Free Energy=         0.215961
 Sum of electronic and zero-point Energies=          -1056.824914
 Sum of electronic and thermal Energies=             -1056.809390
 Sum of electronic and thermal Enthalpies=           -1056.808446
 Sum of electronic and thermal Free Energies=        -1056.867775

                     E (Thermal)             CV                S
                      KCal/Mol        Cal/Mol-Kelvin    Cal/Mol-Kelvin
 Total                  172.154             58.073            124.868
 Electronic               0.000              0.000              0.000
 Translational            0.889              2.981             42.136
 Rotational               0.889              2.981             32.355
 Vibrational            170.377             52.111             50.377
 Vibration     1          0.594              1.981              5.214
 Vibration     2          0.597              1.972              4.374
 Vibration     3          0.600              1.963              3.906
 Vibration     4          0.601              1.960              3.790
 Vibration     5          0.603              1.951              3.498
 Vibration     6          0.618              1.903              2.681
 Vibration     7          0.624              1.885              2.484
 Vibration     8          0.626              1.876              2.406
 Vibration     9          0.631              1.862              2.290
 Vibration    10          0.646              1.815              1.981
 Vibration    11          0.661              1.769              1.757
 Vibration    12          0.673              1.731              1.606
 Vibration    13          0.680              1.711              1.534
 Vibration    14          0.700              1.653              1.358
 Vibration    15          0.714              1.613              1.253
 Vibration    16          0.734              1.555              1.122
 Vibration    17          0.748              1.518              1.048
 Vibration    18          0.758              1.491              0.999
 Vibration    19          0.789              1.412              0.869
 Vibration    20          0.846              1.271              0.682
 Vibration    21          0.881              1.192              0.596
 Vibration    22          0.911              1.127              0.533
 Vibration    23          0.962              1.024              0.444

 Optimization completed.
    -- Stationary point found.
 Normal termination of Gaussian 16 at Wed Feb 17 19:07:52 2021.
