 Gaussian 16, Revision A.03,
 Gaussian 16:  ES64L-G16RevA.03 25-Dec-2016

 ----------------------------------------------------------------------
 # wB97XD def2tzvp, opt=(ts, noeigen, calcfc, maxcycles=70, maxstep=5),
  freq=noraman, scrf=(iefpcm, solvent=water)
 ----------------------------------------------------------------------

 ------------------------
 2_iteration/TS-584-2.out
 ------------------------
 Symbolic Z-matrix:
 Charge =  0 Multiplicity = 1

 SCF Done:  E(RwB97XD) =  -1057.08115566     A.U. after   15 cycles
 SCF Done:  E(RwB97XD) =  -1057.08115546     A.U. after    9 cycles
 Optimization completed.
    -- Stationary point found.
 Normal termination of Gaussian 16 at Wed Feb 17 17:40:46 2021.

 ---------------------------------------------------------------------
 #N Geom=AllCheck Guess=TCheck SCRF=Check GenChk RwB97XD/def2TZVP Freq
 ---------------------------------------------------------------------

 Structure from the checkpoint file:  "/beegfs/scratch/user/q/tla25/Gau-49582.chk"
 ------------------------
 2_iteration/TS-584-2.out
 ------------------------
 Charge =  0 Multiplicity = 1

                         Standard orientation:
 ---------------------------------------------------------------------
 Center     Atomic      Atomic             Coordinates (Angstroms)
 Number     Number       Type             X           Y           Z
 ---------------------------------------------------------------------
      1          6           0        1.276698    0.985482    0.003450
      2          6           0       -0.024588    1.522303    0.236669
      3          8           0       -0.218102    2.708639    0.551682
      4          6           0        1.574142   -0.267492   -0.560011
      5          6           0        1.895708   -1.298606    2.038717
      6          1           0        1.530650   -1.955352    2.827680
      7          1           0        2.982720   -1.332102    2.018888
      8          1           0        1.575241   -0.275943    2.245116
      9          7           0        1.371794   -1.683749    0.734788
     10          1           0        1.799500   -2.533242    0.383129
     11          1           0        0.368727   -1.831367    0.767186
     12          6           0        2.993013   -0.549647   -0.981866
     13          1           0        3.681935   -0.400208   -0.152062
     14          1           0        3.098730   -1.565413   -1.355351
     15          1           0        3.271276    0.140478   -1.779421
     16         17           0        0.457630   -0.979326   -1.773756
     17          6           0        2.445193    1.872636    0.382608
     18          1           0        3.039582    2.184332   -0.481252
     19          1           0        2.058717    2.771547    0.857377
     20          1           0        3.128230    1.390807    1.087169
     21          6           0       -1.266924    0.669223    0.180234
     22          6           0       -2.215931    0.875372   -0.816049
     23          6           0       -3.391681    0.143970   -0.827550
     24          6           0       -3.645642   -0.788244    0.171746
     25          6           0       -2.721480   -0.972780    1.187918
     26          6           0       -1.537980   -0.245160    1.191017
     27          1           0       -2.020177    1.600230   -1.596863
     28          1           0       -4.114972    0.299967   -1.618281
     29          1           0       -4.565427   -1.359094    0.162044
     30          1           0       -2.920331   -1.679630    1.983667
     31          1           0       -0.835037   -0.371664    2.006569
 ---------------------------------------------------------------------

 SCF Done:  E(RwB97XD) =  -1057.08115546     A.U. after    1 cycles

 The electronic state is 1-A.
 Alpha  occ. eigenvalues -- -101.69454 -19.20419 -14.48954 -10.40343 -10.35263
 Alpha  occ. eigenvalues --  -10.31978 -10.29733 -10.29301 -10.29227 -10.29123
 Alpha  occ. eigenvalues --  -10.29079 -10.28988 -10.28973 -10.26681 -10.26503
 Alpha  occ. eigenvalues --   -9.58071  -7.32694  -7.31868  -7.31818  -1.11054
 Alpha  occ. eigenvalues --   -1.04801  -0.97487  -0.96531  -0.88662  -0.86317
 Alpha  occ. eigenvalues --   -0.85278  -0.82835  -0.79264  -0.76571  -0.71945
 Alpha  occ. eigenvalues --   -0.70632  -0.67703  -0.63903  -0.62595  -0.59318
 Alpha  occ. eigenvalues --   -0.58401  -0.57248  -0.55657  -0.54836  -0.53511
 Alpha  occ. eigenvalues --   -0.52906  -0.51146  -0.50519  -0.50114  -0.48833
 Alpha  occ. eigenvalues --   -0.48302  -0.47984  -0.46915  -0.45592  -0.45255
 Alpha  occ. eigenvalues --   -0.44777  -0.43835  -0.43236  -0.42264  -0.39691
 Alpha  occ. eigenvalues --   -0.38642  -0.34001  -0.33818  -0.31398  -0.27417
 Alpha virt. eigenvalues --    0.03394   0.05024   0.05391   0.08310   0.10129
 Alpha virt. eigenvalues --    0.12771   0.12978   0.14415   0.15302   0.15818
 Alpha virt. eigenvalues --    0.16001   0.16787   0.17782   0.18305   0.18903

 Mulliken charges:
               1
     1  C   -0.281368
     2  C    0.242066
     3  O   -0.519418
     4  C    0.218102
     5  C   -0.343828
     6  H    0.169995
     7  H    0.171123
     8  H    0.165796
     9  N   -0.309988
    10  H    0.287205
    11  H    0.278145
    12  C   -0.367290
    13  H    0.144056
    14  H    0.153354
    15  H    0.161768
    16  Cl  -0.124114
    17  C   -0.397998
    18  H    0.123385
    19  H    0.133614
    20  H    0.131214
    21  C    0.205154
    22  C   -0.238045
    23  C   -0.133323
    24  C   -0.158446
    25  C   -0.132144
    26  C   -0.342628
    27  H    0.138905
    28  H    0.142900
    29  H    0.144203
    30  H    0.143210
    31  H    0.194397
 Sum of Mulliken charges =  -0.00000

 Dipole moment (field-independent basis, Debye):
    X=              4.4304    Y=            -10.1158    Z=              1.8421  Tot=             11.1961
 Quadrupole moment (field-independent basis, Debye-Ang):
   XX=            -81.4040   YY=           -106.5668   ZZ=            -93.0202
   XY=             -2.7817   XZ=              5.1793   YZ=            -11.7760

  Exact polarizability: 252.605   2.274 241.769  12.822 -11.142 208.448
 Approx polarizability: 195.651   3.150 202.584  11.419  -9.130 179.133

 ******    1 imaginary frequencies (negative Signs) ******

                      1                      2                      3
                      A                      A                      A
 Frequencies --   -376.4343                35.4118                58.5495
 Red. masses --      5.6627                 4.9154                 5.0682
 Frc consts  --      0.4728                 0.0036                 0.0102
 IR Inten    --    861.3094                 4.4618                 7.2023

                      4                      5                      6
                      A                      A                      A
 Frequencies --     74.0369                91.3692               124.3106
 Red. masses --      5.8393                 3.2846                 2.5021
 Frc consts  --      0.0189                 0.0162                 0.0228
 IR Inten    --      5.1293                 0.8918                 9.2386

                      7                      8                      9
                      A                      A                      A
 Frequencies --    142.2245               167.7433               177.8821
 Red. masses --      1.1895                 2.2569                 5.8131
 Frc consts  --      0.0142                 0.0374                 0.1084
 IR Inten    --      0.1539                 5.6359                 2.1365

                     10                     11                     12
                      A                      A                      A
 Frequencies --    198.0468               224.2332               246.8437
 Red. masses --      4.4181                 1.3701                 2.6009
 Frc consts  --      0.1021                 0.0406                 0.0934
 IR Inten    --      3.8249                 8.0151                11.6272

                     13                     14                     15
                      A                      A                      A
 Frequencies --    273.0323               286.5727               307.2341
 Red. masses --      1.9936                 2.5809                 1.9814
 Frc consts  --      0.0876                 0.1249                 0.1102
 IR Inten    --      1.3039                12.6616                15.3227

                     16                     17                     18
                      A                      A                      A
 Frequencies --    333.9097               360.5733               370.7466
 Red. masses --      3.1253                 2.8365                 4.0964
 Frc consts  --      0.2053                 0.2173                 0.3317
 IR Inten    --     27.2993                 2.3509                 8.6960

                     19                     20                     21
                      A                      A                      A
 Frequencies --    389.5361               420.7937               437.7978
 Red. masses --      2.9742                 3.0260                 5.7780
 Frc consts  --      0.2659                 0.3157                 0.6525
 IR Inten    --      7.8521                 3.0020                35.0645

                     22                     23                     24
                      A                      A                      A
 Frequencies --    499.6389               548.5701               596.6480
 Red. masses --      3.5936                 4.2699                 3.7041
 Frc consts  --      0.5286                 0.7571                 0.7769
 IR Inten    --     21.4204               124.6747                 2.2378

                     25                     26                     27
                      A                      A                      A
 Frequencies --    635.2755               671.0087               691.6452
 Red. masses --      6.3964                 3.3017                 1.6333
 Frc consts  --      1.5209                 0.8759                 0.4604
 IR Inten    --      0.4791                22.7703                80.7334

                     28                     29                     30
                      A                      A                      A
 Frequencies --    733.1802               762.0124               779.6230
 Red. masses --      1.6065                 3.1243                 4.5951
 Frc consts  --      0.5088                 1.0689                 1.6456
 IR Inten    --     83.3894                25.5783               102.5839

                     31                     32                     33
                      A                      A                      A
 Frequencies --    811.7518               884.7246               918.1413
 Red. masses --      2.8992                 1.2547                 2.8111
 Frc consts  --      1.1256                 0.5786                 1.3962
 IR Inten    --     53.0406                 0.5266                87.4286

                     34                     35                     36
                      A                      A                      A
 Frequencies --    961.9674              1001.3846              1014.2798
 Red. masses --      1.4473                 1.1334                 1.5213
 Frc consts  --      0.7891                 0.6696                 0.9221
 IR Inten    --     60.3973                14.4216                27.2974

                     37                     38                     39
                      A                      A                      A
 Frequencies --   1020.9983              1025.9808              1030.5040
 Red. masses --      1.8542                 3.1292                 1.4525
 Frc consts  --      1.1388                 1.9407                 0.9088
 IR Inten    --    134.4960                 2.1505                10.9582

                     40                     41                     42
                      A                      A                      A
 Frequencies --   1040.1720              1051.6081              1061.7898
 Red. masses --      1.1581                 1.4377                 2.0038
 Frc consts  --      0.7383                 0.9367                 1.3310
 IR Inten    --     43.0720                71.9042                 4.1367

                     43                     44                     45
                      A                      A                      A
 Frequencies --   1070.8621              1085.4111              1099.2578
 Red. masses --      1.5352                 3.2370                 1.9883
 Frc consts  --      1.0373                 2.2469                 1.4156
 IR Inten    --     29.2882                 2.5287               107.9066

                     46                     47                     48
                      A                      A                      A
 Frequencies --   1110.2573              1131.2000              1183.4129
 Red. masses --      1.5509                 3.0647                 1.1405
 Frc consts  --      1.1264                 2.3106                 0.9410
 IR Inten    --     13.3464                23.3020                 0.0873

                     49                     50                     51
                      A                      A                      A
 Frequencies --   1205.7498              1216.1986              1224.0439
 Red. masses --      1.1253                 3.3820                 1.4421
 Frc consts  --      0.9639                 2.9474                 1.2731
 IR Inten    --      1.6286                 9.2410                30.2335

                     52                     53                     54
                      A                      A                      A
 Frequencies --   1318.7405              1340.7942              1357.1266
 Red. masses --      4.1189                 1.3220                 1.5011
 Frc consts  --      4.2204                 1.4002                 1.6290
 IR Inten    --      4.1635                 4.6059                 2.4367

                     55                     56                     57
                      A                      A                      A
 Frequencies --   1394.1600              1397.3127              1408.3774
 Red. masses --      4.6569                 1.4723                 1.7567
 Frc consts  --      5.3330                 1.6937                 2.0530
 IR Inten    --    207.3065               109.5613               613.3798

                     58                     59                     60
                      A                      A                      A
 Frequencies --   1431.6513              1465.3042              1478.7711
 Red. masses --      1.7330                 1.2181                 1.0825
 Frc consts  --      2.0928                 1.5409                 1.3946
 IR Inten    --    450.7144                32.8935                40.7433

                     61                     62                     63
                      A                      A                      A
 Frequencies --   1486.7439              1487.5047              1493.9356
 Red. masses --      1.1852                 1.7703                 1.0885
 Frc consts  --      1.5435                 2.3079                 1.4314
 IR Inten    --      6.1812                 8.1411                91.7069

                     64                     65                     66
                      A                      A                      A
 Frequencies --   1499.3962              1508.3586              1512.8124
 Red. masses --      1.0470                 1.0629                 1.0510
 Frc consts  --      1.3869                 1.4248                 1.4171
 IR Inten    --      3.4431                80.4583                46.3431

                     67                     68                     69
                      A                      A                      A
 Frequencies --   1541.6821              1601.4240              1642.2823
 Red. masses --      2.3708                10.2222                 1.0895
 Frc consts  --      3.3200                15.4457                 1.7313
 IR Inten    --      8.1698               741.3600                45.1152

                     70                     71                     72
                      A                      A                      A
 Frequencies --   1648.4175              1674.5926              3033.3581
 Red. masses --      5.7675                 5.8994                 1.0410
 Frc consts  --      9.2337                 9.7471                 5.6437
 IR Inten    --      5.2825                 1.2257                98.6334

                     73                     74                     75
                      A                      A                      A
 Frequencies --   3065.3465              3075.4994              3081.6262
 Red. masses --      1.0339                 1.0369                 1.1010
 Frc consts  --      5.7239                 5.7784                 6.1602
 IR Inten    --     29.1191                13.4313                51.4577

                     76                     77                     78
                      A                      A                      A
 Frequencies --   3141.2281              3151.3550              3156.2365
 Red. masses --      1.1038                 1.1009                 1.0956
 Frc consts  --      6.4174                 6.4416                 6.4306
 IR Inten    --      8.1225                11.9418                 8.4126

                     79                     80                     81
                      A                      A                      A
 Frequencies --   3167.5543              3171.1657              3189.0586
 Red. masses --      1.1052                 1.1042                 1.0867
 Frc consts  --      6.5335                 6.5422                 6.5113
 IR Inten    --     14.7494                15.2594                 7.1516

                     82                     83                     84
                      A                      A                      A
 Frequencies --   3194.0940              3203.4525              3210.8160
 Red. masses --      1.0872                 1.0909                 1.0950
 Frc consts  --      6.5352                 6.5959                 6.6514
 IR Inten    --      0.9967                 8.1743                41.2896

                     85                     86                     87
                      A                      A                      A
 Frequencies --   3221.8185              3511.4150              3594.7240
 Red. masses --      1.0988                 1.0512                 1.0964
 Frc consts  --      6.7197                 7.6364                 8.3474
 IR Inten    --     18.9985                49.6915                93.5467

 - Thermochemistry -
 -------------------
 Temperature   298.150 Kelvin.  Pressure   1.00000 Atm.
 Atom     1 has atomic number  6 and mass  12.00000

 Molecular mass:   225.09204 amu.
 Principal axes and moments of inertia in atomic units:
                           1         2         3
     Eigenvalues --  2322.049024290.420644638.19462
           X            0.99980   0.01273   0.01516
           Y           -0.01013   0.98702  -0.16031
           Z           -0.01700   0.16012   0.98695
 This molecule is an asymmetric top.
 Rotational symmetry number  1.
 Warning -- assumption of classical behavior for rotation
           may cause significant error
 Rotational temperatures (Kelvin)      0.03730     0.02019     0.01867
 Rotational constants (GHZ):           0.77722     0.42064     0.38910
    1 imaginary frequencies ignored.
 Zero-point vibrational energy     679755.7 (Joules/Mol)
                                  162.46552 (Kcal/Mol)
 Warning -- explicit consideration of  23 degrees of freedom as
           vibrations may cause significant error
 Vibrational temperatures:     50.95    84.24   106.52   131.46   178.86
          (Kelvin)            204.63   241.35   255.93   284.95   322.62
                              355.15   392.83   412.31   442.04   480.42
                              518.78   533.42   560.46   605.43   629.89
                              718.87   789.27   858.44   914.02   965.43
                              995.12  1054.88  1096.37  1121.70  1167.93
                             1272.92  1321.00  1384.06  1440.77  1459.32
                             1468.99  1476.16  1482.67  1496.58  1513.03
                             1527.68  1540.73  1561.66  1581.59  1597.41
                             1627.54  1702.67  1734.80  1749.84  1761.13
                             1897.37  1929.10  1952.60  2005.89  2010.42
                             2026.34  2059.83  2108.25  2127.62  2139.09
                             2140.19  2149.44  2157.30  2170.19  2176.60
                             2218.14  2304.09  2362.88  2371.71  2409.37
                             4364.33  4410.35  4424.96  4433.77  4519.53
                             4534.10  4541.12  4557.40  4562.60  4588.34
                             4595.59  4609.05  4619.65  4635.48  5052.14
                             5172.01

 Zero-point correction=                           0.258905 (Hartree/Particle)
 Thermal correction to Energy=                    0.274372
 Thermal correction to Enthalpy=                  0.275316
 Thermal correction to Gibbs Free Energy=         0.216154
 Sum of electronic and zero-point Energies=          -1056.822250
 Sum of electronic and thermal Energies=             -1056.806784
 Sum of electronic and thermal Enthalpies=           -1056.805839
 Sum of electronic and thermal Free Energies=        -1056.865001

                     E (Thermal)             CV                S
                      KCal/Mol        Cal/Mol-Kelvin    Cal/Mol-Kelvin
 Total                  172.171             57.900            124.517
 Electronic               0.000              0.000              0.000
 Translational            0.889              2.981             42.136
 Rotational               0.889              2.981             32.202
 Vibrational            170.393             51.939             50.178
 Vibration     1          0.594              1.982              5.501
 Vibration     2          0.596              1.974              4.505
 Vibration     3          0.599              1.966              4.043
 Vibration     4          0.602              1.955              3.631
 Vibration     5          0.610              1.929              3.032
 Vibration     6          0.616              1.911              2.774
 Vibration     7          0.624              1.882              2.461
 Vibration     8          0.628              1.870              2.351
 Vibration     9          0.637              1.843              2.151
 Vibration    10          0.649              1.804              1.925
 Vibration    11          0.661              1.768              1.753
 Vibration    12          0.676              1.723              1.577
 Vibration    13          0.684              1.699              1.494
 Vibration    14          0.697              1.660              1.377
 Vibration    15          0.715              1.608              1.241
 Vibration    16          0.735              1.553              1.120
 Vibration    17          0.743              1.532              1.077
 Vibration    18          0.757              1.493              1.002
 Vibration    19          0.783              1.425              0.889
 Vibration    20          0.798              1.388              0.834
 Vibration    21          0.855              1.251              0.659
 Vibration    22          0.904              1.143              0.547
 Vibration    23          0.954              1.039              0.455

 Optimization completed.
    -- Stationary point found.
 Normal termination of Gaussian 16 at Wed Feb 17 18:50:52 2021.
