 Gaussian 16, Revision A.03,
 Gaussian 16:  ES64L-G16RevA.03 25-Dec-2016

 ----------------------------------------------------------------------
 # wB97XD def2tzvp, opt=(ts, noeigen, calcfc, maxcycles=70, maxstep=5),
  freq=noraman, scrf=(iefpcm, solvent=water)
 ----------------------------------------------------------------------

 ------------------------
 2_iteration/TS-543-2.out
 ------------------------
 Symbolic Z-matrix:
 Charge =  0 Multiplicity = 1

 SCF Done:  E(RwB97XD) =  -3226.46626466     A.U. after   14 cycles
 Optimization completed.
    -- Stationary point found.
 Normal termination of Gaussian 16 at Wed Feb 17 14:18:30 2021.

 ---------------------------------------------------------------------
 #N Geom=AllCheck Guess=TCheck SCRF=Check GenChk RwB97XD/def2TZVP Freq
 ---------------------------------------------------------------------

 Structure from the checkpoint file:  "/beegfs/scratch/user/q/tla25/Gau-29018.chk"
 ------------------------
 2_iteration/TS-543-2.out
 ------------------------
 Charge =  0 Multiplicity = 1

                         Standard orientation:
 ---------------------------------------------------------------------
 Center     Atomic      Atomic             Coordinates (Angstroms)
 Number     Number       Type             X           Y           Z
 ---------------------------------------------------------------------
      1          6           0        0.899670    0.932050   -0.513090
      2          6           0       -0.255300    0.206520   -0.023610
      3          8           0       -0.193900   -0.682890    0.834500
      4          6           0        2.165240    0.440781   -0.270750
      5          6           0        2.194410    1.628171    2.326070
      6          1           0        1.886460    1.549421    3.369660
      7          1           0        3.111950    2.210851    2.269240
      8          1           0        1.408580    2.146371    1.769870
      9          7           0        2.395630    0.329121    1.711530
     10          1           0        3.255960   -0.122719    1.993300
     11          1           0        1.604800   -0.290869    1.866430
     12          6           0        3.405990    1.196431   -0.646050
     13          1           0        3.373830    2.206721   -0.238310
     14          1           0        4.295040    0.698681   -0.267120
     15          1           0        3.488060    1.264731   -1.732060
     16         35           0        2.498401   -1.501859   -0.554560
     17          6           0        0.702000    2.276690   -1.180200
     18          1           0        1.632060    2.833901   -1.256370
     19          1           0        0.321740    2.180530   -2.204300
     20          1           0        0.000310    2.906390   -0.626770
     21          7           0       -1.467500    0.602070   -0.550030
     22          6           0       -2.759460    0.186480   -0.216610
     23          6           0       -3.073140   -0.542930    0.931510
     24          6           0       -4.392720   -0.886090    1.190850
     25          6           0       -5.415600   -0.517390    0.331070
     26          6           0       -5.103710    0.211200   -0.809200
     27          6           0       -3.793180    0.558480   -1.081870
     28          1           0       -1.420600    1.229540   -1.334100
     29          1           0       -2.286880   -0.838530    1.606230
     30          1           0       -4.618320   -1.451970    2.086560
     31          1           0       -6.440320   -0.792161    0.544460
     32          1           0       -5.885580    0.511439   -1.495640
     33          1           0       -3.562040    1.125180   -1.976640
 ---------------------------------------------------------------------

 SCF Done:  E(RwB97XD) =  -3226.46626466     A.U. after    1 cycles

 The electronic state is 1-A.
 Alpha  occ. eigenvalues -- -483.11630 -62.66482 -56.45582 -56.45254 -56.45239
 Alpha  occ. eigenvalues --  -19.20849 -14.46527 -14.46325 -10.38681 -10.38349
 Alpha  occ. eigenvalues --  -10.33764 -10.31080 -10.29025 -10.28889 -10.28875
 Alpha  occ. eigenvalues --  -10.28810 -10.28234 -10.28208 -10.27939 -10.26615
 Alpha  occ. eigenvalues --   -8.80587  -6.62679  -6.61649  -6.61599  -2.73068
 Alpha  occ. eigenvalues --   -2.72789  -2.72749  -2.71915  -2.71915  -1.13592
 Alpha  occ. eigenvalues --   -1.03992  -1.02395  -0.95554  -0.93463  -0.86979
 Alpha  occ. eigenvalues --   -0.85085  -0.84215  -0.82122  -0.77976  -0.76624
 Alpha  occ. eigenvalues --   -0.73449  -0.71298  -0.67135  -0.63840  -0.62016
 Alpha  occ. eigenvalues --   -0.61709  -0.58205  -0.57331  -0.56541  -0.54826
 Alpha  occ. eigenvalues --   -0.53941  -0.53016  -0.52508  -0.51897  -0.50743
 Alpha  occ. eigenvalues --   -0.49801  -0.49292  -0.48914  -0.47861  -0.46906
 Alpha  occ. eigenvalues --   -0.46549  -0.46160  -0.44627  -0.43130  -0.42791
 Alpha  occ. eigenvalues --   -0.41571  -0.39612  -0.36620  -0.35942  -0.33901
 Alpha  occ. eigenvalues --   -0.33391  -0.30306  -0.26643
 Alpha virt. eigenvalues --    0.03409   0.04893   0.05412   0.08328   0.10069
 Alpha virt. eigenvalues --    0.12183   0.13431   0.14581   0.14792   0.15466
 Alpha virt. eigenvalues --    0.16591   0.17206   0.17911   0.17948   0.18496

 Mulliken charges:
               1
     1  C   -0.354105
     2  C    0.457510
     3  O   -0.561021
     4  C    0.249348
     5  C   -0.298660
     6  H    0.150317
     7  H    0.154934
     8  H    0.147097
     9  N   -0.355519
    10  H    0.276787
    11  H    0.274080
    12  C   -0.416800
    13  H    0.153886
    14  H    0.155781
    15  H    0.167995
    16  Br  -0.177358
    17  C   -0.440782
    18  H    0.140102
    19  H    0.139612
    20  H    0.144512
    21  N   -0.270799
    22  C    0.298087
    23  C   -0.297640
    24  C   -0.105407
    25  C   -0.198142
    26  C   -0.098010
    27  C   -0.312352
    28  H    0.253419
    29  H    0.157154
    30  H    0.141105
    31  H    0.140343
    32  H    0.143005
    33  H    0.141522
 Sum of Mulliken charges =  -0.00000

 Dipole moment (field-independent basis, Debye):
    X=              3.6617    Y=              5.8879    Z=              1.2804  Tot=              7.0509
 Quadrupole moment (field-independent basis, Debye-Ang):
   XX=            -93.7423   YY=           -109.0578   ZZ=            -98.7779
   XY=              7.4320   XZ=             12.5205   YZ=             -3.8651

  Exact polarizability: 344.392   1.406 224.564  13.083 -22.725 237.040
 Approx polarizability: 244.755   0.853 189.988   8.920 -22.394 200.965

 ******    1 imaginary frequencies (negative Signs) ******

                      1                      2                      3
                      A                      A                      A
 Frequencies --   -406.4177                22.8726                30.8957
 Red. masses --      5.4306                 3.7628                 5.8388
 Frc consts  --      0.5285                 0.0012                 0.0033
 IR Inten    --    764.8767                 0.4335                 2.3517

                      4                      5                      6
                      A                      A                      A
 Frequencies --     64.5165                91.3548                99.1221
 Red. masses --      4.1627                 5.4775                 3.5698
 Frc consts  --      0.0102                 0.0269                 0.0207
 IR Inten    --      0.5755                 2.6656                 4.3665

                      7                      8                      9
                      A                      A                      A
 Frequencies --    114.4529               145.2728               160.9404
 Red. masses --      3.3241                 2.4028                 2.3578
 Frc consts  --      0.0257                 0.0299                 0.0360
 IR Inten    --     21.6838                 4.6892                 4.2773

                     10                     11                     12
                      A                      A                      A
 Frequencies --    169.3240               186.0753               220.6725
 Red. masses --      1.5165                 1.3674                 2.4517
 Frc consts  --      0.0256                 0.0279                 0.0703
 IR Inten    --      1.5026                 4.9483                17.9808

                     13                     14                     15
                      A                      A                      A
 Frequencies --    227.5487               255.0054               260.1706
 Red. masses --      3.6203                 4.4381                 1.9641
 Frc consts  --      0.1104                 0.1700                 0.0783
 IR Inten    --     13.0875                18.9822                 8.8932

                     16                     17                     18
                      A                      A                      A
 Frequencies --    263.5000               295.5420               334.4336
 Red. masses --      4.1093                 1.5389                 4.6300
 Frc consts  --      0.1681                 0.0792                 0.3051
 IR Inten    --     10.7881                 7.1076                56.8236

                     19                     20                     21
                      A                      A                      A
 Frequencies --    369.4724               387.8380               412.3637
 Red. masses --      5.8531                 2.4082                 3.9290
 Frc consts  --      0.4708                 0.2134                 0.3936
 IR Inten    --      5.3129                 0.4242                 4.2753

                     22                     23                     24
                      A                      A                      A
 Frequencies --    422.9080               456.7945               528.8526
 Red. masses --      2.9756                 3.8243                 2.7758
 Frc consts  --      0.3136                 0.4702                 0.4574
 IR Inten    --      0.1654                64.5289                26.5336

                     25                     26                     27
                      A                      A                      A
 Frequencies --    561.9963               570.0989               600.3232
 Red. masses --      3.4304                 1.1951                 4.1056
 Frc consts  --      0.6384                 0.2288                 0.8718
 IR Inten    --     90.7231                89.9814                46.6126

                     28                     29                     30
                      A                      A                      A
 Frequencies --    636.3079               673.5593               700.7738
 Red. masses --      5.9954                 1.6992                 3.0853
 Frc consts  --      1.4302                 0.4542                 0.8927
 IR Inten    --      5.8912                17.4378               172.2234

                     31                     32                     33
                      A                      A                      A
 Frequencies --    718.3460               783.0265               786.3841
 Red. masses --      1.8701                 2.0583                 5.0635
 Frc consts  --      0.5686                 0.7435                 1.8449
 IR Inten    --     63.3745                37.1571               109.0295

                     34                     35                     36
                      A                      A                      A
 Frequencies --    852.9469               860.6202               886.7594
 Red. masses --      4.1053                 1.3006                 4.9021
 Frc consts  --      1.7597                 0.5676                 2.2712
 IR Inten    --     70.3924                 1.4828                25.0558

                     37                     38                     39
                      A                      A                      A
 Frequencies --    933.4571               970.7691               989.7168
 Red. masses --      1.4954                 1.0958                 2.1260
 Frc consts  --      0.7677                 0.6084                 1.2270
 IR Inten    --     14.5393               113.8154               194.4854

                     40                     41                     42
                      A                      A                      A
 Frequencies --   1000.9592              1016.9372              1020.8486
 Red. masses --      1.3475                 1.2961                 5.5954
 Frc consts  --      0.7954                 0.7897                 3.4356
 IR Inten    --      0.4900                 0.7958                 1.5052

                     43                     44                     45
                      A                      A                      A
 Frequencies --   1038.3042              1047.0980              1061.4501
 Red. masses --      1.1358                 1.3683                 2.0432
 Frc consts  --      0.7214                 0.8839                 1.3563
 IR Inten    --     47.5149                86.5141                 1.6149

                     46                     47                     48
                      A                      A                      A
 Frequencies --   1065.4457              1086.2558              1094.9141
 Red. masses --      1.4649                 1.7274                 4.1464
 Frc consts  --      0.9798                 1.2009                 2.9287
 IR Inten    --     17.4071                71.6847                46.8434

                     49                     50                     51
                      A                      A                      A
 Frequencies --   1110.0798              1125.4323              1181.7448
 Red. masses --      1.7792                 1.7066                 1.1342
 Frc consts  --      1.2918                 1.2736                 0.9332
 IR Inten    --    167.7446                67.3983                 2.7588

                     52                     53                     54
                      A                      A                      A
 Frequencies --   1186.0177              1200.7191              1210.1244
 Red. masses --      1.4281                 3.1598                 1.2606
 Frc consts  --      1.1835                 2.6841                 1.0876
 IR Inten    --     38.7532               178.7532                 4.4626

                     55                     56                     57
                      A                      A                      A
 Frequencies --   1276.1806              1304.2432              1346.0055
 Red. masses --      2.5378                 5.2084                 3.1285
 Frc consts  --      2.4352                 5.2200                 3.3395
 IR Inten    --    395.2744               101.3666               600.0807

                     58                     59                     60
                      A                      A                      A
 Frequencies --   1347.7129              1361.2913              1410.4494
 Red. masses --      1.4420                 1.6114                 1.2875
 Frc consts  --      1.5431                 1.7594                 1.5091
 IR Inten    --    110.0265                12.0549                34.1579

                     61                     62                     63
                      A                      A                      A
 Frequencies --   1429.0286              1446.9236              1467.8278
 Red. masses --      1.2330                 1.2084                 1.3254
 Frc consts  --      1.4835                 1.4905                 1.6824
 IR Inten    --     92.2182                33.6295                83.2836

                     64                     65                     66
                      A                      A                      A
 Frequencies --   1478.3291              1485.4991              1491.1194
 Red. masses --      1.9075                 1.0926                 1.0661
 Frc consts  --      2.4562                 1.4206                 1.3967
 IR Inten    --    297.8447                45.3247                16.3797

                     67                     68                     69
                      A                      A                      A
 Frequencies --   1495.8567              1503.4819              1504.7675
 Red. masses --      1.0490                 1.4805                 1.0396
 Frc consts  --      1.3830                 1.9718                 1.3869
 IR Inten    --     11.5838               146.7760                26.5123

                     70                     71                     72
                      A                      A                      A
 Frequencies --   1524.9605              1548.5081              1571.9554
 Red. masses --      1.4379                 2.4755                 2.0215
 Frc consts  --      1.9701                 3.4974                 2.9431
 IR Inten    --    651.5905                76.6730               587.8839

                     73                     74                     75
                      A                      A                      A
 Frequencies --   1641.1204              1661.0240              1672.0619
 Red. masses --      1.2423                 4.6288                 3.9960
 Frc consts  --      1.9713                 7.5243                 6.5823
 IR Inten    --    155.9148               105.7027                16.3636

                     76                     77                     78
                      A                      A                      A
 Frequencies --   1686.5641              3014.4123              3046.7993
 Red. masses --      4.8467                 1.0516                 1.0356
 Frc consts  --      8.1228                 5.6298                 5.6642
 IR Inten    --    320.4108                98.7652                55.5019

                     79                     80                     81
                      A                      A                      A
 Frequencies --   3068.9867              3075.0697              3115.0273
 Red. masses --      1.0380                 1.0925                 1.1020
 Frc consts  --      5.7600                 6.0866                 6.3004
 IR Inten    --     11.3420                44.1011                19.3657

                     82                     83                     84
                      A                      A                      A
 Frequencies --   3141.7776              3153.7496              3164.3552
 Red. masses --      1.1019                 1.1038                 1.0948
 Frc consts  --      6.4085                 6.4686                 6.4586
 IR Inten    --     12.7560                21.7773                25.3535

                     85                     86                     87
                      A                      A                      A
 Frequencies --   3169.5033              3187.5147              3196.7377
 Red. masses --      1.0990                 1.0877                 1.0884
 Frc consts  --      6.5049                 6.5114                 6.5529
 IR Inten    --     12.6478                13.7022                 1.9981

                     88                     89                     90
                      A                      A                      A
 Frequencies --   3206.1601              3221.2988              3271.5495
 Red. masses --      1.0933                 1.0979                 1.0922
 Frc consts  --      6.6215                 6.7126                 6.8874
 IR Inten    --     32.0534                23.3466                 3.1641

                     91                     92                     93
                      A                      A                      A
 Frequencies --   3480.4152              3608.3039              3660.9852
 Red. masses --      1.0567                 1.0918                 1.0762
 Frc consts  --      7.5413                 8.3756                 8.4988
 IR Inten    --     62.8631                99.3703                58.1991

 - Thermochemistry -
 -------------------
 Temperature   298.150 Kelvin.  Pressure   1.00000 Atm.
 Atom     1 has atomic number  6 and mass  12.00000

 Molecular mass:   284.05242 amu.
 Principal axes and moments of inertia in atomic units:
                           1         2         3
     Eigenvalues --  2332.869989328.880919715.63502
           X            0.99931   0.03625   0.00847
           Y           -0.03474   0.98992  -0.13729
           Z           -0.01336   0.13690   0.99049
 This molecule is an asymmetric top.
 Rotational symmetry number  1.
 Warning -- assumption of classical behavior for rotation
           may cause significant error
 Rotational temperatures (Kelvin)      0.03713     0.00928     0.00891
 Rotational constants (GHZ):           0.77361     0.19346     0.18576
    1 imaginary frequencies ignored.
 Zero-point vibrational energy     723315.5 (Joules/Mol)
                                  172.87654 (Kcal/Mol)
 Warning -- explicit consideration of  26 degrees of freedom as
           vibrations may cause significant error
 Vibrational temperatures:     32.91    44.45    92.82   131.44   142.61
          (Kelvin)            164.67   209.02   231.56   243.62   267.72
                              317.50   327.39   366.90   374.33   379.12
                              425.22   481.18   531.59   558.01   593.30
                              608.47   657.23   760.90   808.59   820.25
                              863.73   915.51   969.10  1008.26  1033.54
                             1126.60  1131.43  1227.20  1238.24  1275.85
                             1343.04  1396.72  1423.98  1440.16  1463.15
                             1468.77  1493.89  1506.54  1527.19  1532.94
                             1562.88  1575.34  1597.16  1619.25  1700.27
                             1706.41  1727.57  1741.10  1836.14  1876.52
                             1936.60  1939.06  1958.59  2029.32  2056.05
                             2081.80  2111.88  2126.99  2137.30  2145.39
                             2152.20  2163.18  2165.02  2194.08  2227.96
                             2261.69  2361.21  2389.84  2405.72  2426.59
                             4337.07  4383.66  4415.59  4424.34  4481.83
                             4520.32  4537.54  4552.80  4560.21  4586.12
                             4599.39  4612.95  4634.73  4707.03  5007.54
                             5191.54  5267.34

 Zero-point correction=                           0.275496 (Hartree/Particle)
 Thermal correction to Energy=                    0.292546
 Thermal correction to Enthalpy=                  0.293490
 Thermal correction to Gibbs Free Energy=         0.229164
 Sum of electronic and zero-point Energies=          -3226.190768
 Sum of electronic and thermal Energies=             -3226.173718
 Sum of electronic and thermal Enthalpies=           -3226.172774
 Sum of electronic and thermal Free Energies=        -3226.237100

                     E (Thermal)             CV                S
                      KCal/Mol        Cal/Mol-Kelvin    Cal/Mol-Kelvin
 Total                  183.575             62.986            135.385
 Electronic               0.000              0.000              0.000
 Translational            0.889              2.981             42.830
 Rotational               0.889              2.981             33.713
 Vibrational            181.798             57.025             58.842
 Vibration     1          0.593              1.985              6.368
 Vibration     2          0.594              1.984              5.771
 Vibration     3          0.597              1.971              4.314
 Vibration     4          0.602              1.955              3.631
 Vibration     5          0.604              1.950              3.472
 Vibration     6          0.607              1.937              3.192
 Vibration     7          0.617              1.908              2.733
 Vibration     8          0.622              1.890              2.539
 Vibration     9          0.625              1.880              2.443
 Vibration    10          0.632              1.859              2.267
 Vibration    11          0.647              1.810              1.954
 Vibration    12          0.651              1.799              1.898
 Vibration    13          0.665              1.754              1.696
 Vibration    14          0.668              1.746              1.661
 Vibration    15          0.670              1.740              1.638
 Vibration    16          0.690              1.682              1.442
 Vibration    17          0.716              1.607              1.239
 Vibration    18          0.742              1.535              1.082
 Vibration    19          0.756              1.496              1.008
 Vibration    20          0.776              1.443              0.918
 Vibration    21          0.785              1.420              0.882
 Vibration    22          0.815              1.346              0.775
 Vibration    23          0.884              1.186              0.590
 Vibration    24          0.918              1.114              0.520
 Vibration    25          0.926              1.096              0.504
 Vibration    26          0.958              1.031              0.449

 Optimization completed.
    -- Stationary point found.
 Normal termination of Gaussian 16 at Wed Feb 17 15:34:27 2021.
