 Gaussian 16, Revision A.03,
 Gaussian 16:  ES64L-G16RevA.03 25-Dec-2016

 ----------------------------------------------------------------------
 # wB97XD def2tzvp, opt=(ts, noeigen, calcfc, maxcycles=70, maxstep=5),
  freq=noraman, scrf=(iefpcm, solvent=water)
 ----------------------------------------------------------------------

 ------------------------
 2_iteration/TS-544-2.out
 ------------------------
 Symbolic Z-matrix:
 Charge =  0 Multiplicity = 1

 SCF Done:  E(RwB97XD) =  -3171.08835448     A.U. after   15 cycles
 SCF Done:  E(RwB97XD) =  -3171.08852156     A.U. after   12 cycles
 SCF Done:  E(RwB97XD) =  -3171.08862709     A.U. after   12 cycles
 SCF Done:  E(RwB97XD) =  -3171.08864029     A.U. after   11 cycles
 SCF Done:  E(RwB97XD) =  -3171.08864133     A.U. after    8 cycles
 SCF Done:  E(RwB97XD) =  -3171.08864112     A.U. after    8 cycles
 SCF Done:  E(RwB97XD) =  -3171.08864127     A.U. after    7 cycles
 Optimization completed.
    -- Stationary point found.
 Normal termination of Gaussian 16 at Wed Feb 17 19:17:02 2021.

 ---------------------------------------------------------------------
 #N Geom=AllCheck Guess=TCheck SCRF=Check GenChk RwB97XD/def2TZVP Freq
 ---------------------------------------------------------------------

 Structure from the checkpoint file:  "/beegfs/scratch/user/q/tla25/Gau-1709.chk"
 ------------------------
 2_iteration/TS-544-2.out
 ------------------------
 Charge =  0 Multiplicity = 1

                         Standard orientation:
 ---------------------------------------------------------------------
 Center     Atomic      Atomic             Coordinates (Angstroms)
 Number     Number       Type             X           Y           Z
 ---------------------------------------------------------------------
      1          6           0       -0.267477    0.342468    0.723416
      2          6           0        0.601220    0.168926   -0.407179
      3          8           0        0.189510    0.140372   -1.576143
      4          6           0       -1.628184    0.117940    0.594853
      5          6           0       -1.945204    2.831004   -0.410277
      6          1           0       -1.981841    3.516556   -1.259014
      7          1           0       -2.608033    3.200020    0.370783
      8          1           0       -0.922715    2.810646   -0.026988
      9          7           0       -2.320294    1.477339   -0.775184
     10          1           0       -3.305552    1.374030   -0.980572
     11          1           0       -1.762117    1.128604   -1.548277
     12          6           0       -2.570024    0.382742    1.728116
     13          1           0       -2.422508    1.390469    2.115766
     14          1           0       -3.606201    0.270769    1.419461
     15          1           0       -2.371727   -0.322579    2.538299
     16         35           0       -2.238118   -1.443289   -0.425865
     17          6           0        0.239129    0.954922    2.015405
     18          1           0        0.129403    0.283017    2.871445
     19          1           0        1.293101    1.209942    1.932153
     20          1           0       -0.287985    1.879829    2.261575
     21          6           0        2.082518    0.027139   -0.194245
     22          6           0        2.593337   -0.789255    0.810484
     23          6           0        3.961761   -0.971941    0.940078
     24          6           0        4.833578   -0.323161    0.076708
     25          6           0        4.331600    0.496910   -0.925237
     26          6           0        2.962585    0.660598   -1.066247
     27          1           0        1.913429   -1.292340    1.487469
     28          1           0        4.348224   -1.620173    1.716381
     29          1           0        5.902636   -0.458146    0.182786
     30          1           0        5.008878    1.005300   -1.599934
     31          1           0        2.564077    1.285069   -1.855886
 ---------------------------------------------------------------------

 SCF Done:  E(RwB97XD) =  -3171.08864127     A.U. after    1 cycles

 The electronic state is 1-A.
 Alpha  occ. eigenvalues -- -483.12229 -62.67078 -56.46185 -56.45848 -56.45830
 Alpha  occ. eigenvalues --  -19.21620 -14.46161 -10.38815 -10.35911 -10.31045
 Alpha  occ. eigenvalues --  -10.29592 -10.29327 -10.29276 -10.29200 -10.29146
 Alpha  occ. eigenvalues --  -10.29112 -10.28967 -10.27565 -10.26918  -8.81184
 Alpha  occ. eigenvalues --   -6.63303  -6.62236  -6.62178  -2.73692  -2.73399
 Alpha  occ. eigenvalues --   -2.73354  -2.72489  -2.72489  -1.12228  -1.02056
 Alpha  occ. eigenvalues --   -0.96774  -0.94091  -0.87708  -0.85437  -0.85219
 Alpha  occ. eigenvalues --   -0.82498  -0.77851  -0.76367  -0.73211  -0.70582
 Alpha  occ. eigenvalues --   -0.67101  -0.62434  -0.61737  -0.58326  -0.56818
 Alpha  occ. eigenvalues --   -0.56621  -0.54896  -0.54338  -0.53793  -0.52773
 Alpha  occ. eigenvalues --   -0.51221  -0.50524  -0.49660  -0.49072  -0.48366
 Alpha  occ. eigenvalues --   -0.47236  -0.46844  -0.46201  -0.45104  -0.44025
 Alpha  occ. eigenvalues --   -0.43024  -0.42588  -0.41544  -0.36995  -0.35979
 Alpha  occ. eigenvalues --   -0.34130  -0.33765  -0.32359  -0.27648
 Alpha virt. eigenvalues --    0.01175   0.04726   0.05195   0.07073   0.10186
 Alpha virt. eigenvalues --    0.12752   0.13660   0.14361   0.15297   0.15765
 Alpha virt. eigenvalues --    0.16277   0.16691   0.17930   0.18278   0.18304

 Mulliken charges:
               1
     1  C   -0.312367
     2  C    0.329206
     3  O   -0.510663
     4  C    0.211916
     5  C   -0.299344
     6  H    0.148785
     7  H    0.153944
     8  H    0.148519
     9  N   -0.377610
    10  H    0.275091
    11  H    0.271459
    12  C   -0.363402
    13  H    0.141040
    14  H    0.154991
    15  H    0.160618
    16  Br  -0.135682
    17  C   -0.406708
    18  H    0.135518
    19  H    0.153346
    20  H    0.133950
    21  C    0.152632
    22  C   -0.256222
    23  C   -0.131242
    24  C   -0.137622
    25  C   -0.142357
    26  C   -0.229156
    27  H    0.158630
    28  H    0.144095
    29  H    0.146167
    30  H    0.143158
    31  H    0.139308
 Sum of Mulliken charges =  -0.00000

 Dipole moment (field-independent basis, Debye):
    X=             -2.8176    Y=              4.7702    Z=              3.2137  Tot=              6.4048
 Quadrupole moment (field-independent basis, Debye-Ang):
   XX=            -83.2493   YY=            -97.4451   ZZ=           -102.6798
   XY=            -11.1064   XZ=              1.1058   YZ=             -5.6416

  Exact polarizability: 311.983  -7.731 215.628   1.888 -19.400 224.024
 Approx polarizability: 227.091  -3.580 179.395   3.054 -15.638 194.917

 ******    1 imaginary frequencies (negative Signs) ******

                      1                      2                      3
                      A                      A                      A
 Frequencies --   -385.4862                33.6532                49.0200
 Red. masses --      5.3414                 5.2796                 3.9051
 Frc consts  --      0.4676                 0.0035                 0.0055
 IR Inten    --    747.8899                 1.7090                 0.2949

                      4                      5                      6
                      A                      A                      A
 Frequencies --     76.8584                93.9363               115.7872
 Red. masses --      3.8565                 3.0587                 2.0635
 Frc consts  --      0.0134                 0.0159                 0.0163
 IR Inten    --      3.0789                 1.8734                13.5550

                      7                      8                      9
                      A                      A                      A
 Frequencies --    132.9235               147.4829               153.3670
 Red. masses --      3.4110                 2.3752                 2.8594
 Frc consts  --      0.0355                 0.0304                 0.0396
 IR Inten    --      3.3729                 4.9673                 1.1321

                     10                     11                     12
                      A                      A                      A
 Frequencies --    195.2265               207.4853               217.6849
 Red. masses --      1.6633                 2.6034                 1.6817
 Frc consts  --      0.0374                 0.0660                 0.0470
 IR Inten    --     15.0122                 1.1652                 4.8488

                     13                     14                     15
                      A                      A                      A
 Frequencies --    247.4069               252.3312               281.2630
 Red. masses --      1.3907                 3.4530                 3.8888
 Frc consts  --      0.0502                 0.1295                 0.1813
 IR Inten    --      3.0150                25.3549                11.7994

                     16                     17                     18
                      A                      A                      A
 Frequencies --    283.0627               323.3468               378.5259
 Red. masses --      2.6869                 4.8350                 2.4441
 Frc consts  --      0.1268                 0.2978                 0.2063
 IR Inten    --      2.8395                17.6323                 0.5646

                     19                     20                     21
                      A                      A                      A
 Frequencies --    385.1160               409.1225               422.6238
 Red. masses --      3.7830                 3.9922                 2.8483
 Frc consts  --      0.3306                 0.3937                 0.2997
 IR Inten    --      2.3356                 3.3017                 0.6909

                     22                     23                     24
                      A                      A                      A
 Frequencies --    474.8905               525.7196               600.4841
 Red. masses --      3.7166                 4.0934                 2.2228
 Frc consts  --      0.4938                 0.6666                 0.4722
 IR Inten    --     65.4862                64.2240                45.2107

                     25                     26                     27
                      A                      A                      A
 Frequencies --    635.0544               652.2164               657.4694
 Red. masses --      6.4032                 2.2672                 3.2419
 Frc consts  --      1.5215                 0.5682                 0.8257
 IR Inten    --      0.1275               102.3715                12.0461

                     28                     29                     30
                      A                      A                      A
 Frequencies --    724.3222               746.8389               753.2710
 Red. masses --      1.7101                 3.6763                 3.0692
 Frc consts  --      0.5286                 1.2081                 1.0261
 IR Inten    --     62.5676                57.6511                98.8876

                     31                     32                     33
                      A                      A                      A
 Frequencies --    829.3726               881.4409               918.7356
 Red. masses --      3.1031                 1.2492                 3.3199
 Frc consts  --      1.2576                 0.5718                 1.6510
 IR Inten    --     34.9822                 0.8438                36.3780

                     34                     35                     36
                      A                      A                      A
 Frequencies --    957.0099               969.0526              1016.1382
 Red. masses --      1.1019                 1.4682                 1.3990
 Frc consts  --      0.5946                 0.8123                 0.8511
 IR Inten    --    144.2865                 9.9395                25.7552

                     37                     38                     39
                      A                      A                      A
 Frequencies --   1019.7133              1026.2172              1028.9614
 Red. masses --      1.8694                 4.6927                 1.1516
 Frc consts  --      1.1452                 2.9117                 0.7184
 IR Inten    --    222.4574                 5.3993                60.9593

                     40                     41                     42
                      A                      A                      A
 Frequencies --   1032.7894              1038.8110              1060.3200
 Red. masses --      1.3288                 1.3744                 1.9930
 Frc consts  --      0.8351                 0.8738                 1.3201
 IR Inten    --      4.5280                60.7634                 3.2828

                     43                     44                     45
                      A                      A                      A
 Frequencies --   1069.5512              1092.2548              1096.1842
 Red. masses --      1.4390                 2.3005                 2.5832
 Frc consts  --      0.9699                 1.6171                 1.8288
 IR Inten    --     15.3266                39.7379               100.4116

                     46                     47                     48
                      A                      A                      A
 Frequencies --   1110.4824              1139.0356              1183.5144
 Red. masses --      1.5221                 3.1797                 1.1372
 Frc consts  --      1.1059                 2.4306                 0.9385
 IR Inten    --     11.0573                10.4603                 0.5051

                     49                     50                     51
                      A                      A                      A
 Frequencies --   1185.6483              1202.4787              1231.3204
 Red. masses --      1.4179                 1.1348                 4.4235
 Frc consts  --      1.1744                 0.9667                 3.9515
 IR Inten    --     22.1971                16.2729                86.1226

                     52                     53                     54
                      A                      A                      A
 Frequencies --   1325.0399              1348.6899              1352.1744
 Red. masses --      3.9456                 1.3865                 1.9633
 Frc consts  --      4.0815                 1.4859                 2.1149
 IR Inten    --     29.9055                 4.1413                58.5795

                     55                     56                     57
                      A                      A                      A
 Frequencies --   1363.5871              1403.4442              1424.0712
 Red. masses --      2.9269                 1.4667                 1.1911
 Frc consts  --      3.2065                 1.7021                 1.4232
 IR Inten    --    135.3998               317.9881                 3.2514

                     58                     59                     60
                      A                      A                      A
 Frequencies --   1437.5068              1457.9128              1476.3952
 Red. masses --      2.0458                 1.3081                 1.1166
 Frc consts  --      2.4907                 1.6382                 1.4340
 IR Inten    --    626.8178               116.5058                23.9717

                     61                     62                     63
                      A                      A                      A
 Frequencies --   1479.5895              1490.2594              1492.7959
 Red. masses --      1.0550                 1.9086                 1.1190
 Frc consts  --      1.3608                 2.4974                 1.4691
 IR Inten    --     17.1181                 6.6388                46.6265

                     64                     65                     66
                      A                      A                      A
 Frequencies --   1500.4406              1503.0323              1509.5556
 Red. masses --      1.0605                 1.1475                 1.0561
 Frc consts  --      1.4067                 1.5273                 1.4179
 IR Inten    --     38.4796               204.6166                16.6613

                     67                     68                     69
                      A                      A                      A
 Frequencies --   1539.3986              1626.4410              1646.9981
 Red. masses --      2.3267                 3.2850                 1.5750
 Frc consts  --      3.2486                 5.1199                 2.5173
 IR Inten    --      6.0602               397.9553                12.8511

                     70                     71                     72
                      A                      A                      A
 Frequencies --   1659.3027              1673.7093              3037.3413
 Red. masses --      4.2874                 5.8977                 1.0419
 Frc consts  --      6.9550                 9.7340                 5.6635
 IR Inten    --     70.2846                12.0256                80.7418

                     73                     74                     75
                      A                      A                      A
 Frequencies --   3050.2991              3065.0399              3088.1655
 Red. masses --      1.0341                 1.0389                 1.1005
 Frc consts  --      5.6686                 5.7505                 6.1837
 IR Inten    --     57.4706                11.0978                43.6363

                     76                     77                     78
                      A                      A                      A
 Frequencies --   3116.4492              3137.4844              3150.8040
 Red. masses --      1.1038                 1.0991                 1.1038
 Frc consts  --      6.3161                 6.3743                 6.4561
 IR Inten    --     18.9520                12.5830                24.3903

                     79                     80                     81
                      A                      A                      A
 Frequencies --   3155.0636              3170.9688              3192.9892
 Red. masses --      1.0957                 1.1026                 1.0860
 Frc consts  --      6.4260                 6.5324                 6.5232
 IR Inten    --     20.9070                11.2107                 1.7974

                     82                     83                     84
                      A                      A                      A
 Frequencies --   3198.7425              3206.6060              3214.1721
 Red. masses --      1.0882                 1.0916                 1.0949
 Frc consts  --      6.5600                 6.6129                 6.6645
 IR Inten    --      0.8926                11.9915                33.7509

                     85                     86                     87
                      A                      A                      A
 Frequencies --   3222.0717              3505.3036              3613.7914
 Red. masses --      1.0988                 1.0525                 1.0951
 Frc consts  --      6.7210                 7.6194                 8.4258
 IR Inten    --     21.1821                30.4337                90.9292

 - Thermochemistry -
 -------------------
 Temperature   298.150 Kelvin.  Pressure   1.00000 Atm.
 Atom     1 has atomic number  6 and mass  12.00000

 Molecular mass:   269.04153 amu.
 Principal axes and moments of inertia in atomic units:
                           1         2         3
     Eigenvalues --  2241.281386992.977007450.47688
           X            0.99902  -0.04364  -0.00779
           Y            0.04301   0.99675  -0.06805
           Z            0.01074   0.06764   0.99765
 This molecule is an asymmetric top.
 Rotational symmetry number  1.
 Warning -- assumption of classical behavior for rotation
           may cause significant error
 Rotational temperatures (Kelvin)      0.03864     0.01239     0.01163
 Rotational constants (GHZ):           0.80523     0.25808     0.24223
    1 imaginary frequencies ignored.
 Zero-point vibrational energy     676495.2 (Joules/Mol)
                                  161.68623 (Kcal/Mol)
 Warning -- explicit consideration of  23 degrees of freedom as
           vibrations may cause significant error
 Vibrational temperatures:     48.42    70.53   110.58   135.15   166.59
          (Kelvin)            191.25   212.19   220.66   280.89   298.53
                              313.20   355.96   363.05   404.67   407.26
                              465.22   544.61   554.10   588.64   608.06
                              683.26   756.39   863.96   913.70   938.39
                              945.95  1042.14  1074.53  1083.79  1193.28
                             1268.20  1321.86  1376.92  1394.25  1462.00
                             1467.14  1476.50  1480.45  1485.95  1494.62
                             1525.56  1538.85  1571.51  1577.16  1597.74
                             1638.82  1702.81  1705.88  1730.10  1771.60
                             1906.44  1940.46  1945.48  1961.90  2019.24
                             2048.92  2068.25  2097.61  2124.20  2128.80
                             2144.15  2147.80  2158.80  2162.53  2171.91
                             2214.85  2340.09  2369.66  2387.37  2408.09
                             4370.06  4388.70  4409.91  4443.18  4483.88
                             4514.14  4533.30  4539.43  4562.32  4594.00
                             4602.28  4613.59  4624.48  4635.84  5043.35
                             5199.44

 Zero-point correction=                           0.257663 (Hartree/Particle)
 Thermal correction to Energy=                    0.273640
 Thermal correction to Enthalpy=                  0.274585
 Thermal correction to Gibbs Free Energy=         0.213397
 Sum of electronic and zero-point Energies=          -3170.830978
 Sum of electronic and thermal Energies=             -3170.815001
 Sum of electronic and thermal Enthalpies=           -3170.814057
 Sum of electronic and thermal Free Energies=        -3170.875244

                     E (Thermal)             CV                S
                      KCal/Mol        Cal/Mol-Kelvin    Cal/Mol-Kelvin
 Total                  171.712             58.762            128.780
 Electronic               0.000              0.000              0.000
 Translational            0.889              2.981             42.668
 Rotational               0.889              2.981             33.123
 Vibrational            169.935             52.801             52.989
 Vibration     1          0.594              1.983              5.602
 Vibration     2          0.595              1.978              4.857
 Vibration     3          0.599              1.965              3.970
 Vibration     4          0.603              1.954              3.576
 Vibration     5          0.608              1.936              3.170
 Vibration     6          0.613              1.920              2.903
 Vibration     7          0.617              1.905              2.704
 Vibration     8          0.619              1.899              2.630
 Vibration     9          0.636              1.847              2.178
 Vibration    10          0.641              1.829              2.066
 Vibration    11          0.646              1.814              1.978
 Vibration    12          0.661              1.767              1.749
 Vibration    13          0.664              1.759              1.714
 Vibration    14          0.681              1.708              1.526
 Vibration    15          0.682              1.705              1.515
 Vibration    16          0.708              1.629              1.293
 Vibration    17          0.749              1.516              1.045
 Vibration    18          0.754              1.502              1.019
 Vibration    19          0.773              1.450              0.930
 Vibration    20          0.785              1.421              0.883
 Vibration    21          0.832              1.306              0.724
 Vibration    22          0.881              1.193              0.597
 Vibration    23          0.959              1.031              0.449

 Optimization completed.
    -- Stationary point found.
 Normal termination of Gaussian 16 at Wed Feb 17 20:24:27 2021.
