 Gaussian 16, Revision A.03,
 Gaussian 16:  ES64L-G16RevA.03 25-Dec-2016

 ----------------------------------------------------------------------
 # wB97XD def2tzvp, opt=(ts, noeigen, calcfc, maxcycles=70, maxstep=3),
  freq=noraman, scrf=(iefpcm, solvent=water)
 ----------------------------------------------------------------------

 ------------------------
 0_iteration/TS-515-0.out
 ------------------------
 Symbolic Z-matrix:
 Charge =  0 Multiplicity = 1

 SCF Done:  E(RwB97XD) =  -881.419013907     A.U. after   15 cycles
 SCF Done:  E(RwB97XD) =  -881.418895509     A.U. after   11 cycles
 SCF Done:  E(RwB97XD) =  -881.418825906     A.U. after   12 cycles
 SCF Done:  E(RwB97XD) =  -881.418817073     A.U. after   12 cycles
 SCF Done:  E(RwB97XD) =  -881.418871133     A.U. after   11 cycles
 SCF Done:  E(RwB97XD) =  -881.419063002     A.U. after   10 cycles
 SCF Done:  E(RwB97XD) =  -881.419383786     A.U. after   11 cycles
 SCF Done:  E(RwB97XD) =  -881.419822786     A.U. after   11 cycles
 SCF Done:  E(RwB97XD) =  -881.420318243     A.U. after   11 cycles
 SCF Done:  E(RwB97XD) =  -881.420859746     A.U. after   11 cycles
 SCF Done:  E(RwB97XD) =  -881.421885341     A.U. after   11 cycles
 SCF Done:  E(RwB97XD) =  -881.422307955     A.U. after   11 cycles
 SCF Done:  E(RwB97XD) =  -881.422608906     A.U. after   11 cycles
 SCF Done:  E(RwB97XD) =  -881.422761477     A.U. after   11 cycles
 SCF Done:  E(RwB97XD) =  -881.422780687     A.U. after   10 cycles
 SCF Done:  E(RwB97XD) =  -881.422781825     A.U. after    8 cycles
 SCF Done:  E(RwB97XD) =  -881.422777072     A.U. after   10 cycles
 SCF Done:  E(RwB97XD) =  -881.422781663     A.U. after   10 cycles
 SCF Done:  E(RwB97XD) =  -881.422781830     A.U. after    7 cycles
 Optimization completed.
    -- Stationary point found.
 Normal termination of Gaussian 16 at Wed Apr 14 05:54:16 2021.

 ---------------------------------------------------------------------
 #N Geom=AllCheck Guess=TCheck SCRF=Check GenChk RwB97XD/def2TZVP Freq
 ---------------------------------------------------------------------

 Structure from the checkpoint file:  "/beegfs/scratch/user/q/tla25/Gau-242838.chk"
 ------------------------
 0_iteration/TS-515-0.out
 ------------------------
 Charge =  0 Multiplicity = 1

                         Standard orientation:
 ---------------------------------------------------------------------
 Center     Atomic      Atomic             Coordinates (Angstroms)
 Number     Number       Type             X           Y           Z
 ---------------------------------------------------------------------
      1          6           0       -0.481514    0.229108   -0.363450
      2          6           0       -1.341625   -0.889844   -0.110235
      3          8           0       -0.914654   -2.062180   -0.084702
      4          6           0        0.885729    0.095045   -0.676384
      5          6           0        1.448130   -0.156488    2.110387
      6          1           0        0.414602    0.191621    2.128480
      7          1           0        1.609136   -0.823024    2.958535
      8          1           0        2.112829    0.700475    2.200959
      9          7           0        1.682588   -0.826192    0.839486
     10          1           0        2.660011   -1.050592    0.698368
     11          1           0        1.129681   -1.676801    0.766569
     12          6           0        1.734379    1.339192   -0.738017
     13          1           0        1.422326    1.942585   -1.592822
     14          1           0        1.632837    1.952662    0.154744
     15          1           0        2.782208    1.074324   -0.874813
     16          6           0        1.285017   -0.918845   -1.729826
     17          1           0        0.714961   -1.838088   -1.644690
     18          1           0        1.086246   -0.470977   -2.706194
     19          1           0        2.352098   -1.139911   -1.680617
     20         17           0       -1.097419    1.827727    0.107669
     21          7           0       -2.673101   -0.667739    0.112660
     22          1           0       -3.004772    0.261609    0.297963
     23          1           0       -3.185922   -1.429287    0.520889
 ---------------------------------------------------------------------

 SCF Done:  E(RwB97XD) =  -881.422781830     A.U. after    1 cycles

 The electronic state is 1-A.
 Alpha  occ. eigenvalues -- -101.68398 -19.19754 -14.47064 -14.43326 -10.37713
 Alpha  occ. eigenvalues --  -10.35167 -10.31191 -10.29697 -10.27987 -10.27374
 Alpha  occ. eigenvalues --   -9.56934  -7.31535  -7.30751  -7.30713  -1.12127
 Alpha  occ. eigenvalues --   -1.02927  -0.99235  -0.95375  -0.89600  -0.80195
 Alpha  occ. eigenvalues --   -0.78755  -0.77474  -0.69760  -0.63413  -0.62117
 Alpha  occ. eigenvalues --   -0.59409  -0.57162  -0.56274  -0.54837  -0.53798
 Alpha  occ. eigenvalues --   -0.51092  -0.49600  -0.48793  -0.47497  -0.47432
 Alpha  occ. eigenvalues --   -0.46770  -0.45502  -0.43807  -0.41684  -0.39989
 Alpha  occ. eigenvalues --   -0.39346  -0.34878  -0.33443  -0.26272
 Alpha virt. eigenvalues --    0.05930   0.10296   0.11865   0.13302   0.14390
 Alpha virt. eigenvalues --    0.14603   0.15706   0.17059   0.18045   0.18431
 Alpha virt. eigenvalues --    0.19324   0.19666   0.20228   0.21733   0.22220

 Mulliken charges:
               1
     1  C   -0.257504
     2  C    0.337884
     3  O   -0.582575
     4  C    0.183703
     5  C   -0.299389
     6  H    0.150818
     7  H    0.150306
     8  H    0.154586
     9  N   -0.342056
    10  H    0.277465
    11  H    0.273485
    12  C   -0.377765
    13  H    0.152751
    14  H    0.144118
    15  H    0.139795
    16  C   -0.361567
    17  H    0.153454
    18  H    0.136259
    19  H    0.128448
    20  Cl  -0.204700
    21  N   -0.479720
    22  H    0.258111
    23  H    0.264094
 Sum of Mulliken charges =  -0.00000

 Dipole moment (field-independent basis, Debye):
    X=              5.2881    Y=              0.7015    Z=              2.7300  Tot=              5.9924
 Quadrupole moment (field-independent basis, Debye-Ang):
   XX=            -53.4066   YY=            -78.1229   ZZ=            -65.0270
   XY=             -3.4492   XZ=             -1.3447   YZ=             -2.8680

  Exact polarizability: 172.194  -2.904 146.405   0.764  -1.941 126.450
 Approx polarizability: 133.254  -5.204 125.240   0.229  -1.556 105.241

 ******    1 imaginary frequencies (negative Signs) ******

                      1                      2                      3
                      A                      A                      A
 Frequencies --   -389.0161                67.4184                79.5453
 Red. masses --      5.0070                 2.9344                 3.5483
 Frc consts  --      0.4464                 0.0079                 0.0132
 IR Inten    --    787.9322                 1.1105                24.8308

                      4                      5                      6
                      A                      A                      A
 Frequencies --     99.4187               133.1622               197.2600
 Red. masses --      3.7373                 3.1781                 1.1839
 Frc consts  --      0.0218                 0.0332                 0.0271
 IR Inten    --     17.9863                38.4889                 2.8522

                      7                      8                      9
                      A                      A                      A
 Frequencies --    213.0700               230.1040               235.1200
 Red. masses --      1.4322                 3.5212                 1.7020
 Frc consts  --      0.0383                 0.1098                 0.0554
 IR Inten    --      2.0905                 9.3867                 6.7757

                     10                     11                     12
                      A                      A                      A
 Frequencies --    250.9549               292.8132               305.2525
 Red. masses --      2.2221                 1.7447                 2.7061
 Frc consts  --      0.0825                 0.0881                 0.1486
 IR Inten    --      9.6569                 2.0908                29.0311

                     13                     14                     15
                      A                      A                      A
 Frequencies --    313.5293               329.0732               381.5938
 Red. masses --      2.5072                 1.3761                 2.6330
 Frc consts  --      0.1452                 0.0878                 0.2259
 IR Inten    --     60.8802               282.5412                 7.6593

                     16                     17                     18
                      A                      A                      A
 Frequencies --    416.7054               456.3583               490.0734
 Red. masses --      3.5979                 4.1722                 1.5908
 Frc consts  --      0.3681                 0.5119                 0.2251
 IR Inten    --      4.0845                19.7060                11.4959

                     19                     20                     21
                      A                      A                      A
 Frequencies --    511.3760               534.8435               663.9243
 Red. masses --      2.5796                 2.1362                 2.7841
 Frc consts  --      0.3975                 0.3600                 0.7231
 IR Inten    --     66.0080                12.2059                52.5586

                     22                     23                     24
                      A                      A                      A
 Frequencies --    683.6583               783.4952               908.1536
 Red. masses --      1.5803                 9.1249                 3.1678
 Frc consts  --      0.4352                 3.3003                 1.5393
 IR Inten    --     59.0943                41.0691                17.4421

                     25                     26                     27
                      A                      A                      A
 Frequencies --    960.0394               998.0479              1002.4324
 Red. masses --      1.3440                 1.1690                 1.7912
 Frc consts  --      0.7298                 0.6861                 1.0605
 IR Inten    --      5.6621                86.6124                41.5321

                     28                     29                     30
                      A                      A                      A
 Frequencies --   1034.2307              1059.8165              1077.0519
 Red. masses --      1.4212                 1.3205                 2.5305
 Frc consts  --      0.8957                 0.8738                 1.7295
 IR Inten    --     62.1926                69.7369                98.8837

                     31                     32                     33
                      A                      A                      A
 Frequencies --   1083.5614              1112.9449              1122.6776
 Red. masses --      2.1328                 1.9492                 2.0257
 Frc consts  --      1.4754                 1.4225                 1.5043
 IR Inten    --     28.3368                20.7259                17.0892

                     34                     35                     36
                      A                      A                      A
 Frequencies --   1210.4083              1260.3759              1355.7177
 Red. masses --      1.4123                 3.4992                 1.3238
 Frc consts  --      1.2191                 3.2750                 1.4336
 IR Inten    --     34.0855                20.7964                 7.0501

                     37                     38                     39
                      A                      A                      A
 Frequencies --   1388.8130              1407.3717              1408.7355
 Red. masses --      2.7913                 2.4434                 1.3036
 Frc consts  --      3.1720                 2.8514                 1.5243
 IR Inten    --     33.8719               791.7791                22.3520

                     40                     41                     42
                      A                      A                      A
 Frequencies --   1427.4385              1457.9413              1475.9235
 Red. masses --      1.5256                 1.2018                 1.0501
 Frc consts  --      1.8315                 1.5051                 1.3478
 IR Inten    --    317.1979                23.8441                19.6843

                     43                     44                     45
                      A                      A                      A
 Frequencies --   1485.3878              1492.7626              1504.2239
 Red. masses --      1.0548                 1.0465                 1.1064
 Frc consts  --      1.3712                 1.3740                 1.4750
 IR Inten    --     11.3318                11.1391                60.4896

                     46                     47                     48
                      A                      A                      A
 Frequencies --   1507.9038              1511.2511              1590.4530
 Red. masses --      1.0487                 1.1850                 1.9406
 Frc consts  --      1.4049                 1.5945                 2.8921
 IR Inten    --     19.0837                28.0057               359.3728

                     49                     50                     51
                      A                      A                      A
 Frequencies --   1624.9884              1651.3987              3059.4885
 Red. masses --      1.8612                 1.2481                 1.0403
 Frc consts  --      2.8956                 2.0053                 5.7372
 IR Inten    --    493.0591                 6.8555                36.5032

                     52                     53                     54
                      A                      A                      A
 Frequencies --   3062.5835              3067.3869              3122.2568
 Red. masses --      1.0337                 1.0377                 1.1012
 Frc consts  --      5.7126                 5.7526                 6.3247
 IR Inten    --     46.3073                25.3640                29.7341

                     55                     56                     57
                      A                      A                      A
 Frequencies --   3134.4912              3138.6774              3160.3153
 Red. masses --      1.1040                 1.1003                 1.1047
 Frc consts  --      6.3907                 6.3865                 6.5009
 IR Inten    --     16.3499                31.5650                23.1646

                     58                     59                     60
                      A                      A                      A
 Frequencies --   3164.2232              3196.8654              3482.1019
 Red. masses --      1.1030                 1.0980                 1.0556
 Frc consts  --      6.5067                 6.6117                 7.5413
 IR Inten    --     17.7275                 4.7371                41.5907

                     61                     62                     63
                      A                      A                      A
 Frequencies --   3592.5423              3620.1849              3741.3096
 Red. masses --      1.0922                 1.0458                 1.1033
 Frc consts  --      8.3052                 8.0754                 9.0989
 IR Inten    --     73.8331                64.0437                78.6349

 - Thermochemistry -
 -------------------
 Temperature   298.150 Kelvin.  Pressure   1.00000 Atm.
 Atom     1 has atomic number  6 and mass  12.00000

 Molecular mass:   164.07164 amu.
 Principal axes and moments of inertia in atomic units:
                           1         2         3
     Eigenvalues --  1475.382491835.135682241.58013
           X            0.99855   0.05308  -0.00879
           Y           -0.05315   0.99855  -0.00829
           Z            0.00834   0.00875   0.99993
 This molecule is an asymmetric top.
 Rotational symmetry number  1.
 Warning -- assumption of classical behavior for rotation
           may cause significant error
 Rotational temperatures (Kelvin)      0.05871     0.04720     0.03864
 Rotational constants (GHZ):           1.22324     0.98344     0.80512
    1 imaginary frequencies ignored.
 Zero-point vibrational energy     510394.1 (Joules/Mol)
                                  121.98711 (Kcal/Mol)
 Warning -- explicit consideration of  19 degrees of freedom as
           vibrations may cause significant error
 Vibrational temperatures:     97.00   114.45   143.04   191.59   283.81
          (Kelvin)            306.56   331.07   338.29   361.07   421.29
                              439.19   451.10   473.46   549.03   599.55
                              656.60   705.11   735.76   769.52   955.24
                              983.63  1127.27  1306.63  1381.28  1435.97
                             1442.28  1488.03  1524.84  1549.64  1559.00
                             1601.28  1615.28  1741.51  1813.40  1950.58
                             1998.19  2024.89  2026.86  2053.77  2097.65
                             2123.52  2137.14  2147.75  2164.24  2169.54
                             2174.35  2288.31  2338.00  2375.99  4401.92
                             4406.37  4413.29  4492.23  4509.83  4515.86
                             4546.99  4552.61  4599.58  5009.97  5168.87
                             5208.64  5382.91

 Zero-point correction=                           0.194399 (Hartree/Particle)
 Thermal correction to Energy=                    0.206758
 Thermal correction to Enthalpy=                  0.207702
 Thermal correction to Gibbs Free Energy=         0.156600
 Sum of electronic and zero-point Energies=           -881.228383
 Sum of electronic and thermal Energies=              -881.216024
 Sum of electronic and thermal Enthalpies=            -881.215079
 Sum of electronic and thermal Free Energies=         -881.266182

                     E (Thermal)             CV                S
                      KCal/Mol        Cal/Mol-Kelvin    Cal/Mol-Kelvin
 Total                  129.743             44.827            107.555
 Electronic               0.000              0.000              0.000
 Translational            0.889              2.981             41.194
 Rotational               0.889              2.981             30.185
 Vibrational            127.965             38.866             36.176
 Vibration     1          0.598              1.970              4.227
 Vibration     2          0.600              1.963              3.902
 Vibration     3          0.604              1.950              3.466
 Vibration     4          0.613              1.920              2.900
 Vibration     5          0.637              1.844              2.159
 Vibration     6          0.644              1.821              2.017
 Vibration     7          0.652              1.795              1.878
 Vibration     8          0.655              1.787              1.840
 Vibration     9          0.663              1.761              1.724
 Vibration    10          0.688              1.687              1.458
 Vibration    11          0.696              1.664              1.388
 Vibration    12          0.701              1.648              1.344
 Vibration    13          0.712              1.617              1.265
 Vibration    14          0.751              1.509              1.033
 Vibration    15          0.780              1.434              0.903
 Vibration    16          0.815              1.347              0.777
 Vibration    17          0.846              1.272              0.683
 Vibration    18          0.866              1.225              0.630
 Vibration    19          0.890              1.173              0.576

 Optimization completed.
    -- Stationary point found.
 Normal termination of Gaussian 16 at Wed Apr 14 06:01:37 2021.
