 Gaussian 16, Revision A.03,
 Gaussian 16:  ES64L-G16RevA.03 25-Dec-2016

 ----------------------------------------------------------------------
 # wB97XD def2tzvp, opt=(ts, noeigen, calcfc, maxcycles=70, maxstep=1),
  freq=noraman, scrf=(iefpcm, solvent=water)
 ----------------------------------------------------------------------

 ------------------------
 0_iteration/TS-570-0.out
 ------------------------
 Symbolic Z-matrix:
 Charge =  0 Multiplicity = 1

 SCF Done:  E(RwB97XD) =  -826.034539718     A.U. after   15 cycles
 SCF Done:  E(RwB97XD) =  -826.034471028     A.U. after   10 cycles
 SCF Done:  E(RwB97XD) =  -826.034407245     A.U. after   10 cycles
 SCF Done:  E(RwB97XD) =  -826.034348459     A.U. after   10 cycles
 SCF Done:  E(RwB97XD) =  -826.034294950     A.U. after   10 cycles
 SCF Done:  E(RwB97XD) =  -826.034247090     A.U. after   10 cycles
 SCF Done:  E(RwB97XD) =  -826.034205516     A.U. after   10 cycles
 SCF Done:  E(RwB97XD) =  -826.034171255     A.U. after   10 cycles
 SCF Done:  E(RwB97XD) =  -826.034145852     A.U. after   10 cycles
 SCF Done:  E(RwB97XD) =  -826.034131397     A.U. after   10 cycles
 SCF Done:  E(RwB97XD) =  -826.034611427     A.U. after   10 cycles
 SCF Done:  E(RwB97XD) =  -826.034636248     A.U. after   10 cycles
 SCF Done:  E(RwB97XD) =  -826.034660717     A.U. after   10 cycles
 SCF Done:  E(RwB97XD) =  -826.034677412     A.U. after   10 cycles
 SCF Done:  E(RwB97XD) =  -826.034686563     A.U. after   10 cycles
 SCF Done:  E(RwB97XD) =  -826.034687576     A.U. after   10 cycles
 SCF Done:  E(RwB97XD) =  -826.034688245     A.U. after    9 cycles
 SCF Done:  E(RwB97XD) =  -826.034688659     A.U. after    8 cycles
 SCF Done:  E(RwB97XD) =  -826.034688510     A.U. after    7 cycles
 Optimization completed.
    -- Stationary point found.
 Normal termination of Gaussian 16 at Mon Feb 15 19:39:32 2021.

 ---------------------------------------------------------------------
 #N Geom=AllCheck Guess=TCheck SCRF=Check GenChk RwB97XD/def2TZVP Freq
 ---------------------------------------------------------------------

 Structure from the checkpoint file:  "/beegfs/scratch/user/q/tla25/Gau-15800.chk"
 ------------------------
 0_iteration/TS-570-0.out
 ------------------------
 Charge =  0 Multiplicity = 1

                         Standard orientation:
 ---------------------------------------------------------------------
 Center     Atomic      Atomic             Coordinates (Angstroms)
 Number     Number       Type             X           Y           Z
 ---------------------------------------------------------------------
      1          6           0        0.595472    0.357059    0.846924
      2          6           0        1.878526    0.304232    0.231264
      3          8           0        2.843037    0.906144    0.727925
      4          6           0       -0.624142   -0.219998    0.498919
      5          6           0       -1.466434    2.149896   -0.734987
      6          1           0       -1.608102    2.706936   -1.660054
      7          1           0       -2.285731    2.370656   -0.054653
      8          1           0       -0.523380    2.449760   -0.274543
      9          7           0       -1.410569    0.713249   -0.979456
     10          1           0       -2.321279    0.323066   -1.195706
     11          1           0       -0.795792    0.499794   -1.755985
     12          6           0       -1.749453   -0.109732    1.495094
     13          1           0       -1.818679    0.913003    1.864562
     14          1           0       -2.705385   -0.403804    1.065617
     15          1           0       -1.536951   -0.764956    2.339916
     16         17           0       -0.648124   -1.839545   -0.277462
     17          1           0        0.541939    1.022099    1.701835
     18          6           0        2.129093   -0.483565   -1.040950
     19          1           0        1.311376   -0.426483   -1.757766
     20          1           0        3.040872   -0.108323   -1.502284
     21          1           0        2.270534   -1.538725   -0.798885
 ---------------------------------------------------------------------

 SCF Done:  E(RwB97XD) =  -826.034688510     A.U. after    1 cycles

 The electronic state is 1-A.
 Alpha  occ. eigenvalues -- -101.69617 -19.19857 -14.49165 -10.40287 -10.35066
 Alpha  occ. eigenvalues --  -10.31841 -10.29088 -10.27053 -10.24981  -9.58230
 Alpha  occ. eigenvalues --   -7.32847  -7.32028  -7.31984  -1.10482  -1.04898
 Alpha  occ. eigenvalues --   -0.97227  -0.87144  -0.83814  -0.79333  -0.79107
 Alpha  occ. eigenvalues --   -0.68298  -0.63702  -0.60904  -0.58386  -0.56166
 Alpha  occ. eigenvalues --   -0.54739  -0.54264  -0.51322  -0.50159  -0.49515
 Alpha  occ. eigenvalues --   -0.49013  -0.47674  -0.46421  -0.44603  -0.44160
 Alpha  occ. eigenvalues --   -0.42674  -0.39440  -0.38693  -0.31884  -0.28174
 Alpha virt. eigenvalues --    0.04511   0.08204   0.09749   0.13127   0.13660
 Alpha virt. eigenvalues --    0.14731   0.16000   0.16847   0.17469   0.18725
 Alpha virt. eigenvalues --    0.20066   0.20240   0.20609   0.21736   0.22729

 Mulliken charges:
               1
     1  C   -0.470816
     2  C    0.274164
     3  O   -0.531618
     4  C    0.209066
     5  C   -0.296575
     6  H    0.160631
     7  H    0.162946
     8  H    0.153354
     9  N   -0.315086
    10  H    0.291655
    11  H    0.278331
    12  C   -0.388462
    13  H    0.153462
    14  H    0.149691
    15  H    0.157103
    16  Cl  -0.128284
    17  H    0.126104
    18  C   -0.352584
    19  H    0.102566
    20  H    0.122639
    21  H    0.141712
 Sum of Mulliken charges =  -0.00000

 Dipole moment (field-independent basis, Debye):
    X=            -10.1295    Y=              1.1231    Z=             -4.4157  Tot=             11.1071
 Quadrupole moment (field-independent basis, Debye-Ang):
   XX=            -72.8077   YY=            -63.3315   ZZ=            -58.4908
   XY=            -11.8465   XZ=             -4.9381   YZ=             -3.9356

  Exact polarizability: 172.888   6.003 131.874   9.937   5.471 122.946
 Approx polarizability: 132.127   6.377 109.941   9.044   5.546 104.120

 ******    1 imaginary frequencies (negative Signs) ******

                      1                      2                      3
                      A                      A                      A
 Frequencies --   -379.9057                53.9507                74.4110
 Red. masses --      5.3453                 2.4140                 4.7864
 Frc consts  --      0.4545                 0.0041                 0.0156
 IR Inten    --    843.0594                 0.0882                 5.7285

                      4                      5                      6
                      A                      A                      A
 Frequencies --    111.0302               166.7968               185.4445
 Red. masses --      2.3340                 1.7948                 2.1500
 Frc consts  --      0.0170                 0.0294                 0.0436
 IR Inten    --     12.4097                 2.5336                 4.7265

                      7                      8                      9
                      A                      A                      A
 Frequencies --    200.0934               225.6527               264.5864
 Red. masses --      1.1507                 2.6562                 1.1929
 Frc consts  --      0.0271                 0.0797                 0.0492
 IR Inten    --      0.9001                 2.5190                 5.0643

                     10                     11                     12
                      A                      A                      A
 Frequencies --    292.2411               311.2067               323.4174
 Red. masses --      2.8680                 3.0921                 2.8647
 Frc consts  --      0.1443                 0.1764                 0.1765
 IR Inten    --      0.4643                17.0747                24.1424

                     13                     14                     15
                      A                      A                      A
 Frequencies --    346.0854               453.3969               517.1671
 Red. masses --      3.6359                 4.2156                 3.6625
 Frc consts  --      0.2566                 0.5106                 0.5772
 IR Inten    --     13.7721                36.8011                58.5587

                     16                     17                     18
                      A                      A                      A
 Frequencies --    579.5932               592.5966               627.7303
 Red. masses --      2.4433                 2.2913                 2.9806
 Frc consts  --      0.4836                 0.4741                 0.6920
 IR Inten    --     19.8778                 3.1576                56.4803

                     19                     20                     21
                      A                      A                      A
 Frequencies --    706.4273               767.4614               830.9755
 Red. masses --      1.5548                 1.4998                 3.3531
 Frc consts  --      0.4571                 0.5205                 1.3642
 IR Inten    --     86.9523               116.8172                29.2345

                     22                     23                     24
                      A                      A                      A
 Frequencies --    998.2979              1008.7454              1038.7325
 Red. masses --      1.1193                 1.5159                 1.3742
 Frc consts  --      0.6572                 0.9088                 0.8736
 IR Inten    --     12.4539                63.5772               135.4285

                     25                     26                     27
                      A                      A                      A
 Frequencies --   1039.9872              1044.6791              1066.9364
 Red. masses --      1.6628                 1.4890                 1.5540
 Frc consts  --      1.0596                 0.9575                 1.0423
 IR Inten    --     13.2081                34.1837                65.6061

                     28                     29                     30
                      A                      A                      A
 Frequencies --   1083.4650              1126.9424              1226.0446
 Red. masses --      3.5713                 2.9625                 1.3947
 Frc consts  --      2.4701                 2.2167                 1.2352
 IR Inten    --      4.5293                78.8702                33.9654

                     31                     32                     33
                      A                      A                      A
 Frequencies --   1280.7603              1326.1435              1340.1413
 Red. masses --      1.5206                 2.8069                 1.3217
 Frc consts  --      1.4696                 2.9084                 1.3986
 IR Inten    --    485.1574               164.5885                 1.6465

                     34                     35                     36
                      A                      A                      A
 Frequencies --   1394.2476              1419.2087              1452.6679
 Red. masses --      1.4285                 1.2407                 1.1911
 Frc consts  --      1.6361                 1.4723                 1.4809
 IR Inten    --     84.3992                10.9817                73.3100

                     37                     38                     39
                      A                      A                      A
 Frequencies --   1458.0404              1480.3301              1480.3901
 Red. masses --      1.0894                 1.1256                 1.0807
 Frc consts  --      1.3645                 1.4532                 1.3954
 IR Inten    --    102.4751                80.8110                24.6216

                     40                     41                     42
                      A                      A                      A
 Frequencies --   1484.7368              1497.2843              1506.9856
 Red. masses --      1.0963                 1.0462                 2.0569
 Frc consts  --      1.4239                 1.3820                 2.7522
 IR Inten    --     32.7229                18.9935               473.2988

                     43                     44                     45
                      A                      A                      A
 Frequencies --   1508.4895              1628.2537              1643.1467
 Red. masses --      1.1622                 6.6929                 1.1175
 Frc consts  --      1.5581                10.4547                 1.7777
 IR Inten    --    171.4404               903.9464                36.9819

                     46                     47                     48
                      A                      A                      A
 Frequencies --   3065.1646              3067.2583              3072.1837
 Red. masses --      1.0346                 1.0371                 1.0355
 Frc consts  --      5.7268                 5.7488                 5.7581
 IR Inten    --     34.7763                 9.0974                 9.7551

                     49                     50                     51
                      A                      A                      A
 Frequencies --   3140.6935              3142.8398              3150.8457
 Red. masses --      1.0984                 1.1032                 1.1024
 Frc consts  --      6.3833                 6.4204                 6.4484
 IR Inten    --     20.0961                 4.3634                11.9097

                     52                     53                     54
                      A                      A                      A
 Frequencies --   3161.7271              3162.7081              3171.5118
 Red. masses --      1.1043                 1.1041                 1.1051
 Frc consts  --      6.5042                 6.5072                 6.5489
 IR Inten    --     17.9913                37.1150                11.1936

                     55                     56                     57
                      A                      A                      A
 Frequencies --   3178.8474              3524.8484              3607.3087
 Red. masses --      1.0869                 1.0512                 1.0960
 Frc consts  --      6.4711                 7.6948                 8.4030
 IR Inten    --     14.2076                42.9399                51.1218

 - Thermochemistry -
 -------------------
 Temperature   298.150 Kelvin.  Pressure   1.00000 Atm.
 Atom     1 has atomic number  6 and mass  12.00000

 Molecular mass:   149.06074 amu.
 Principal axes and moments of inertia in atomic units:
                           1         2         3
     Eigenvalues --  1185.104121767.695652173.18163
           X            0.99378  -0.10515  -0.03670
           Y            0.10419   0.99418  -0.02728
           Z            0.03935   0.02328   0.99895
 This molecule is an asymmetric top.
 Rotational symmetry number  1.
 Warning -- assumption of classical behavior for rotation
           may cause significant error
 Rotational temperatures (Kelvin)      0.07309     0.04900     0.03986
 Rotational constants (GHZ):           1.52285     1.02096     0.83046
    1 imaginary frequencies ignored.
 Zero-point vibrational energy     464216.0 (Joules/Mol)
                                  110.95029 (Kcal/Mol)
 Warning -- explicit consideration of  16 degrees of freedom as
           vibrations may cause significant error
 Vibrational temperatures:     77.62   107.06   159.75   239.98   266.81
          (Kelvin)            287.89   324.66   380.68   420.47   447.76
                              465.33   497.94   652.34   744.09   833.91
                              852.61   903.16  1016.39  1104.21  1195.59
                             1436.33  1451.36  1494.50  1496.31  1503.06
                             1535.08  1558.86  1621.42  1764.00  1842.73
                             1908.02  1928.16  2006.01  2041.92  2090.07
                             2097.79  2129.86  2129.95  2136.21  2154.26
                             2168.22  2170.38  2342.69  2364.12  4410.09
                             4413.10  4420.19  4518.76  4521.85  4533.36
                             4549.02  4550.43  4563.10  4573.65  5071.47
                             5190.11

 Zero-point correction=                           0.176811 (Hartree/Particle)
 Thermal correction to Energy=                    0.187884
 Thermal correction to Enthalpy=                  0.188828
 Thermal correction to Gibbs Free Energy=         0.139973
 Sum of electronic and zero-point Energies=           -825.857878
 Sum of electronic and thermal Energies=              -825.846804
 Sum of electronic and thermal Enthalpies=            -825.845860
 Sum of electronic and thermal Free Energies=         -825.894716

                     E (Thermal)             CV                S
                      KCal/Mol        Cal/Mol-Kelvin    Cal/Mol-Kelvin
 Total                  117.899             39.464            102.826
 Electronic               0.000              0.000              0.000
 Translational            0.889              2.981             40.908
 Rotational               0.889              2.981             29.900
 Vibrational            116.122             33.503             32.018
 Vibration     1          0.596              1.976              4.667
 Vibration     2          0.599              1.966              4.033
 Vibration     3          0.607              1.940              3.251
 Vibration     4          0.624              1.883              2.471
 Vibration     5          0.632              1.860              2.273
 Vibration     6          0.638              1.840              2.132
 Vibration     7          0.650              1.802              1.913
 Vibration     8          0.671              1.738              1.631
 Vibration     9          0.688              1.688              1.461
 Vibration    10          0.700              1.652              1.356
 Vibration    11          0.708              1.629              1.293
 Vibration    12          0.724              1.583              1.184
 Vibration    13          0.812              1.353              0.786
 Vibration    14          0.872              1.212              0.617
 Vibration    15          0.936              1.075              0.486
 Vibration    16          0.950              1.048              0.463

 Optimization completed.
    -- Stationary point found.
 Normal termination of Gaussian 16 at Mon Feb 15 19:50:56 2021.
