 Gaussian 16, Revision A.03,
 Gaussian 16:  ES64L-G16RevA.03 25-Dec-2016

 ----------------------------------------------------------------------
 # wB97XD def2tzvp, opt=(ts, noeigen, calcfc, maxcycles=70, maxstep=1),
  freq=noraman, scrf=(iefpcm, solvent=water)
 ----------------------------------------------------------------------

 ------------------------
 0_iteration/TS-545-0.out
 ------------------------
 Symbolic Z-matrix:
 Charge =  0 Multiplicity = 1

 SCF Done:  E(RwB97XD) =  -5474.32858979     A.U. after   15 cycles
 SCF Done:  E(RwB97XD) =  -5474.32853953     A.U. after   10 cycles
 SCF Done:  E(RwB97XD) =  -5474.32849250     A.U. after   10 cycles
 SCF Done:  E(RwB97XD) =  -5474.32844886     A.U. after   10 cycles
 SCF Done:  E(RwB97XD) =  -5474.32840865     A.U. after   10 cycles
 SCF Done:  E(RwB97XD) =  -5474.32837192     A.U. after   10 cycles
 SCF Done:  E(RwB97XD) =  -5474.32833871     A.U. after   10 cycles
 SCF Done:  E(RwB97XD) =  -5474.32830905     A.U. after   10 cycles
 SCF Done:  E(RwB97XD) =  -5474.32828301     A.U. after   10 cycles
 SCF Done:  E(RwB97XD) =  -5474.32826067     A.U. after   10 cycles
 SCF Done:  E(RwB97XD) =  -5474.33148950     A.U. after   10 cycles
 SCF Done:  E(RwB97XD) =  -5474.33151365     A.U. after   10 cycles
 SCF Done:  E(RwB97XD) =  -5474.33151966     A.U. after   10 cycles
 SCF Done:  E(RwB97XD) =  -5474.33152005     A.U. after    8 cycles
 SCF Done:  E(RwB97XD) =  -5474.33152000     A.U. after    8 cycles
 SCF Done:  E(RwB97XD) =  -5474.33151996     A.U. after    7 cycles
 SCF Done:  E(RwB97XD) =  -5474.33151990     A.U. after    8 cycles
 SCF Done:  E(RwB97XD) =  -5474.33151997     A.U. after    8 cycles
 SCF Done:  E(RwB97XD) =  -5474.33151997     A.U. after    9 cycles
 Optimization completed.
    -- Stationary point found.
 Normal termination of Gaussian 16 at Mon Feb 15 20:52:19 2021.

 ---------------------------------------------------------------------
 #N Geom=AllCheck Guess=TCheck SCRF=Check GenChk RwB97XD/def2TZVP Freq
 ---------------------------------------------------------------------

 Structure from the checkpoint file:  "/beegfs/scratch/user/q/tla25/Gau-5096.chk"
 ------------------------
 0_iteration/TS-545-0.out
 ------------------------
 Charge =  0 Multiplicity = 1

                         Standard orientation:
 ---------------------------------------------------------------------
 Center     Atomic      Atomic             Coordinates (Angstroms)
 Number     Number       Type             X           Y           Z
 ---------------------------------------------------------------------
      1          6           0       -0.720594   -0.436426    0.046560
      2          6           0       -0.832568   -1.647971    0.777449
      3          8           0       -1.866930   -2.180190    1.167535
      4          6           0        0.461660    0.212344   -0.309751
      5          6           0        2.084983    2.278710    1.183007
      6          1           0        1.847696    3.064083    0.469047
      7          1           0        2.276356    2.732799    2.156255
      8          1           0        2.980611    1.753820    0.854166
      9          7           0        0.972816    1.331423    1.246632
     10          1           0        1.122636    0.631500    1.964720
     11          1           0        0.099317    1.800850    1.460178
     12          6           0        0.513058    1.273518   -1.369577
     13          1           0       -0.196173    2.070292   -1.153872
     14          1           0        1.511635    1.693476   -1.458052
     15          1           0        0.241738    0.822021   -2.325201
     16         35           0        2.051708   -0.898447   -0.383663
     17         35           0       -2.364101    0.487105   -0.273044
     18          1           0        0.136459   -2.131376    0.984654
 ---------------------------------------------------------------------

 SCF Done:  E(RwB97XD) =  -5474.33151997     A.U. after    1 cycles

 The electronic state is 1-A.
 Alpha  occ. eigenvalues -- -483.14190-483.12692 -62.69037 -62.67529 -56.48161
 Alpha  occ. eigenvalues --  -56.47797 -56.47781 -56.46638 -56.46296 -56.46286
 Alpha  occ. eigenvalues --  -19.21991 -14.48760 -10.41554 -10.35796 -10.32056
 Alpha  occ. eigenvalues --  -10.31840 -10.29769  -8.83145  -8.81645  -6.65320
 Alpha  occ. eigenvalues --   -6.64163  -6.64112  -6.63775  -6.62677  -6.62647
 Alpha  occ. eigenvalues --   -2.75702  -2.75377  -2.75338  -2.74402  -2.74401
 Alpha  occ. eigenvalues --   -2.74169  -2.73849  -2.73825  -2.72937  -2.72937
 Alpha  occ. eigenvalues --   -1.12410  -1.04282  -0.96541  -0.90042  -0.84612
 Alpha  occ. eigenvalues --   -0.81637  -0.79136  -0.71012  -0.63511  -0.61717
 Alpha  occ. eigenvalues --   -0.59387  -0.56498  -0.55998  -0.54134  -0.50625
 Alpha  occ. eigenvalues --   -0.49811  -0.49330  -0.48426  -0.47914  -0.44600
 Alpha  occ. eigenvalues --   -0.43527  -0.39587  -0.39170  -0.37889  -0.36846
 Alpha  occ. eigenvalues --   -0.33235  -0.28771
 Alpha virt. eigenvalues --    0.02055   0.03360   0.09547   0.10084   0.12830
 Alpha virt. eigenvalues --    0.13771   0.14899   0.16112   0.17991   0.18159
 Alpha virt. eigenvalues --    0.18970   0.19978   0.20182   0.21019   0.22450

 Mulliken charges:
               1
     1  C   -0.067970
     2  C    0.056486
     3  O   -0.476256
     4  C    0.085313
     5  C   -0.292214
     6  H    0.163971
     7  H    0.159247
     8  H    0.155061
     9  N   -0.356221
    10  H    0.288559
    11  H    0.285230
    12  C   -0.392670
    13  H    0.161033
    14  H    0.166343
    15  H    0.170118
    16  Br  -0.070942
    17  Br  -0.133507
    18  H    0.098417
 Sum of Mulliken charges =   0.00000

 Dipole moment (field-independent basis, Debye):
    X=              8.0135    Y=              8.1192    Z=              0.9411  Tot=             11.4465
 Quadrupole moment (field-independent basis, Debye-Ang):
   XX=            -88.8303   YY=            -79.8095   ZZ=            -75.2014
   XY=             -4.5367   XZ=              8.3356   YZ=              8.0609

  Exact polarizability: 204.599  15.630 173.875  -1.051  -5.608 128.653
 Approx polarizability: 158.320   6.783 141.104  -1.578  -4.944 111.915

 ******    1 imaginary frequencies (negative Signs) ******

                      1                      2                      3
                      A                      A                      A
 Frequencies --   -338.8382                44.1957                57.0652
 Red. masses --      6.2012                 4.7169                 2.4842
 Frc consts  --      0.4195                 0.0054                 0.0048
 IR Inten    --    922.7316                 0.0717                 2.2140

                      4                      5                      6
                      A                      A                      A
 Frequencies --     92.9248               155.2716               177.6979
 Red. masses --      4.2117                 2.6015                 3.3323
 Frc consts  --      0.0214                 0.0370                 0.0620
 IR Inten    --      7.6510                11.7310                 2.6091

                      7                      8                      9
                      A                      A                      A
 Frequencies --    188.1886               209.7397               215.1877
 Red. masses --      6.2397                 2.3549                 4.0588
 Frc consts  --      0.1302                 0.0610                 0.1107
 IR Inten    --      8.6596                 2.6661                 1.9505

                     10                     11                     12
                      A                      A                      A
 Frequencies --    248.2306               259.8895               302.2281
 Red. masses --      3.1981                 1.4074                 2.4759
 Frc consts  --      0.1161                 0.0560                 0.1332
 IR Inten    --      4.5105                 1.8758                17.3766

                     13                     14                     15
                      A                      A                      A
 Frequencies --    329.3079               364.2216               483.3647
 Red. masses --      1.9946                 3.2171                 4.6848
 Frc consts  --      0.1274                 0.2514                 0.6449
 IR Inten    --      6.6393                 4.9399               118.8532

                     16                     17                     18
                      A                      A                      A
 Frequencies --    516.5492               592.4674               639.3132
 Red. masses --      4.2774                 6.3929                 1.5985
 Frc consts  --      0.6724                 1.3221                 0.3849
 IR Inten    --     81.6413                57.7184                24.1037

                     19                     20                     21
                      A                      A                      A
 Frequencies --    716.0558              1011.9564              1018.1789
 Red. masses --      2.9350                 1.2060                 1.6363
 Frc consts  --      0.8867                 0.7276                 0.9995
 IR Inten    --    140.0188                 6.4609                10.9887

                     22                     23                     24
                      A                      A                      A
 Frequencies --   1025.6098              1046.3868              1052.9845
 Red. masses --      1.6465                 1.3688                 1.5619
 Frc consts  --      1.0204                 0.8831                 1.0203
 IR Inten    --    227.0812                 7.8989               122.4268

                     25                     26                     27
                      A                      A                      A
 Frequencies --   1075.7077              1107.2157              1227.9625
 Red. masses --      2.7236                 2.9843                 1.4290
 Frc consts  --      1.8569                 2.1555                 1.2695
 IR Inten    --     82.9178                45.3448                22.8080

                     28                     29                     30
                      A                      A                      A
 Frequencies --   1236.9565              1348.5661              1384.7253
 Red. masses --      3.7103                 1.3085                 1.9611
 Frc consts  --      3.3448                 1.4021                 2.2155
 IR Inten    --     95.8592                 9.7147               689.0836

                     31                     32                     33
                      A                      A                      A
 Frequencies --   1418.9905              1455.6910              1471.5139
 Red. masses --      1.2622                 1.2108                 1.3218
 Frc consts  --      1.4974                 1.5117                 1.6864
 IR Inten    --     54.3694                36.0716               142.3705

                     34                     35                     36
                      A                      A                      A
 Frequencies --   1477.5590              1485.5987              1496.5855
 Red. masses --      1.0949                 1.3867                 1.0885
 Frc consts  --      1.4083                 1.8032                 1.4364
 IR Inten    --     31.8140               227.3835                47.0239

                     37                     38                     39
                      A                      A                      A
 Frequencies --   1504.9355              1638.1590              1681.5240
 Red. masses --      1.0314                 1.0898                 8.6176
 Frc consts  --      1.3763                 1.7231                14.3562
 IR Inten    --     17.4656                80.2570               954.0568

                     40                     41                     42
                      A                      A                      A
 Frequencies --   2987.6361              3067.4047              3076.1673
 Red. masses --      1.0824                 1.0352                 1.0374
 Frc consts  --      5.6923                 5.7387                 5.7836
 IR Inten    --     72.0854                45.7100                 2.9270

                     43                     44                     45
                      A                      A                      A
 Frequencies --   3144.6971              3154.0691              3171.7779
 Red. masses --      1.1028                 1.1006                 1.1057
 Frc consts  --      6.4252                 6.4507                 6.5539
 IR Inten    --     12.1801                 5.7159                13.8472

                     46                     47                     48
                      A                      A                      A
 Frequencies --   3179.3705              3515.9790              3598.0546
 Red. masses --      1.1036                 1.0513                 1.0961
 Frc consts  --      6.5729                 7.6574                 8.3609
 IR Inten    --      7.2666                22.3251                42.8390

 - Thermochemistry -
 -------------------
 Temperature   298.150 Kelvin.  Pressure   1.00000 Atm.
 Atom     1 has atomic number  6 and mass  12.00000

 Molecular mass:   256.90509 amu.
 Principal axes and moments of inertia in atomic units:
                           1         2         3
     Eigenvalues --  1649.650533818.057934539.77225
           X            0.99686   0.07808   0.01315
           Y           -0.07828   0.99682   0.01489
           Z           -0.01194  -0.01587   0.99980
 This molecule is an asymmetric top.
 Rotational symmetry number  1.
 Warning -- assumption of classical behavior for rotation
           may cause significant error
 Rotational temperatures (Kelvin)      0.05250     0.02269     0.01908
 Rotational constants (GHZ):           1.09401     0.47269     0.39754
    1 imaginary frequencies ignored.
 Zero-point vibrational energy     362790.7 (Joules/Mol)
                                   86.70905 (Kcal/Mol)
 Warning -- explicit consideration of  16 degrees of freedom as
           vibrations may cause significant error
 Vibrational temperatures:     63.59    82.10   133.70   223.40   255.67
          (Kelvin)            270.76   301.77   309.61   357.15   373.92
                              434.84   473.80   524.03   695.45   743.20
                              852.43   919.83  1030.24  1455.98  1464.93
                             1475.62  1505.52  1515.01  1547.70  1593.04
                             1766.76  1779.70  1940.29  1992.31  2041.61
                             2094.41  2117.18  2125.88  2137.45  2153.25
                             2165.27  2356.95  2419.34  4298.54  4413.31
                             4425.92  4524.52  4538.00  4563.48  4574.40
                             5058.71  5176.80

 Zero-point correction=                           0.138180 (Hartree/Particle)
 Thermal correction to Energy=                    0.149595
 Thermal correction to Enthalpy=                  0.150539
 Thermal correction to Gibbs Free Energy=         0.098695
 Sum of electronic and zero-point Energies=          -5474.193340
 Sum of electronic and thermal Energies=             -5474.181925
 Sum of electronic and thermal Enthalpies=           -5474.180981
 Sum of electronic and thermal Free Energies=        -5474.232825

                     E (Thermal)             CV                S
                      KCal/Mol        Cal/Mol-Kelvin    Cal/Mol-Kelvin
 Total                   93.872             38.348            109.116
 Electronic               0.000              0.000              0.000
 Translational            0.889              2.981             42.531
 Rotational               0.889              2.981             31.725
 Vibrational             92.095             32.386             34.861
 Vibration     1          0.595              1.980              5.062
 Vibration     2          0.596              1.975              4.556
 Vibration     3          0.602              1.954              3.598
 Vibration     4          0.620              1.897              2.607
 Vibration     5          0.628              1.870              2.352
 Vibration     6          0.633              1.856              2.246
 Vibration     7          0.642              1.826              2.046
 Vibration     8          0.645              1.818              1.999
 Vibration     9          0.662              1.766              1.743
 Vibration    10          0.668              1.746              1.663
 Vibration    11          0.694              1.669              1.405
 Vibration    12          0.712              1.617              1.263
 Vibration    13          0.738              1.546              1.104
 Vibration    14          0.840              1.287              0.701
 Vibration    15          0.872              1.213              0.618
 Vibration    16          0.950              1.048              0.463

 Optimization completed.
    -- Stationary point found.
 Normal termination of Gaussian 16 at Mon Feb 15 21:03:57 2021.
