 Gaussian 16, Revision A.03,
 Gaussian 16:  ES64L-G16RevA.03 25-Dec-2016

 ----------------------------------------------------------------------
 # wB97XD def2tzvp, opt=(ts, noeigen, calcfc, maxcycles=70, maxstep=8),
  freq=noraman, scrf=(iefpcm, solvent=water)
 ----------------------------------------------------------------------

 -----------------------
 1_iteration/TS-56-1.out
 -----------------------
 Symbolic Z-matrix:
 Charge =  0 Multiplicity = 1

 SCF Done:  E(RwB97XD) =  -749.902606576     A.U. after   15 cycles
 SCF Done:  E(RwB97XD) =  -749.903432524     A.U. after   12 cycles
 SCF Done:  E(RwB97XD) =  -749.904383745     A.U. after   12 cycles
 SCF Done:  E(RwB97XD) =  -749.904881702     A.U. after   12 cycles
 SCF Done:  E(RwB97XD) =  -749.904914493     A.U. after   12 cycles
 SCF Done:  E(RwB97XD) =  -749.904915592     A.U. after   10 cycles
 SCF Done:  E(RwB97XD) =  -749.904915716     A.U. after    7 cycles
 Optimization completed.
    -- Stationary point found.
 Normal termination of Gaussian 16 at Sun Jan 31 04:48:43 2021.

 ---------------------------------------------------------------------
 #N Geom=AllCheck Guess=TCheck SCRF=Check GenChk RwB97XD/def2TZVP Freq
 ---------------------------------------------------------------------

 Structure from the checkpoint file:  "/beegfs/scratch/user/q/tla25/Gau-9378.chk"
 -----------------------
 1_iteration/TS-56-1.out
 -----------------------
 Charge =  0 Multiplicity = 1

                         Standard orientation:
 ---------------------------------------------------------------------
 Center     Atomic      Atomic             Coordinates (Angstroms)
 Number     Number       Type             X           Y           Z
 ---------------------------------------------------------------------
      1          6           0        0.214960   -0.077942   -0.104006
      2          6           0        1.384742    0.662879   -0.402137
      3          8           0        1.355927    1.840139   -0.812373
      4          6           0       -1.031298    0.477034   -0.393180
      5          6           0       -2.492147    2.812024    0.658871
      6          1           0       -2.511527    3.682252    1.317662
      7          1           0       -2.493568    3.155012   -0.375735
      8          1           0       -3.389491    2.218310    0.827627
      9          7           0       -1.319431    1.977828    0.877929
     10          1           0       -0.449797    2.472495    0.712996
     11          1           0       -1.295568    1.568089    1.802959
     12          6           0       -2.287602   -0.284667   -0.220819
     13          6           0       -2.471655   -1.160726    0.848397
     14          6           0       -3.659313   -1.858204    0.989861
     15          6           0       -4.681794   -1.692128    0.063756
     16          6           0       -4.511603   -0.818595   -0.999461
     17          6           0       -3.323910   -0.114798   -1.135234
     18          1           0       -1.684124   -1.289689    1.580760
     19          1           0       -3.790500   -2.532651    1.826533
     20          1           0       -5.609303   -2.239200    0.175184
     21          1           0       -5.305192   -0.680491   -1.722699
     22          1           0       -3.195711    0.572656   -1.962962
     23          1           0       -1.053349    1.192701   -1.208565
     24          1           0        0.283021   -1.009909    0.437501
     25          6           0        2.727002    0.016204   -0.180423
     26          6           0        3.836834    0.828616    0.039167
     27          6           0        5.090657    0.275831    0.245753
     28          6           0        5.254918   -1.102783    0.221990
     29          6           0        4.158441   -1.921761   -0.008028
     30          6           0        2.902825   -1.365828   -0.203470
     31          1           0        3.701098    1.902343    0.047143
     32          1           0        5.942373    0.920262    0.424704
     33          1           0        6.234436   -1.537014    0.378455
     34          1           0        4.281476   -2.997121   -0.039084
     35          1           0        2.057979   -2.014889   -0.395224
 ---------------------------------------------------------------------

 SCF Done:  E(RwB97XD) =  -749.904915716     A.U. after    1 cycles

 The electronic state is 1-A.
 Alpha  occ. eigenvalues --  -19.20220 -14.46775 -10.34802 -10.33589 -10.31321
 Alpha  occ. eigenvalues --  -10.30469 -10.29504 -10.29472 -10.29414 -10.29362
 Alpha  occ. eigenvalues --  -10.29324 -10.29311 -10.29122 -10.29103 -10.28976
 Alpha  occ. eigenvalues --  -10.28952 -10.28795 -10.24898  -1.10667  -1.02452
 Alpha  occ. eigenvalues --   -0.97353  -0.96460  -0.90044  -0.86461  -0.85589
 Alpha  occ. eigenvalues --   -0.85058  -0.83442  -0.78179  -0.75660  -0.71454
 Alpha  occ. eigenvalues --   -0.70845  -0.70021  -0.67278  -0.63282  -0.62731
 Alpha  occ. eigenvalues --   -0.60598  -0.60001  -0.56584  -0.55998  -0.55113
 Alpha  occ. eigenvalues --   -0.54463  -0.54040  -0.53339  -0.52612  -0.51349
 Alpha  occ. eigenvalues --   -0.50936  -0.50252  -0.49888  -0.48096  -0.47549
 Alpha  occ. eigenvalues --   -0.47102  -0.45826  -0.44969  -0.44126  -0.43040
 Alpha  occ. eigenvalues --   -0.42797  -0.42194  -0.41720  -0.34219  -0.33847
 Alpha  occ. eigenvalues --   -0.33746  -0.33451  -0.32185  -0.27559
 Alpha virt. eigenvalues --    0.00357   0.04387   0.04906   0.05383   0.09873
 Alpha virt. eigenvalues --    0.10861   0.13031   0.13428   0.13570   0.14611
 Alpha virt. eigenvalues --    0.15688   0.16259   0.16894   0.17302   0.17505

 Mulliken charges:
               1
     1  C   -0.392314
     2  C    0.342226
     3  O   -0.558684
     4  C   -0.061364
     5  C   -0.282016
     6  H    0.150189
     7  H    0.147180
     8  H    0.152844
     9  N   -0.353460
    10  H    0.273802
    11  H    0.269682
    12  C    0.246867
    13  C   -0.242747
    14  C   -0.147348
    15  C   -0.140991
    16  C   -0.130058
    17  C   -0.246260
    18  H    0.154367
    19  H    0.145054
    20  H    0.147291
    21  H    0.145176
    22  H    0.145266
    23  H    0.148313
    24  H    0.145867
    25  C    0.127587
    26  C   -0.239515
    27  C   -0.131401
    28  C   -0.139228
    29  C   -0.146416
    30  C   -0.243489
    31  H    0.136479
    32  H    0.141936
    33  H    0.144888
    34  H    0.142099
    35  H    0.148177
 Sum of Mulliken charges =  -0.00000

 Dipole moment (field-independent basis, Debye):
    X=             -5.9586    Y=             -0.0488    Z=              4.0766  Tot=              7.2199
 Quadrupole moment (field-independent basis, Debye-Ang):
   XX=            -89.1164   YY=            -98.5234   ZZ=           -105.4565
   XY=             -9.7299   XZ=              3.3682   YZ=              3.9058

  Exact polarizability: 398.237   5.635 276.827   7.469 -14.741 203.571
 Approx polarizability: 274.148   8.167 231.459   9.662 -15.274 180.005

 ******    1 imaginary frequencies (negative Signs) ******

                      1                      2                      3
                      A                      A                      A
 Frequencies --   -342.6185                31.9285                37.7366
 Red. masses --      6.2949                 3.7786                 4.5559
 Frc consts  --      0.4354                 0.0023                 0.0038
 IR Inten    --    913.2109                 0.4562                 2.4465

                      4                      5                      6
                      A                      A                      A
 Frequencies --     49.6859                55.5205                69.8508
 Red. masses --      3.0967                 4.7997                 3.3575
 Frc consts  --      0.0045                 0.0087                 0.0097
 IR Inten    --      2.0051                 1.8811                 5.3069

                      7                      8                      9
                      A                      A                      A
 Frequencies --     90.2976               115.6720               151.1036
 Red. masses --      5.7317                 1.9751                 2.2152
 Frc consts  --      0.0275                 0.0156                 0.0298
 IR Inten    --     11.9996                11.7222                 6.0543

                     10                     11                     12
                      A                      A                      A
 Frequencies --    167.7155               185.9689               210.5431
 Red. masses --      3.9255                 1.8134                 3.9700
 Frc consts  --      0.0651                 0.0370                 0.1037
 IR Inten    --      1.8425                 7.2354                22.5914

                     13                     14                     15
                      A                      A                      A
 Frequencies --    230.8095               286.0127               313.0249
 Red. masses --      4.9242                 4.7071                 4.0892
 Frc consts  --      0.1546                 0.2269                 0.2361
 IR Inten    --      1.7206                23.3515                 0.1550

                     16                     17                     18
                      A                      A                      A
 Frequencies --    353.8402               421.1310               422.9703
 Red. masses --      5.0059                 2.8660                 2.8660
 Frc consts  --      0.3693                 0.2995                 0.3021
 IR Inten    --     19.7235                 0.3264                 0.8986

                     19                     20                     21
                      A                      A                      A
 Frequencies --    438.7291               481.2512               543.6036
 Red. masses --      4.5065                 4.5284                 2.3440
 Frc consts  --      0.5111                 0.6179                 0.4081
 IR Inten    --     23.0524                20.1136                85.4417

                     22                     23                     24
                      A                      A                      A
 Frequencies --    567.5518               574.3541               635.9816
 Red. masses --      3.4442                 2.9907                 6.4073
 Frc consts  --      0.6537                 0.5813                 1.5269
 IR Inten    --      8.0640                 4.5501                 0.8297

                     25                     26                     27
                      A                      A                      A
 Frequencies --    637.5086               664.3759               687.2862
 Red. masses --      5.4293                 1.9556                 5.9516
 Frc consts  --      1.3001                 0.5086                 1.6564
 IR Inten    --      6.7898               146.1295                 2.5860

                     28                     29                     30
                      A                      A                      A
 Frequencies --    717.0203               722.0393               729.0141
 Red. masses --      2.0673                 1.7063                 1.3991
 Frc consts  --      0.6262                 0.5241                 0.4381
 IR Inten    --     24.2313                60.2793                68.3927

                     31                     32                     33
                      A                      A                      A
 Frequencies --    748.3426               804.0197               820.8321
 Red. masses --      1.7687                 2.0948                 4.7758
 Frc consts  --      0.5836                 0.7979                 1.8958
 IR Inten    --    308.2189                 1.3260                20.4395

                     34                     35                     36
                      A                      A                      A
 Frequencies --    835.7958               880.0324               881.3718
 Red. masses --      3.1018                 1.2485                 1.2496
 Frc consts  --      1.2766                 0.5697                 0.5719
 IR Inten    --     10.0546                 0.2421                 0.4952

                     37                     38                     39
                      A                      A                      A
 Frequencies --    922.5759               965.5140               971.5556
 Red. masses --      3.6902                 1.4522                 1.4840
 Frc consts  --      1.8506                 0.7976                 0.8253
 IR Inten    --     17.4305                 0.6029                 3.3231

                     40                     41                     42
                      A                      A                      A
 Frequencies --    992.8534              1016.2409              1017.3352
 Red. masses --      1.1145                 1.2712                 1.3718
 Frc consts  --      0.6473                 0.7735                 0.8365
 IR Inten    --     64.5882                44.4083                 7.0677

                     43                     44                     45
                      A                      A                      A
 Frequencies --   1018.5519              1025.8128              1027.0175
 Red. masses --      1.2122                 5.7948                 5.6917
 Frc consts  --      0.7409                 3.5927                 3.5371
 IR Inten    --     51.9811                 1.3202                 2.0884

                     46                     47                     48
                      A                      A                      A
 Frequencies --   1032.6287              1034.3623              1056.9608
 Red. masses --      1.3161                 1.3173                 2.2430
 Frc consts  --      0.8269                 0.8304                 1.4764
 IR Inten    --      0.8702                 0.0517                26.0289

                     49                     50                     51
                      A                      A                      A
 Frequencies --   1062.4267              1077.4395              1101.8634
 Red. masses --      2.1704                 3.9015                 1.6985
 Frc consts  --      1.4434                 2.6685                 1.2150
 IR Inten    --     16.2545               223.9299                35.9092

                     52                     53                     54
                      A                      A                      A
 Frequencies --   1112.2589              1122.1274              1162.2234
 Red. masses --      1.7362                 2.1219                 1.2440
 Frc consts  --      1.2655                 1.5742                 0.9900
 IR Inten    --     10.8666                 7.3853               265.4700

                     55                     56                     57
                      A                      A                      A
 Frequencies --   1183.1669              1185.2955              1192.1614
 Red. masses --      1.1383                 1.1348                 1.4259
 Frc consts  --      0.9388                 0.9393                 1.1940
 IR Inten    --      0.6992                 2.8148                24.3225

                     58                     59                     60
                      A                      A                      A
 Frequencies --   1199.5905              1211.2980              1224.1733
 Red. masses --      1.1574                 1.1299                 2.1514
 Frc consts  --      0.9813                 0.9768                 1.8996
 IR Inten    --     12.7182                 1.3812                47.9983

                     61                     62                     63
                      A                      A                      A
 Frequencies --   1244.2749              1286.0909              1321.8627
 Red. masses --      1.9442                 1.4587                 3.7248
 Frc consts  --      1.7735                 1.4215                 3.8346
 IR Inten    --     75.2245               260.8304                 1.7051

                     64                     65                     66
                      A                      A                      A
 Frequencies --   1330.5202              1345.2773              1349.2276
 Red. masses --      3.6172                 1.3702                 1.7520
 Frc consts  --      3.7728                 1.4610                 1.8791
 IR Inten    --     18.1954                 4.8079                13.9236

                     67                     68                     69
                      A                      A                      A
 Frequencies --   1362.8063              1389.0374              1460.2664
 Red. masses --      1.7521                 2.0343                 1.1963
 Frc consts  --      1.9173                 2.3126                 1.5030
 IR Inten    --      8.3687                70.7818                39.2452

                     70                     71                     72
                      A                      A                      A
 Frequencies --   1483.4256              1489.1784              1496.3515
 Red. masses --      2.2682                 1.0453                 2.2655
 Frc consts  --      2.9408                 1.3658                 2.9886
 IR Inten    --    259.4587                15.9136               149.9021

                     73                     74                     75
                      A                      A                      A
 Frequencies --   1503.8808              1523.2628              1540.5309
 Red. masses --      1.0516                 2.5306                 2.3684
 Frc consts  --      1.4013                 3.4596                 3.3117
 IR Inten    --     36.6555               904.3819               141.3403

                     76                     77                     78
                      A                      A                      A
 Frequencies --   1553.3110              1610.0095              1646.6077
 Red. masses --      2.7784                 6.2156                 1.1211
 Frc consts  --      3.9497                 9.4927                 1.7909
 IR Inten    --    288.5099               359.2570                45.7201

                     79                     80                     81
                      A                      A                      A
 Frequencies --   1654.5405              1660.0650              1672.3020
 Red. masses --      5.8651                 5.6226                 5.9678
 Frc consts  --      9.4598                 9.1292                 9.8332
 IR Inten    --     17.4071                47.1166                 8.1729

                     82                     83                     84
                      A                      A                      A
 Frequencies --   1678.3867              3055.5722              3129.7551
 Red. masses --      5.8582                 1.0352                 1.1026
 Frc consts  --      9.7230                 5.6946                 6.3635
 IR Inten    --      2.3899                68.8365                23.1150

                     85                     86                     87
                      A                      A                      A
 Frequencies --   3153.9650              3164.1711              3192.9519
 Red. masses --      1.1047                 1.0902                 1.0858
 Frc consts  --      6.4746                 6.4308                 6.5219
 IR Inten    --     20.6849                14.3319                 1.0901

                     88                     89                     90
                      A                      A                      A
 Frequencies --   3193.5943              3197.4246              3200.4748
 Red. masses --      1.0867                 1.0882                 1.0887
 Frc consts  --      6.5301                 6.5547                 6.5701
 IR Inten    --      5.4347                 1.1402                 6.6355

                     91                     92                     93
                      A                      A                      A
 Frequencies --   3205.1254              3209.7299              3214.0285
 Red. masses --      1.0913                 1.0920                 1.0951
 Frc consts  --      6.6052                 6.6287                 6.6652
 IR Inten    --      8.9518                19.3251                34.9316

                     94                     95                     96
                      A                      A                      A
 Frequencies --   3216.7641              3222.2929              3223.5537
 Red. masses --      1.0943                 1.0978                 1.0988
 Frc consts  --      6.6713                 6.7161                 6.7275
 IR Inten    --     26.2267                18.2062                18.3687

                     97                     98                     99
                      A                      A                      A
 Frequencies --   3232.2259              3523.1524              3615.9391
 Red. masses --      1.0891                 1.0511                 1.0965
 Frc consts  --      6.7036                 7.6873                 8.4473
 IR Inten    --      8.7403                18.6785                47.1790

 - Thermochemistry -
 -------------------
 Temperature   298.150 Kelvin.  Pressure   1.00000 Atm.
 Atom     1 has atomic number  6 and mass  12.00000

 Molecular mass:   239.13101 amu.
 Principal axes and moments of inertia in atomic units:
                           1         2         3
     Eigenvalues --  2069.464629451.79217**********
           X            0.99996  -0.00834   0.00092
           Y            0.00833   0.99995   0.00539
           Z           -0.00096  -0.00539   0.99999
 This molecule is an asymmetric top.
 Rotational symmetry number  1.
 Warning -- assumption of classical behavior for rotation
           may cause significant error
 Rotational temperatures (Kelvin)      0.04185     0.00916     0.00803
 Rotational constants (GHZ):           0.87208     0.19094     0.16726
    1 imaginary frequencies ignored.
 Zero-point vibrational energy     771772.5 (Joules/Mol)
                                  184.45806 (Kcal/Mol)
 Warning -- explicit consideration of  22 degrees of freedom as
           vibrations may cause significant error
 Vibrational temperatures:     45.94    54.29    71.49    79.88   100.50
          (Kelvin)            129.92   166.43   217.40   241.31   267.57
                              302.92   332.08   411.51   450.37   509.10
                              605.91   608.56   631.23   692.41   782.12
                              816.58   826.37   915.04   917.23   955.89
                              988.85  1031.63  1038.85  1048.89  1076.70
                             1156.81  1180.99  1202.52  1266.17  1268.10
                             1327.38  1389.16  1397.85  1428.49  1462.14
                             1463.72  1465.47  1475.92  1477.65  1485.72
                             1488.22  1520.73  1528.60  1550.20  1585.34
                             1600.29  1614.49  1672.18  1702.31  1705.38
                             1715.25  1725.94  1742.79  1761.31  1790.23
                             1850.40  1901.87  1914.32  1935.55  1941.24
                             1960.77  1998.51  2101.00  2134.32  2142.60
                             2152.92  2163.75  2191.64  2216.48  2234.87
                             2316.44  2369.10  2380.51  2388.46  2406.07
                             2414.82  4396.29  4503.02  4537.85  4552.54
                             4593.95  4594.87  4600.38  4604.77  4611.46
                             4618.09  4624.27  4628.21  4636.16  4637.97
                             4650.45  5069.03  5202.53

 Zero-point correction=                           0.293953 (Hartree/Particle)
 Thermal correction to Energy=                    0.310248
 Thermal correction to Enthalpy=                  0.311192
 Thermal correction to Gibbs Free Energy=         0.247921
 Sum of electronic and zero-point Energies=           -749.610963
 Sum of electronic and thermal Energies=              -749.594668
 Sum of electronic and thermal Enthalpies=            -749.593724
 Sum of electronic and thermal Free Energies=         -749.656994

                     E (Thermal)             CV                S
                      KCal/Mol        Cal/Mol-Kelvin    Cal/Mol-Kelvin
 Total                  194.683             61.735            133.165
 Electronic               0.000              0.000              0.000
 Translational            0.889              2.981             42.317
 Rotational               0.889              2.981             33.711
 Vibrational            192.906             55.774             57.136
 Vibration     1          0.594              1.983              5.706
 Vibration     2          0.594              1.982              5.374
 Vibration     3          0.595              1.978              4.830
 Vibration     4          0.596              1.975              4.610
 Vibration     5          0.598              1.968              4.158
 Vibration     6          0.602              1.956              3.654
 Vibration     7          0.608              1.936              3.171
 Vibration     8          0.619              1.901              2.658
 Vibration     9          0.624              1.882              2.461
 Vibration    10          0.632              1.859              2.268
 Vibration    11          0.643              1.825              2.039
 Vibration    12          0.653              1.794              1.873
 Vibration    13          0.684              1.700              1.497
 Vibration    14          0.701              1.649              1.346
 Vibration    15          0.730              1.567              1.149
 Vibration    16          0.784              1.424              0.888
 Vibration    17          0.785              1.420              0.882
 Vibration    18          0.799              1.386              0.831
 Vibration    19          0.838              1.292              0.707
 Vibration    20          0.899              1.154              0.558
 Vibration    21          0.924              1.101              0.509
 Vibration    22          0.931              1.087              0.496

 Optimization completed.
    -- Stationary point found.
 Normal termination of Gaussian 16 at Sun Jan 31 06:15:21 2021.
