 Gaussian 16, Revision A.03,
 Gaussian 16:  ES64L-G16RevA.03 25-Dec-2016

 ----------------------------------------------------------------------
 # wB97XD def2tzvp, opt=(ts, noeigen, calcfc, maxcycles=70, maxstep=8),
  freq=noraman, scrf=(iefpcm, solvent=water)
 ----------------------------------------------------------------------

 ------------------------
 1_iteration/TS-511-1.out
 ------------------------
 Symbolic Z-matrix:
 Charge =  0 Multiplicity = 1

 SCF Done:  E(RwB97XD) =  -3226.46241822     A.U. after   15 cycles
 SCF Done:  E(RwB97XD) =  -3226.46500957     A.U. after   14 cycles
 SCF Done:  E(RwB97XD) =  -3226.46754564     A.U. after   14 cycles
 SCF Done:  E(RwB97XD) =  -3226.46967749     A.U. after   13 cycles
 SCF Done:  E(RwB97XD) =  -3226.47107289     A.U. after   13 cycles
 SCF Done:  E(RwB97XD) =  -3226.47147823     A.U. after   12 cycles
 SCF Done:  E(RwB97XD) =  -3226.47151624     A.U. after   11 cycles
 SCF Done:  E(RwB97XD) =  -3226.47106234     A.U. after   12 cycles
 SCF Done:  E(RwB97XD) =  -3226.47088559     A.U. after   12 cycles
 SCF Done:  E(RwB97XD) =  -3226.47065075     A.U. after   12 cycles
 SCF Done:  E(RwB97XD) =  -3226.47141078     A.U. after   12 cycles
 SCF Done:  E(RwB97XD) =  -3226.47154467     A.U. after   11 cycles
 SCF Done:  E(RwB97XD) =  -3226.47155697     A.U. after   11 cycles
 SCF Done:  E(RwB97XD) =  -3226.47156110     A.U. after   10 cycles
 SCF Done:  E(RwB97XD) =  -3226.47156159     A.U. after   10 cycles
 SCF Done:  E(RwB97XD) =  -3226.47156139     A.U. after    9 cycles
 SCF Done:  E(RwB97XD) =  -3226.47156167     A.U. after    9 cycles
 SCF Done:  E(RwB97XD) =  -3226.47156174     A.U. after    7 cycles
 SCF Done:  E(RwB97XD) =  -3226.47156175     A.U. after    6 cycles
 Optimization completed.
    -- Stationary point found.
 Normal termination of Gaussian 16 at Wed Feb 17 16:14:41 2021.

 ---------------------------------------------------------------------
 #N Geom=AllCheck Guess=TCheck SCRF=Check GenChk RwB97XD/def2TZVP Freq
 ---------------------------------------------------------------------

 Structure from the checkpoint file:  "/beegfs/scratch/user/q/tla25/Gau-30738.chk"
 ------------------------
 1_iteration/TS-511-1.out
 ------------------------
 Charge =  0 Multiplicity = 1

                         Standard orientation:
 ---------------------------------------------------------------------
 Center     Atomic      Atomic             Coordinates (Angstroms)
 Number     Number       Type             X           Y           Z
 ---------------------------------------------------------------------
      1          6           0        1.159271   -0.265947    0.398039
      2          6           0       -0.102103    0.427327    0.335120
      3          8           0       -0.166011    1.666333    0.297525
      4          6           0        2.386375    0.404568    0.580527
      5          6           0        3.693169    2.393675   -1.272490
      6          1           0        3.592775    2.908228   -2.230039
      7          1           0        3.742260    3.139181   -0.481403
      8          1           0        4.619972    1.822247   -1.276787
      9          7           0        2.569428    1.495087   -1.022985
     10          1           0        1.685496    1.991499   -0.945557
     11          1           0        2.473767    0.806895   -1.759980
     12          6           0        3.673174   -0.379492    0.519812
     13          1           0        3.706598   -1.076604    1.359419
     14          1           0        3.766414   -0.955822   -0.398307
     15          1           0        4.526857    0.291151    0.607010
     16          6           0        2.453412    1.499747    1.625149
     17          1           0        2.547938    1.012820    2.598473
     18          1           0        3.338682    2.119456    1.484826
     19          1           0        1.566006    2.122330    1.627762
     20         35           0        1.196663   -2.082645   -0.257141
     21          7           0       -1.246444   -0.340062    0.313260
     22          6           0       -2.575476    0.044944    0.129261
     23          6           0       -3.010609    1.368611    0.035739
     24          6           0       -4.359888    1.639409   -0.148206
     25          6           0       -5.295595    0.621133   -0.236571
     26          6           0       -4.863655   -0.695344   -0.138731
     27          6           0       -3.523132   -0.981369    0.040287
     28          1           0       -1.101499   -1.333949    0.374921
     29          1           0       -2.293888    2.169271    0.109242
     30          1           0       -4.678459    2.672360   -0.219712
     31          1           0       -6.344558    0.846769   -0.377549
     32          1           0       -5.575047   -1.509242   -0.203899
     33          1           0       -3.198988   -2.013426    0.111776
 ---------------------------------------------------------------------

 SCF Done:  E(RwB97XD) =  -3226.47156175     A.U. after    1 cycles

 The electronic state is 1-A.
 Alpha  occ. eigenvalues -- -483.12205 -62.67043 -56.46138 -56.45819 -56.45805
 Alpha  occ. eigenvalues --  -19.20671 -14.47191 -14.46114 -10.38808 -10.35580
 Alpha  occ. eigenvalues --  -10.33761 -10.31514 -10.29918 -10.28973 -10.28813
 Alpha  occ. eigenvalues --  -10.28731 -10.28166 -10.28147 -10.28054 -10.27462
 Alpha  occ. eigenvalues --   -8.81157  -6.63238  -6.62223  -6.62178  -2.73637
 Alpha  occ. eigenvalues --   -2.73350  -2.73313  -2.72492  -2.72491  -1.13519
 Alpha  occ. eigenvalues --   -1.03911  -1.02912  -0.95530  -0.93517  -0.87896
 Alpha  occ. eigenvalues --   -0.85011  -0.84586  -0.80162  -0.78998  -0.77587
 Alpha  occ. eigenvalues --   -0.72916  -0.71179  -0.66993  -0.63873  -0.62181
 Alpha  occ. eigenvalues --   -0.61783  -0.58592  -0.57589  -0.55676  -0.55442
 Alpha  occ. eigenvalues --   -0.53732  -0.53541  -0.52278  -0.51568  -0.51203
 Alpha  occ. eigenvalues --   -0.50167  -0.49921  -0.47854  -0.47418  -0.47065
 Alpha  occ. eigenvalues --   -0.46379  -0.45042  -0.44674  -0.43561  -0.42683
 Alpha  occ. eigenvalues --   -0.40850  -0.39416  -0.38922  -0.37451  -0.33738
 Alpha  occ. eigenvalues --   -0.33569  -0.30136  -0.26183
 Alpha virt. eigenvalues --    0.03732   0.05466   0.07628   0.09045   0.10009
 Alpha virt. eigenvalues --    0.12832   0.13821   0.14150   0.14790   0.15291
 Alpha virt. eigenvalues --    0.16475   0.17044   0.17624   0.17934   0.18327

 Mulliken charges:
               1
     1  C   -0.296896
     2  C    0.479206
     3  O   -0.583503
     4  C    0.159354
     5  C   -0.291453
     6  H    0.151371
     7  H    0.151457
     8  H    0.152659
     9  N   -0.347749
    10  H    0.273480
    11  H    0.275246
    12  C   -0.381726
    13  H    0.155895
    14  H    0.148892
    15  H    0.145735
    16  C   -0.395243
    17  H    0.140012
    18  H    0.130368
    19  H    0.157100
    20  Br  -0.189313
    21  N   -0.277855
    22  C    0.298519
    23  C   -0.298697
    24  C   -0.109176
    25  C   -0.199495
    26  C   -0.098852
    27  C   -0.310814
    28  H    0.238260
    29  H    0.160408
    30  H    0.140365
    31  H    0.139774
    32  H    0.142595
    33  H    0.140075
 Sum of Mulliken charges =  -0.00000

 Dipole moment (field-independent basis, Debye):
    X=              6.3070    Y=              1.4246    Z=             -2.3353  Tot=              6.8747
 Quadrupole moment (field-independent basis, Debye-Ang):
   XX=            -86.1654   YY=           -105.3142   ZZ=           -108.5935
   XY=             14.8677   XZ=             -4.2726   YZ=             -5.0530

  Exact polarizability: 347.055  12.520 273.133   2.034  -3.443 179.812
 Approx polarizability: 243.406   5.462 228.572   2.821  -2.067 157.205

 ******    1 imaginary frequencies (negative Signs) ******

                      1                      2                      3
                      A                      A                      A
 Frequencies --   -362.0240                27.1465                34.7193
 Red. masses --      5.8689                 3.9022                 4.5622
 Frc consts  --      0.4532                 0.0017                 0.0032
 IR Inten    --    930.1645                 2.0683                 2.0180

                      4                      5                      6
                      A                      A                      A
 Frequencies --     49.1886                67.8314                86.3503
 Red. masses --      3.6654                 3.1315                 3.9649
 Frc consts  --      0.0052                 0.0085                 0.0174
 IR Inten    --      1.8965                 1.7091                 2.1431

                      7                      8                      9
                      A                      A                      A
 Frequencies --     98.2553               128.0429               163.0571
 Red. masses --      3.0256                 4.1411                 1.2390
 Frc consts  --      0.0172                 0.0400                 0.0194
 IR Inten    --     15.2063                17.1016                 1.6995

                     10                     11                     12
                      A                      A                      A
 Frequencies --    184.5412               208.8399               225.8865
 Red. masses --      3.8974                 3.1389                 2.3327
 Frc consts  --      0.0782                 0.0807                 0.0701
 IR Inten    --      5.7393                10.8018                25.7768

                     13                     14                     15
                      A                      A                      A
 Frequencies --    239.7597               251.6205               257.7710
 Red. masses --      2.1290                 1.9312                 2.5813
 Frc consts  --      0.0721                 0.0720                 0.1011
 IR Inten    --      2.0109                 2.2039                11.1635

                     16                     17                     18
                      A                      A                      A
 Frequencies --    274.9268               294.2220               356.6785
 Red. masses --      2.4172                 1.8338                 3.5863
 Frc consts  --      0.1076                 0.0935                 0.2688
 IR Inten    --     11.8154                 1.6494                11.1623

                     19                     20                     21
                      A                      A                      A
 Frequencies --    369.0117               390.4848               422.8688
 Red. masses --      4.9323                 3.8726                 3.9350
 Frc consts  --      0.3957                 0.3479                 0.4146
 IR Inten    --      0.8112                22.5808                11.4750

                     22                     23                     24
                      A                      A                      A
 Frequencies --    424.3865               478.3987               501.6532
 Red. masses --      3.0243                 3.8182                 3.5329
 Frc consts  --      0.3209                 0.5149                 0.5238
 IR Inten    --      0.1267               105.2191                18.3781

                     25                     26                     27
                      A                      A                      A
 Frequencies --    528.2803               573.5743               611.6709
 Red. masses --      2.7419                 1.1462                 5.2578
 Frc consts  --      0.4509                 0.2222                 1.1590
 IR Inten    --     41.8833                98.9016                11.9331

                     28                     29                     30
                      A                      A                      A
 Frequencies --    635.7881               675.1949               719.3800
 Red. masses --      6.4051                 1.2465                 1.9024
 Frc consts  --      1.5255                 0.3348                 0.5801
 IR Inten    --      1.4906                28.6490                61.5727

                     31                     32                     33
                      A                      A                      A
 Frequencies --    766.0670               782.7796               794.4201
 Red. masses --      9.7999                 1.8336                 5.9981
 Frc consts  --      3.3885                 0.6620                 2.2303
 IR Inten    --     64.1131               100.2127                10.0679

                     34                     35                     36
                      A                      A                      A
 Frequencies --    860.2090               862.4431               901.8941
 Red. masses --      5.7579                 1.2647                 3.7717
 Frc consts  --      2.5103                 0.5542                 1.8076
 IR Inten    --     25.0014                 0.1900                53.5268

                     37                     38                     39
                      A                      A                      A
 Frequencies --    932.0962               958.7292              1001.1365
 Red. masses --      1.4621                 1.3524                 1.3422
 Frc consts  --      0.7484                 0.7324                 0.7926
 IR Inten    --     14.5999                 2.5277                 0.0248

                     40                     41                     42
                      A                      A                      A
 Frequencies --   1009.5919              1016.6947              1019.0259
 Red. masses --      1.6444                 1.2801                 4.2504
 Frc consts  --      0.9875                 0.7796                 2.6005
 IR Inten    --     16.1087                 0.7827                 4.9857

                     43                     44                     45
                      A                      A                      A
 Frequencies --   1024.2545              1047.0045              1054.6719
 Red. masses --      1.4462                 1.5284                 1.2602
 Frc consts  --      0.8939                 0.9871                 0.8259
 IR Inten    --     42.2941                67.5665                83.6299

                     46                     47                     48
                      A                      A                      A
 Frequencies --   1059.9506              1062.5153              1094.0958
 Red. masses --      2.3607                 2.2189                 1.9585
 Frc consts  --      1.5627                 1.4759                 1.3813
 IR Inten    --    274.3685                88.9034                32.2523

                     49                     50                     51
                      A                      A                      A
 Frequencies --   1116.9299              1124.9953              1181.8962
 Red. masses --      1.9568                 1.7131                 1.1184
 Frc consts  --      1.4383                 1.2774                 0.9205
 IR Inten    --     17.9849                24.8212                 4.2425

                     52                     53                     54
                      A                      A                      A
 Frequencies --   1207.8645              1218.0101              1246.7384
 Red. masses --      1.1432                 1.3820                 3.3792
 Frc consts  --      0.9827                 1.2080                 3.0947
 IR Inten    --     34.4457                44.5723               226.4218

                     55                     56                     57
                      A                      A                      A
 Frequencies --   1272.5056              1291.1572              1346.0009
 Red. masses --      2.5709                 4.5258                 4.0433
 Frc consts  --      2.4527                 4.4454                 4.3160
 IR Inten    --    484.2875                48.5284               830.9138

                     58                     59                     60
                      A                      A                      A
 Frequencies --   1351.7982              1360.4312              1399.5306
 Red. masses --      1.3277                 1.5713                 1.7640
 Frc consts  --      1.4295                 1.7134                 2.0356
 IR Inten    --      7.2516                 1.7442               255.7183

                     61                     62                     63
                      A                      A                      A
 Frequencies --   1404.5671              1422.5205              1463.0512
 Red. masses --      1.5087                 1.3684                 1.2294
 Frc consts  --      1.7536                 1.6315                 1.5505
 IR Inten    --    134.8310               145.2545                29.1245

                     64                     65                     66
                      A                      A                      A
 Frequencies --   1474.6121              1479.3587              1483.5429
 Red. masses --      1.1202                 1.8977                 1.0708
 Frc consts  --      1.4352                 2.4469                 1.3886
 IR Inten    --    116.2787               274.4758                 6.2515

                     67                     68                     69
                      A                      A                      A
 Frequencies --   1491.4451              1504.3568              1506.6981
 Red. masses --      1.0577                 1.1555                 1.0623
 Frc consts  --      1.3862                 1.5407                 1.4209
 IR Inten    --     17.8585                68.2087                31.0071

                     70                     71                     72
                      A                      A                      A
 Frequencies --   1510.5901              1546.0646              1568.6909
 Red. masses --      1.0605                 2.4428                 2.2540
 Frc consts  --      1.4258                 3.4402                 3.2680
 IR Inten    --     49.2676               223.8587               672.9733

                     73                     74                     75
                      A                      A                      A
 Frequencies --   1641.5435              1657.3199              1662.5161
 Red. masses --      5.5487                 1.0899                 3.7273
 Frc consts  --      8.8094                 1.7638                 6.0698
 IR Inten    --    395.3599                50.8582               113.0384

                     76                     77                     78
                      A                      A                      A
 Frequencies --   1676.2147              3061.4124              3065.6362
 Red. masses --      6.0948                 1.0376                 1.0402
 Frc consts  --     10.0895                 5.7296                 5.7598
 IR Inten    --    184.5683                61.9674                17.9054

                     79                     80                     81
                      A                      A                      A
 Frequencies --   3069.0850              3131.7275              3137.3971
 Red. masses --      1.0392                 1.0988                 1.0998
 Frc consts  --      5.7673                 6.3496                 6.3785
 IR Inten    --     39.0341                24.3869                18.5354

                     82                     83                     84
                      A                      A                      A
 Frequencies --   3141.3441              3162.5148              3167.8684
 Red. masses --      1.0993                 1.1036                 1.1052
 Frc consts  --      6.3916                 6.5033                 6.5346
 IR Inten    --     34.0231                30.1436                16.0373

                     85                     86                     87
                      A                      A                      A
 Frequencies --   3187.0056              3195.9671              3202.8840
 Red. masses --      1.0876                 1.0883                 1.0993
 Frc consts  --      6.5087                 6.5497                 6.6445
 IR Inten    --     13.8312                 2.7797                 3.8215

                     88                     89                     90
                      A                      A                      A
 Frequencies --   3205.6785              3220.9570              3272.2683
 Red. masses --      1.0932                 1.0979                 1.0923
 Frc consts  --      6.6192                 6.7112                 6.8912
 IR Inten    --     31.8468                23.3729                 6.8477

                     91                     92                     93
                      A                      A                      A
 Frequencies --   3496.1408              3592.2919              3636.2823
 Red. masses --      1.0553                 1.0925                 1.0762
 Frc consts  --      7.5999                 8.3064                 8.3841
 IR Inten    --     43.5354                51.5854                88.1594

 - Thermochemistry -
 -------------------
 Temperature   298.150 Kelvin.  Pressure   1.00000 Atm.
 Atom     1 has atomic number  6 and mass  12.00000

 Molecular mass:   284.05242 amu.
 Principal axes and moments of inertia in atomic units:
                           1         2         3
     Eigenvalues --  2725.694438022.507049956.28676
           X            0.99922   0.03937   0.00193
           Y           -0.03933   0.99903  -0.01964
           Z           -0.00270   0.01955   0.99981
 This molecule is an asymmetric top.
 Rotational symmetry number  1.
 Warning -- assumption of classical behavior for rotation
           may cause significant error
 Rotational temperatures (Kelvin)      0.03178     0.01080     0.00870
 Rotational constants (GHZ):           0.66212     0.22496     0.18127
    1 imaginary frequencies ignored.
 Zero-point vibrational energy     724246.3 (Joules/Mol)
                                  173.09901 (Kcal/Mol)
 Warning -- explicit consideration of  26 degrees of freedom as
           vibrations may cause significant error
 Vibrational temperatures:     39.06    49.95    70.77    97.59   124.24
          (Kelvin)            141.37   184.23   234.60   265.51   300.47
                              325.00   344.96   362.03   370.88   395.56
                              423.32   513.18   530.93   561.82   608.41
                              610.60   688.31   721.77   760.08   825.25
                              880.06   914.76   971.45  1035.03  1102.20
                             1126.25  1142.99  1237.65  1240.86  1297.62
                             1341.08  1379.40  1440.41  1452.58  1462.80
                             1466.15  1473.67  1506.41  1517.44  1525.03
                             1528.72  1574.16  1607.01  1618.62  1700.48
                             1737.85  1752.44  1793.78  1830.85  1857.69
                             1936.60  1944.94  1957.36  2013.61  2020.86
                             2046.69  2105.00  2121.64  2128.47  2134.49
                             2145.86  2164.43  2167.80  2173.40  2224.44
                             2257.00  2361.81  2384.51  2391.99  2411.70
                             4404.69  4410.77  4415.73  4505.86  4514.01
                             4519.69  4550.15  4557.86  4585.39  4598.28
                             4608.24  4612.26  4634.24  4708.06  5030.17
                             5168.51  5231.80

 Zero-point correction=                           0.275851 (Hartree/Particle)
 Thermal correction to Energy=                    0.292901
 Thermal correction to Enthalpy=                  0.293845
 Thermal correction to Gibbs Free Energy=         0.229215
 Sum of electronic and zero-point Energies=          -3226.195711
 Sum of electronic and thermal Energies=             -3226.178661
 Sum of electronic and thermal Enthalpies=           -3226.177717
 Sum of electronic and thermal Free Energies=        -3226.242347

                     E (Thermal)             CV                S
                      KCal/Mol        Cal/Mol-Kelvin    Cal/Mol-Kelvin
 Total                  183.798             62.797            136.026
 Electronic               0.000              0.000              0.000
 Translational            0.889              2.981             42.830
 Rotational               0.889              2.981             33.742
 Vibrational            182.021             56.836             59.453
 Vibration     1          0.593              1.984              6.028
 Vibration     2          0.594              1.983              5.540
 Vibration     3          0.595              1.978              4.850
 Vibration     4          0.598              1.970              4.215
 Vibration     5          0.601              1.959              3.741
 Vibration     6          0.604              1.950              3.489
 Vibration     7          0.611              1.925              2.975
 Vibration     8          0.623              1.888              2.514
 Vibration     9          0.631              1.861              2.282
 Vibration    10          0.642              1.827              2.054
 Vibration    11          0.650              1.802              1.911
 Vibration    12          0.657              1.780              1.805
 Vibration    13          0.664              1.760              1.719
 Vibration    14          0.667              1.750              1.677
 Vibration    15          0.677              1.720              1.565
 Vibration    16          0.689              1.685              1.450
 Vibration    17          0.732              1.562              1.137
 Vibration    18          0.741              1.536              1.084
 Vibration    19          0.758              1.491              0.998
 Vibration    20          0.785              1.421              0.882
 Vibration    21          0.786              1.417              0.877
 Vibration    22          0.835              1.298              0.714
 Vibration    23          0.857              1.246              0.654
 Vibration    24          0.883              1.187              0.591
 Vibration    25          0.930              1.088              0.497
 Vibration    26          0.971              1.007              0.430

 Optimization completed.
    -- Stationary point found.
 Normal termination of Gaussian 16 at Wed Feb 17 17:18:36 2021.
