 Gaussian 16, Revision A.03,
 Gaussian 16:  ES64L-G16RevA.03 25-Dec-2016

 ----------------------------------------------------------------------
 # wB97XD def2tzvp, opt=(ts, noeigen, calcfc, maxcycles=70, maxstep=3),
  freq=noraman, scrf=(iefpcm, solvent=water)
 ----------------------------------------------------------------------

 -----------------------
 3_iteration/TS-55-3.out
 -----------------------
 Symbolic Z-matrix:
 Charge =  0 Multiplicity = 1

 SCF Done:  E(RwB97XD) =  -805.273282861     A.U. after   14 cycles
 SCF Done:  E(RwB97XD) =  -805.273285706     A.U. after    8 cycles
 SCF Done:  E(RwB97XD) =  -805.273268506     A.U. after   10 cycles
 SCF Done:  E(RwB97XD) =  -805.273283572     A.U. after   10 cycles
 SCF Done:  E(RwB97XD) =  -805.273282773     A.U. after   10 cycles
 SCF Done:  E(RwB97XD) =  -805.273283995     A.U. after   10 cycles
 SCF Done:  E(RwB97XD) =  -805.273283348     A.U. after    7 cycles
 Optimization completed.
    -- Stationary point found.
 Normal termination of Gaussian 16 at Sun Jan 31 23:12:29 2021.

 ---------------------------------------------------------------------
 #N Geom=AllCheck Guess=TCheck SCRF=Check GenChk RwB97XD/def2TZVP Freq
 ---------------------------------------------------------------------

 Structure from the checkpoint file:  "/beegfs/scratch/user/q/tla25/Gau-36180.chk"
 -----------------------
 3_iteration/TS-55-3.out
 -----------------------
 Charge =  0 Multiplicity = 1

                         Standard orientation:
 ---------------------------------------------------------------------
 Center     Atomic      Atomic             Coordinates (Angstroms)
 Number     Number       Type             X           Y           Z
 ---------------------------------------------------------------------
      1          6           0        0.665900    1.078288    0.180740
      2          6           0       -0.734387    1.254489    0.014319
      3          8           0       -1.279099    2.371408    0.016907
      4          6           0        1.386175   -0.141023    0.219491
      5          6           0        0.230223   -0.946612    2.547802
      6          1           0       -0.332361   -1.745313    2.068892
      7          1           0        0.363243   -1.179306    3.602582
      8          1           0       -0.310910   -0.006886    2.446148
      9          7           0        1.522951   -0.800692    1.878596
     10          1           0        2.025054   -1.682714    1.838947
     11          1           0        2.110120   -0.138874    2.376373
     12          6           0        2.827900   -0.121400   -0.190900
     13          6           0        3.309988   -1.096360   -1.058240
     14          6           0        4.636323   -1.088934   -1.466600
     15          6           0        5.501693   -0.112398   -0.998598
     16          6           0        5.033080    0.856865   -0.121094
     17          6           0        3.706882    0.853249    0.278415
     18          1           0        2.640014   -1.865786   -1.424024
     19          1           0        4.992660   -1.850249   -2.148865
     20          1           0        6.537675   -0.106517   -1.312493
     21          1           0        5.703965    1.619699    0.253219
     22          1           0        3.355234    1.618357    0.960255
     23          1           0        0.889786   -1.012004   -0.204609
     24          1           0        1.213086    2.003263    0.302915
     25          7           0       -1.508681    0.107640   -0.182594
     26          6           0       -2.886970   -0.039459   -0.294083
     27          6           0       -3.798331    1.020511   -0.320958
     28          6           0       -5.157502    0.762039   -0.433369
     29          6           0       -5.643913   -0.532955   -0.523810
     30          6           0       -4.740036   -1.587468   -0.500022
     31          6           0       -3.383482   -1.346992   -0.385896
     32          1           0       -1.010218   -0.763500   -0.195863
     33          1           0       -3.430207    2.030665   -0.254140
     34          1           0       -5.845992    1.598557   -0.451609
     35          1           0       -6.706228   -0.719508   -0.612334
     36          1           0       -5.092374   -2.609363   -0.569284
     37          1           0       -2.690889   -2.181463   -0.366579
 ---------------------------------------------------------------------

 SCF Done:  E(RwB97XD) =  -805.273283348     A.U. after    1 cycles

 The electronic state is 1-A.
 Alpha  occ. eigenvalues --  -19.18722 -14.50556 -14.45260 -10.36949 -10.34784
 Alpha  occ. eigenvalues --  -10.33419 -10.32313 -10.30721 -10.29510 -10.29500
 Alpha  occ. eigenvalues --  -10.29415 -10.29381 -10.29267 -10.28757 -10.28571
 Alpha  occ. eigenvalues --  -10.28397 -10.27811 -10.27608 -10.23941  -1.11481
 Alpha  occ. eigenvalues --   -1.05954  -1.02805  -0.97421  -0.94919  -0.90058
 Alpha  occ. eigenvalues --   -0.85631  -0.85225  -0.84674  -0.82209  -0.79988
 Alpha  occ. eigenvalues --   -0.75152  -0.71749  -0.71157  -0.69987  -0.68202
 Alpha  occ. eigenvalues --   -0.65136  -0.64214  -0.62458  -0.61568  -0.58531
 Alpha  occ. eigenvalues --   -0.57887  -0.56803  -0.56128  -0.54881  -0.53341
 Alpha  occ. eigenvalues --   -0.52669  -0.51978  -0.51524  -0.50905  -0.50693
 Alpha  occ. eigenvalues --   -0.50312  -0.48874  -0.48155  -0.47724  -0.45931
 Alpha  occ. eigenvalues --   -0.45631  -0.45005  -0.44216  -0.43340  -0.42704
 Alpha  occ. eigenvalues --   -0.42279  -0.38850  -0.34237  -0.34089  -0.33435
 Alpha  occ. eigenvalues --   -0.32452  -0.29727  -0.25651
 Alpha virt. eigenvalues --    0.03225   0.04761   0.05666   0.06346   0.09418
 Alpha virt. eigenvalues --    0.11103   0.11850   0.13338   0.13724   0.14107
 Alpha virt. eigenvalues --    0.15666   0.16283   0.16856   0.17160   0.17614

 Mulliken charges:
               1
     1  C   -0.430032
     2  C    0.341941
     3  O   -0.575889
     4  C   -0.130805
     5  C   -0.321099
     6  H    0.161459
     7  H    0.168164
     8  H    0.162794
     9  N   -0.214167
    10  H    0.294639
    11  H    0.285006
    12  C    0.232702
    13  C   -0.230369
    14  C   -0.131168
    15  C   -0.147768
    16  C   -0.147965
    17  C   -0.267199
    18  H    0.141800
    19  H    0.145437
    20  H    0.146814
    21  H    0.145450
    22  H    0.162676
    23  H    0.164727
    24  H    0.110540
    25  N   -0.248428
    26  C    0.306361
    27  C   -0.314533
    28  C   -0.104195
    29  C   -0.209365
    30  C   -0.102375
    31  C   -0.320155
    32  H    0.217361
    33  H    0.153858
    34  H    0.138032
    35  H    0.137573
    36  H    0.140295
    37  H    0.137881
 Sum of Mulliken charges =   0.00000

 Dipole moment (field-independent basis, Debye):
    X=              8.2842    Y=            -10.0653    Z=              5.5599  Tot=             14.1722
 Quadrupole moment (field-independent basis, Debye-Ang):
   XX=           -102.8890   YY=           -116.7813   ZZ=           -104.0786
   XY=              4.8124   XZ=              6.0862   YZ=             -0.4074

  Exact polarizability: 404.174  -5.011 286.152   2.687  13.996 206.976
 Approx polarizability: 284.987  -3.194 245.392   0.585  14.273 177.129

 ******    1 imaginary frequencies (negative Signs) ******

                      1                      2                      3
                      A                      A                      A
 Frequencies --   -327.9489                 8.4770                14.8439
 Red. masses --      6.4681                 3.7335                 4.8086
 Frc consts  --      0.4099                 0.0002                 0.0006
 IR Inten    --    972.2639                 0.3748                 1.0528

                      4                      5                      6
                      A                      A                      A
 Frequencies --     37.2856                54.6108                69.3148
 Red. masses --      3.7988                 5.3921                 2.4350
 Frc consts  --      0.0031                 0.0095                 0.0069
 IR Inten    --      3.3781                 5.2591                 7.3211

                      7                      8                      9
                      A                      A                      A
 Frequencies --     81.2073                97.2465               120.9957
 Red. masses --      4.6671                 4.7191                 4.0631
 Frc consts  --      0.0181                 0.0263                 0.0350
 IR Inten    --      4.3061                 9.0714                12.7391

                     10                     11                     12
                      A                      A                      A
 Frequencies --    169.5893               192.0618               235.0754
 Red. masses --      4.1162                 5.3117                 3.9270
 Frc consts  --      0.0697                 0.1154                 0.1279
 IR Inten    --      1.5139                 7.9951                 0.6455

                     13                     14                     15
                      A                      A                      A
 Frequencies --    248.4654               267.2173               303.2710
 Red. masses --      1.1942                 3.2256                 3.3128
 Frc consts  --      0.0434                 0.1357                 0.1795
 IR Inten    --      0.4552                 5.3780                37.0662

                     16                     17                     18
                      A                      A                      A
 Frequencies --    332.5176               350.4604               419.0890
 Red. masses --      5.1242                 5.6707                 2.8588
 Frc consts  --      0.3338                 0.4104                 0.2958
 IR Inten    --     10.5145                 2.1027                 0.1261

                     19                     20                     21
                      A                      A                      A
 Frequencies --    422.5710               435.1809               455.1318
 Red. masses --      3.0182                 3.9817                 3.4804
 Frc consts  --      0.3175                 0.4443                 0.4248
 IR Inten    --      0.0359                20.9704                 8.4101

                     22                     23                     24
                      A                      A                      A
 Frequencies --    524.4258               528.4178               556.5665
 Red. masses --      1.7737                 1.8987                 1.9202
 Frc consts  --      0.2874                 0.3124                 0.3505
 IR Inten    --     87.9100                 7.9784               167.2857

                     25                     26                     27
                      A                      A                      A
 Frequencies --    582.8019               631.5380               636.7362
 Red. masses --      3.8214                 5.5468                 6.2717
 Frc consts  --      0.7647                 1.3034                 1.4981
 IR Inten    --     33.6783                44.0106                14.0175

                     28                     29                     30
                      A                      A                      A
 Frequencies --    640.6674               651.1587               713.5478
 Red. masses --      5.8808                 1.4255                 3.6246
 Frc consts  --      1.4222                 0.3561                 1.0873
 IR Inten    --     19.4417                95.4042                13.0126

                     31                     32                     33
                      A                      A                      A
 Frequencies --    717.3202               725.7530               771.5588
 Red. masses --      1.9177                 1.5812                 3.9374
 Frc consts  --      0.5814                 0.4907                 1.3810
 IR Inten    --     65.8116                84.6044                16.9710

                     34                     35                     36
                      A                      A                      A
 Frequencies --    779.6270               796.6981               809.2681
 Red. masses --      1.8034                 2.2281                 2.0740
 Frc consts  --      0.6458                 0.8332                 0.8003
 IR Inten    --     92.0905                53.9029                30.1040

                     37                     38                     39
                      A                      A                      A
 Frequencies --    859.2157               863.8878               877.7839
 Red. masses --      1.2671                 5.3831                 1.2506
 Frc consts  --      0.5511                 2.3670                 0.5677
 IR Inten    --      0.0547                 0.7030                 0.2137

                     40                     41                     42
                      A                      A                      A
 Frequencies --    887.8695               924.1556               959.4630
 Red. masses --      4.4611                 1.4734                 1.4731
 Frc consts  --      2.0720                 0.7414                 0.7990
 IR Inten    --     21.8104                15.2748                 0.7463

                     43                     44                     45
                      A                      A                      A
 Frequencies --    987.5884               997.6173              1010.5769
 Red. masses --      3.7777                 1.3374                 1.2687
 Frc consts  --      2.1709                 0.7842                 0.7634
 IR Inten    --     39.3641                 0.0187                 0.7687

                     46                     47                     48
                      A                      A                      A
 Frequencies --   1014.5113              1017.6139              1025.7971
 Red. masses --      1.3731                 5.7359                 6.1133
 Frc consts  --      0.8326                 3.4996                 3.7901
 IR Inten    --      0.3642                19.4471                 1.2507

                     49                     50                     51
                      A                      A                      A
 Frequencies --   1032.9254              1035.4966              1057.9476
 Red. masses --      1.3046                 1.1882                 1.9229
 Frc consts  --      0.8201                 0.7506                 1.2680
 IR Inten    --      1.6373                43.4106                45.9096

                     52                     53                     54
                      A                      A                      A
 Frequencies --   1061.3475              1065.2847              1093.6787
 Red. masses --      1.8824                 2.1582                 1.8299
 Frc consts  --      1.2494                 1.4430                 1.2896
 IR Inten    --      5.8727                 3.7379                88.1892

                     55                     56                     57
                      A                      A                      A
 Frequencies --   1112.2607              1115.8721              1178.9620
 Red. masses --      1.5237                 1.6031                 1.1213
 Frc consts  --      1.1106                 1.1761                 0.9183
 IR Inten    --     11.7107                33.3285                 6.2205

                     58                     59                     60
                      A                      A                      A
 Frequencies --   1185.4667              1202.6630              1214.7029
 Red. masses --      1.1388                 1.1556                 1.1262
 Frc consts  --      0.9429                 0.9848                 0.9790
 IR Inten    --      0.5641                37.1213                 4.8791

                     61                     62                     63
                      A                      A                      A
 Frequencies --   1220.3977              1226.1957              1261.5672
 Red. masses --      2.0315                 1.4336                 2.1267
 Frc consts  --      1.7827                 1.2700                 1.9943
 IR Inten    --     14.3394               466.1561               403.3680

                     64                     65                     66
                      A                      A                      A
 Frequencies --   1271.9614              1285.4989              1291.4416
 Red. masses --      1.3860                 2.6500                 1.5465
 Frc consts  --      1.3211                 2.5801                 1.5197
 IR Inten    --     50.4471                15.8652               147.5726

                     67                     68                     69
                      A                      A                      A
 Frequencies --   1301.9895              1340.0931              1345.0236
 Red. masses --      2.5567                 2.5459                 2.1886
 Frc consts  --      2.5535                 2.6937                 2.3328
 IR Inten    --    171.8887               248.8186               259.1373

                     70                     71                     72
                      A                      A                      A
 Frequencies --   1356.3342              1359.4864              1372.2229
 Red. masses --      1.6061                 2.0097                 1.3769
 Frc consts  --      1.7408                 2.1885                 1.5275
 IR Inten    --      8.0277               144.3271               107.7425

                     73                     74                     75
                      A                      A                      A
 Frequencies --   1453.1783              1470.2747              1479.5979
 Red. masses --      1.2030                 1.9993                 2.2389
 Frc consts  --      1.4968                 2.5464                 2.8879
 IR Inten    --     17.2746               198.1765               227.0689

                     76                     77                     78
                      A                      A                      A
 Frequencies --   1499.0597              1506.9445              1518.2337
 Red. masses --      1.0448                 1.0486                 2.1734
 Frc consts  --      1.3833                 1.4029                 2.9516
 IR Inten    --     40.1110                25.2957               122.2989

                     79                     80                     81
                      A                      A                      A
 Frequencies --   1542.6038              1549.3956              1557.4999
 Red. masses --      2.5529                 2.4420                 2.1500
 Frc consts  --      3.5792                 3.4540                 3.0728
 IR Inten    --    334.6165                34.1445               243.1684

                     82                     83                     84
                      A                      A                      A
 Frequencies --   1641.6602              1644.6699              1656.1941
 Red. masses --      1.8688                 1.8708                 5.3636
 Frc consts  --      2.9674                 2.9814                 8.6683
 IR Inten    --    836.4296               306.5268                18.0712

                     85                     86                     87
                      A                      A                      A
 Frequencies --   1662.7654              1673.1391              1677.9719
 Red. masses --      3.3966                 5.9979                 5.6862
 Frc consts  --      5.5330                 9.8926                 9.4328
 IR Inten    --    427.9179               268.9068                19.3062

                     88                     89                     90
                      A                      A                      A
 Frequencies --   3078.2135              3116.8619              3164.3144
 Red. masses --      1.0321                 1.0881                 1.1056
 Frc consts  --      5.7621                 6.2282                 6.5224
 IR Inten    --     26.6659                31.3643                 3.8036

                     91                     92                     93
                      A                      A                      A
 Frequencies --   3174.1265              3179.9305              3190.8006
 Red. masses --      1.1066                 1.0882                 1.0879
 Frc consts  --      6.5687                 6.4834                 6.5257
 IR Inten    --     13.3855                18.5640                 9.0858

                     94                     95                     96
                      A                      A                      A
 Frequencies --   3191.8679              3194.6636              3202.1915
 Red. masses --      1.0880                 1.0878                 1.0927
 Frc consts  --      6.5311                 6.5413                 6.6014
 IR Inten    --      5.4105                 2.3402                31.8169

                     97                     98                     99
                      A                      A                      A
 Frequencies --   3203.6819              3208.8682              3213.2370
 Red. masses --      1.0903                 1.0877                 1.0944
 Frc consts  --      6.5932                 6.5987                 6.6575
 IR Inten    --      9.2662                 3.0451                39.0081

                    100                    101                    102
                      A                      A                      A
 Frequencies --   3218.9562              3223.6117              3265.0157
 Red. masses --      1.0977                 1.0988                 1.0928
 Frc consts  --      6.7015                 6.7275                 6.8638
 IR Inten    --     25.0117                18.0348                 7.9652

                    103                    104                    105
                      A                      A                      A
 Frequencies --   3504.3041              3584.8360              3672.7220
 Red. masses --      1.0513                 1.0965                 1.0751
 Frc consts  --      7.6064                 8.3021                 8.5446
 IR Inten    --     43.5435                48.9722                23.8931

 - Thermochemistry -
 -------------------
 Temperature   298.150 Kelvin.  Pressure   1.00000 Atm.
 Atom     1 has atomic number  6 and mass  12.00000

 Molecular mass:   254.14191 amu.
 Principal axes and moments of inertia in atomic units:
                           1         2         3
     Eigenvalues --  1948.11855********************
           X            1.00000   0.00219   0.00075
           Y           -0.00218   0.99999  -0.00383
           Z           -0.00076   0.00383   0.99999
 This molecule is an asymmetric top.
 Rotational symmetry number  1.
 Warning -- assumption of classical behavior for rotation
           may cause significant error
 Rotational temperatures (Kelvin)      0.04446     0.00731     0.00715
 Rotational constants (GHZ):           0.92640     0.15227     0.14908
    1 imaginary frequencies ignored.
 Zero-point vibrational energy     818945.5 (Joules/Mol)
                                  195.73266 (Kcal/Mol)
 Warning -- explicit consideration of  24 degrees of freedom as
           vibrations may cause significant error
 Vibrational temperatures:     12.20    21.36    53.65    78.57    99.73
          (Kelvin)            116.84   139.92   174.09   244.00   276.33
                              338.22   357.49   384.47   436.34   478.42
                              504.23   602.98   607.99   626.13   654.83
                              754.53   760.28   800.78   838.52   908.64
                              916.12   921.78   936.87  1026.64  1032.06
                             1044.20  1110.10  1121.71  1146.27  1164.36
                             1236.22  1242.94  1262.94  1277.45  1329.65
                             1380.45  1420.92  1435.35  1453.99  1459.66
                             1464.12  1475.89  1486.15  1489.85  1522.15
                             1527.04  1532.71  1573.56  1600.30  1605.49
                             1696.26  1705.62  1730.36  1747.69  1755.88
                             1764.22  1815.11  1830.07  1849.55  1858.10
                             1873.27  1928.10  1935.19  1951.46  1956.00
                             1974.32  2090.80  2115.40  2128.81  2156.81
                             2168.16  2184.40  2219.46  2229.23  2240.89
                             2361.98  2366.31  2382.89  2392.35  2407.27
                             2414.23  4428.86  4484.47  4552.74  4566.86
                             4575.21  4590.85  4592.39  4596.41  4607.24
                             4609.38  4616.85  4623.13  4631.36  4638.06
                             4697.63  5041.91  5157.78  5284.23

 Zero-point correction=                           0.311920 (Hartree/Particle)
 Thermal correction to Energy=                    0.329190
 Thermal correction to Enthalpy=                  0.330135
 Thermal correction to Gibbs Free Energy=         0.262738
 Sum of electronic and zero-point Energies=           -804.961363
 Sum of electronic and thermal Energies=              -804.944093
 Sum of electronic and thermal Enthalpies=            -804.943149
 Sum of electronic and thermal Free Energies=         -805.010546

                     E (Thermal)             CV                S
                      KCal/Mol        Cal/Mol-Kelvin    Cal/Mol-Kelvin
 Total                  206.570             65.827            141.848
 Electronic               0.000              0.000              0.000
 Translational            0.889              2.981             42.498
 Rotational               0.889              2.981             33.991
 Vibrational            204.793             59.866             65.359
 Vibration     1          0.593              1.987              8.339
 Vibration     2          0.593              1.986              7.226
 Vibration     3          0.594              1.982              5.398
 Vibration     4          0.596              1.976              4.643
 Vibration     5          0.598              1.969              4.173
 Vibration     6          0.600              1.962              3.861
 Vibration     7          0.603              1.951              3.509
 Vibration     8          0.609              1.932              3.084
 Vibration     9          0.625              1.880              2.440
 Vibration    10          0.634              1.851              2.208
 Vibration    11          0.655              1.787              1.840
 Vibration    12          0.662              1.765              1.741
 Vibration    13          0.672              1.733              1.614
 Vibration    14          0.695              1.668              1.399
 Vibration    15          0.714              1.611              1.248
 Vibration    16          0.727              1.574              1.164
 Vibration    17          0.782              1.429              0.895
 Vibration    18          0.785              1.421              0.883
 Vibration    19          0.796              1.394              0.842
 Vibration    20          0.813              1.350              0.780
 Vibration    21          0.879              1.196              0.600
 Vibration    22          0.883              1.187              0.591
 Vibration    23          0.912              1.125              0.531
 Vibration    24          0.940              1.069              0.480

 Optimization completed on the basis of negligible forces.
    -- Stationary point found.
 Normal termination of Gaussian 16 at Mon Feb  1 00:55:19 2021.
