 Gaussian 16, Revision A.03,
 Gaussian 16:  ES64L-G16RevA.03 25-Dec-2016

 ----------------------------------------------------------------------
 # wB97XD def2tzvp, opt=(ts, noeigen, calcfc, maxcycles=70, maxstep=8),
  freq=noraman, scrf=(iefpcm, solvent=water)
 ----------------------------------------------------------------------

 ------------------------
 1_iteration/TS-514-1.out
 ------------------------
 Symbolic Z-matrix:
 Charge =  0 Multiplicity = 1

 SCF Done:  E(RwB97XD) =  -865.344814006     A.U. after   15 cycles
 SCF Done:  E(RwB97XD) =  -865.348376775     A.U. after   13 cycles
 SCF Done:  E(RwB97XD) =  -865.351095859     A.U. after   13 cycles
 SCF Done:  E(RwB97XD) =  -865.351780086     A.U. after   13 cycles
 SCF Done:  E(RwB97XD) =  -865.351980196     A.U. after   12 cycles
 SCF Done:  E(RwB97XD) =  -865.351886941     A.U. after   12 cycles
 SCF Done:  E(RwB97XD) =  -865.351477534     A.U. after   12 cycles
 SCF Done:  E(RwB97XD) =  -865.351498639     A.U. after   12 cycles
 SCF Done:  E(RwB97XD) =  -865.351904594     A.U. after   11 cycles
 SCF Done:  E(RwB97XD) =  -865.351924499     A.U. after   12 cycles
 SCF Done:  E(RwB97XD) =  -865.352068055     A.U. after   11 cycles
 SCF Done:  E(RwB97XD) =  -865.352069760     A.U. after   10 cycles
 SCF Done:  E(RwB97XD) =  -865.351991060     A.U. after   12 cycles
 SCF Done:  E(RwB97XD) =  -865.352071824     A.U. after   12 cycles
 SCF Done:  E(RwB97XD) =  -865.352072003     A.U. after   10 cycles
 SCF Done:  E(RwB97XD) =  -865.352072900     A.U. after    9 cycles
 SCF Done:  E(RwB97XD) =  -865.352054880     A.U. after   11 cycles
 SCF Done:  E(RwB97XD) =  -865.352073411     A.U. after   11 cycles
 SCF Done:  E(RwB97XD) =  -865.352073474     A.U. after    8 cycles
 Optimization completed.
    -- Stationary point found.
 Normal termination of Gaussian 16 at Tue Feb 16 16:42:43 2021.

 ---------------------------------------------------------------------
 #N Geom=AllCheck Guess=TCheck SCRF=Check GenChk RwB97XD/def2TZVP Freq
 ---------------------------------------------------------------------

 Structure from the checkpoint file:  "/beegfs/scratch/user/q/tla25/Gau-14977.chk"
 ------------------------
 1_iteration/TS-514-1.out
 ------------------------
 Charge =  0 Multiplicity = 1

                         Standard orientation:
 ---------------------------------------------------------------------
 Center     Atomic      Atomic             Coordinates (Angstroms)
 Number     Number       Type             X           Y           Z
 ---------------------------------------------------------------------
      1          6           0       -0.682240   -0.210511    0.197055
      2          6           0       -1.757958    0.655582   -0.154065
      3          8           0       -2.849055    0.228006   -0.559351
      4          6           0        0.652841    0.057323    0.592912
      5          6           0        3.099869    0.302707   -1.087837
      6          1           0        3.475077    0.316517   -2.111906
      7          1           0        3.348675    1.247164   -0.608394
      8          1           0        3.581161   -0.509669   -0.547810
      9          7           0        1.648317    0.111773   -1.054634
     10          1           0        1.170992    0.843329   -1.568960
     11          1           0        1.386329   -0.768377   -1.485172
     12          6           0        1.419307   -1.046792    1.291026
     13          1           0        0.947116   -1.228638    2.258747
     14          1           0        1.411582   -1.981088    0.736854
     15          1           0        2.449680   -0.746749    1.473311
     16          6           0        1.033054    1.411968    1.154604
     17          1           0        0.486750    1.579966    2.083513
     18          1           0        2.095441    1.425886    1.390969
     19          1           0        0.827201    2.238001    0.482913
     20         17           0       -1.055974   -1.922544   -0.115051
     21          6           0       -1.623619    2.166313   -0.034618
     22          1           0       -0.862397    2.560600   -0.709538
     23          1           0       -2.583426    2.595977   -0.312751
     24          1           0       -1.375925    2.484317    0.976868
 ---------------------------------------------------------------------

 SCF Done:  E(RwB97XD) =  -865.352073474     A.U. after    1 cycles

 The electronic state is 1-A.
 Alpha  occ. eigenvalues -- -101.67512 -19.19612 -14.48566 -10.36367 -10.35145
 Alpha  occ. eigenvalues --  -10.31977 -10.30134 -10.28564 -10.28159 -10.27281
 Alpha  occ. eigenvalues --   -9.56059  -7.30657  -7.29874  -7.29841  -1.10559
 Alpha  occ. eigenvalues --   -1.04150  -0.95608  -0.89923  -0.83791  -0.79873
 Alpha  occ. eigenvalues --   -0.79557  -0.76948  -0.67909  -0.63157  -0.60034
 Alpha  occ. eigenvalues --   -0.57343  -0.56239  -0.55090  -0.54379  -0.51760
 Alpha  occ. eigenvalues --   -0.50368  -0.49532  -0.49359  -0.48384  -0.47623
 Alpha  occ. eigenvalues --   -0.46621  -0.44980  -0.44605  -0.43227  -0.40925
 Alpha  occ. eigenvalues --   -0.39821  -0.37748  -0.31767  -0.26915
 Alpha virt. eigenvalues --    0.05235   0.09355   0.11386   0.12692   0.13236
 Alpha virt. eigenvalues --    0.14283   0.15384   0.16760   0.17139   0.17512
 Alpha virt. eigenvalues --    0.18838   0.19637   0.20121   0.20577   0.21693

 Mulliken charges:
               1
     1  C   -0.052070
     2  C    0.147437
     3  O   -0.519381
     4  C    0.070244
     5  C   -0.297255
     6  H    0.157954
     7  H    0.158993
     8  H    0.159712
     9  N   -0.320949
    10  H    0.281190
    11  H    0.281759
    12  C   -0.376435
    13  H    0.152687
    14  H    0.147738
    15  H    0.141444
    16  C   -0.410409
    17  H    0.166829
    18  H    0.154316
    19  H    0.152694
    20  Cl  -0.213081
    21  C   -0.395618
    22  H    0.139835
    23  H    0.125980
    24  H    0.146387
 Sum of Mulliken charges =  -0.00000

 Dipole moment (field-independent basis, Debye):
    X=             12.5066    Y=              3.7579    Z=             -0.5592  Tot=             13.0709
 Quadrupole moment (field-independent basis, Debye-Ang):
   XX=            -79.3017   YY=            -68.2003   ZZ=            -63.8169
   XY=             -2.6369   XZ=             -8.5154   YZ=             -0.1409

  Exact polarizability: 196.701  -1.599 149.096   2.716   1.187 126.368
 Approx polarizability: 148.940   1.771 121.881   2.850   1.453 109.857

 ******    1 imaginary frequencies (negative Signs) ******

                      1                      2                      3
                      A                      A                      A
 Frequencies --   -349.1374                27.4888                63.4027
 Red. masses --      5.8582                 2.4936                 2.4573
 Frc consts  --      0.4207                 0.0011                 0.0058
 IR Inten    --    901.6360                 2.0083                 6.4919

                      4                      5                      6
                      A                      A                      A
 Frequencies --     71.5601               131.9582               178.7818
 Red. masses --      4.8698                 3.7990                 1.1807
 Frc consts  --      0.0147                 0.0390                 0.0222
 IR Inten    --      3.4845                 8.6289                 1.2227

                      7                      8                      9
                      A                      A                      A
 Frequencies --    231.4179               242.1126               247.9585
 Red. masses --      2.1480                 1.6012                 1.7856
 Frc consts  --      0.0678                 0.0553                 0.0647
 IR Inten    --     10.5894                 0.2159                 4.2323

                     10                     11                     12
                      A                      A                      A
 Frequencies --    260.2746               293.4768               296.5531
 Red. masses --      1.9846                 1.4673                 1.8687
 Frc consts  --      0.0792                 0.0745                 0.0968
 IR Inten    --      2.1282                 2.9371                 3.9498

                     13                     14                     15
                      A                      A                      A
 Frequencies --    302.8371               359.7795               368.2584
 Red. masses --      2.0130                 2.8354                 3.4299
 Frc consts  --      0.1088                 0.2162                 0.2741
 IR Inten    --      0.5923                10.0888                10.3803

                     16                     17                     18
                      A                      A                      A
 Frequencies --    430.2808               453.2966               483.5662
 Red. masses --      2.6910                 4.1899                 3.4753
 Frc consts  --      0.2935                 0.5072                 0.4788
 IR Inten    --      4.2876                 8.4792               113.3760

                     19                     20                     21
                      A                      A                      A
 Frequencies --    579.7958               634.0347               638.0153
 Red. masses --      3.7654                 3.0521                 3.2545
 Frc consts  --      0.7458                 0.7229                 0.7805
 IR Inten    --     42.6469                52.5615                35.2660

                     22                     23                     24
                      A                      A                      A
 Frequencies --    675.3578               868.2235               921.5665
 Red. masses --      1.2721                 4.2781                 3.0858
 Frc consts  --      0.3419                 1.9001                 1.5441
 IR Inten    --     21.8733                80.2990                27.0408

                     25                     26                     27
                      A                      A                      A
 Frequencies --    963.1949              1008.6808              1015.5138
 Red. masses --      1.3258                 1.4732                 1.2106
 Frc consts  --      0.7247                 0.8831                 0.7356
 IR Inten    --      3.4006               147.3004                27.6112

                     28                     29                     30
                      A                      A                      A
 Frequencies --   1040.9801              1050.2151              1052.4676
 Red. masses --      1.6084                 1.4175                 1.5480
 Frc consts  --      1.0269                 0.9211                 1.0103
 IR Inten    --     11.5942                40.1112                10.0467

                     31                     32                     33
                      A                      A                      A
 Frequencies --   1063.3134              1092.6851              1125.3457
 Red. masses --      1.7538                 1.7551                 2.0632
 Frc consts  --      1.1683                 1.2346                 1.5395
 IR Inten    --    242.9415                43.6737                13.5482

                     34                     35                     36
                      A                      A                      A
 Frequencies --   1231.7650              1242.1743              1341.8420
 Red. masses --      3.0721                 1.4556                 2.6812
 Frc consts  --      2.7462                 1.3233                 2.8444
 IR Inten    --      4.9114                35.6202                40.6229

                     37                     38                     39
                      A                      A                      A
 Frequencies --   1352.5181              1388.3940              1412.0630
 Red. masses --      1.4506                 1.4742                 1.4863
 Frc consts  --      1.5635                 1.6743                 1.7461
 IR Inten    --      4.7033               120.0645               209.8243

                     40                     41                     42
                      A                      A                      A
 Frequencies --   1418.8707              1429.7692              1461.9819
 Red. masses --      1.9922                 1.2912                 1.1453
 Frc consts  --      2.3630                 1.5551                 1.4423
 IR Inten    --    617.5636               128.7110                45.8338

                     43                     44                     45
                      A                      A                      A
 Frequencies --   1469.3309              1478.7148              1489.0316
 Red. masses --      1.1856                 1.0479                 1.0733
 Frc consts  --      1.5081                 1.3500                 1.4021
 IR Inten    --     20.7050                 8.3505                28.2975

                     46                     47                     48
                      A                      A                      A
 Frequencies --   1495.2789              1495.4552              1509.6426
 Red. masses --      1.0489                 1.0494                 1.0469
 Frc consts  --      1.3818                 1.3828                 1.4058
 IR Inten    --     16.6379                15.2778                22.0488

                     49                     50                     51
                      A                      A                      A
 Frequencies --   1515.8627              1518.9053              1617.6656
 Red. masses --      1.1052                 1.0828                 7.3108
 Frc consts  --      1.4963                 1.4719                11.2717
 IR Inten    --     86.0199                18.0794               786.4234

                     52                     53                     54
                      A                      A                      A
 Frequencies --   1642.5621              3068.9762              3070.1337
 Red. masses --      1.0917                 1.0372                 1.0364
 Frc consts  --      1.7353                 5.7557                 5.7554
 IR Inten    --     31.5219                11.9409                41.0997

                     55                     56                     57
                      A                      A                      A
 Frequencies --   3071.4975              3083.3833              3142.9734
 Red. masses --      1.0394                 1.0406                 1.0994
 Frc consts  --      5.7775                 5.8289                 6.3985
 IR Inten    --     18.6143                20.2770                12.5873

                     58                     59                     60
                      A                      A                      A
 Frequencies --   3146.4007              3147.9721              3151.6687
 Red. masses --      1.0996                 1.1018                 1.1000
 Frc consts  --      6.4139                 6.4331                 6.4376
 IR Inten    --     18.4940                16.3245                41.1242

                     61                     62                     63
                      A                      A                      A
 Frequencies --   3165.9310              3174.9785              3178.5865
 Red. masses --      1.1037                 1.1054                 1.1030
 Frc consts  --      6.5180                 6.5654                 6.5659
 IR Inten    --     23.1600                21.0657                11.3578

                     64                     65                     66
                      A                      A                      A
 Frequencies --   3196.0245              3520.8277              3598.3306
 Red. masses --      1.0989                 1.0516                 1.0956
 Frc consts  --      6.6136                 7.6807                 8.3582
 IR Inten    --     10.3141                17.3790                39.1617

 - Thermochemistry -
 -------------------
 Temperature   298.150 Kelvin.  Pressure   1.00000 Atm.
 Atom     1 has atomic number  6 and mass  12.00000

 Molecular mass:   163.07639 amu.
 Principal axes and moments of inertia in atomic units:
                           1         2         3
     Eigenvalues --  1320.408932152.132272743.78725
           X            0.99907  -0.04211  -0.00969
           Y            0.04209   0.99911  -0.00283
           Z            0.00980   0.00242   0.99995
 This molecule is an asymmetric top.
 Rotational symmetry number  1.
 Warning -- assumption of classical behavior for rotation
           may cause significant error
 Rotational temperatures (Kelvin)      0.06560     0.04025     0.03157
 Rotational constants (GHZ):           1.36680     0.83858     0.65776
    1 imaginary frequencies ignored.
 Zero-point vibrational energy     540723.5 (Joules/Mol)
                                  129.23601 (Kcal/Mol)
 Warning -- explicit consideration of  18 degrees of freedom as
           vibrations may cause significant error
 Vibrational temperatures:     39.55    91.22   102.96   189.86   257.23
          (Kelvin)            332.96   348.35   356.76   374.48   422.25
                              426.67   435.72   517.64   529.84   619.08
                              652.19   695.74   834.20   912.23   917.96
                              971.69  1249.18  1325.93  1385.82  1451.27
                             1461.10  1497.74  1511.03  1514.27  1529.87
                             1572.13  1619.12  1772.24  1787.21  1930.61
                             1945.97  1997.59  2031.64  2041.44  2057.12
                             2103.47  2114.04  2127.54  2142.38  2151.37
                             2151.63  2172.04  2180.99  2185.37  2327.46
                             2363.28  4415.57  4417.24  4419.20  4436.30
                             4522.04  4526.97  4529.23  4534.55  4555.07
                             4568.09  4573.28  4598.37  5065.69  5177.20

 Zero-point correction=                           0.205951 (Hartree/Particle)
 Thermal correction to Energy=                    0.218343
 Thermal correction to Enthalpy=                  0.219287
 Thermal correction to Gibbs Free Energy=         0.166953
 Sum of electronic and zero-point Energies=           -865.146123
 Sum of electronic and thermal Energies=              -865.133731
 Sum of electronic and thermal Enthalpies=            -865.132787
 Sum of electronic and thermal Free Energies=         -865.185121

                     E (Thermal)             CV                S
                      KCal/Mol        Cal/Mol-Kelvin    Cal/Mol-Kelvin
 Total                  137.012             44.609            110.146
 Electronic               0.000              0.000              0.000
 Translational            0.889              2.981             41.176
 Rotational               0.889              2.981             30.434
 Vibrational            135.235             38.647             38.536
 Vibration     1          0.593              1.984              6.003
 Vibration     2          0.597              1.972              4.348
 Vibration     3          0.598              1.968              4.110
 Vibration     4          0.612              1.921              2.917
 Vibration     5          0.629              1.868              2.341
 Vibration     6          0.653              1.793              1.868
 Vibration     7          0.658              1.776              1.787
 Vibration     8          0.662              1.766              1.745
 Vibration     9          0.668              1.745              1.660
 Vibration    10          0.688              1.686              1.454
 Vibration    11          0.690              1.680              1.436
 Vibration    12          0.694              1.668              1.401
 Vibration    13          0.734              1.555              1.123
 Vibration    14          0.741              1.537              1.087
 Vibration    15          0.791              1.404              0.858
 Vibration    16          0.812              1.354              0.786
 Vibration    17          0.840              1.286              0.701
 Vibration    18          0.936              1.075              0.486

 Optimization completed.
    -- Stationary point found.
 Normal termination of Gaussian 16 at Tue Feb 16 17:04:16 2021.
