 Gaussian 16, Revision A.03,
 Gaussian 16:  ES64L-G16RevA.03 25-Dec-2016

 ----------------------------------------------------------------------
 # wB97XD def2tzvp, opt=(ts, noeigen, calcfc, maxcycles=70, maxstep=5),
  freq=noraman, scrf=(iefpcm, solvent=water)
 ----------------------------------------------------------------------

 ------------------------
 2_iteration/TS-578-2.out
 ------------------------
 Symbolic Z-matrix:
 Charge =  0 Multiplicity = 1

 SCF Done:  E(RwB97XD) =  -865.345704831     A.U. after   15 cycles
 SCF Done:  E(RwB97XD) =  -865.345704782     A.U. after    6 cycles
 Optimization completed.
    -- Stationary point found.
 Normal termination of Gaussian 16 at Wed Feb 17 10:36:58 2021.

 ---------------------------------------------------------------------
 #N Geom=AllCheck Guess=TCheck SCRF=Check GenChk RwB97XD/def2TZVP Freq
 ---------------------------------------------------------------------

 Structure from the checkpoint file:  "/beegfs/scratch/user/q/tla25/Gau-29794.chk"
 ------------------------
 2_iteration/TS-578-2.out
 ------------------------
 Charge =  0 Multiplicity = 1

                         Standard orientation:
 ---------------------------------------------------------------------
 Center     Atomic      Atomic             Coordinates (Angstroms)
 Number     Number       Type             X           Y           Z
 ---------------------------------------------------------------------
      1          6           0        0.626738   -0.454111   -0.504421
      2          6           0        1.772236    0.166399    0.082830
      3          8           0        2.920811   -0.283010   -0.083696
      4          6           0       -0.701046    0.007552   -0.438306
      5          6           0       -1.046160   -1.540015    1.840546
      6          1           0       -1.287619   -1.593273    2.900925
      7          1           0       -1.559037   -2.341074    1.313182
      8          1           0        0.029878   -1.651111    1.706116
      9          7           0       -1.441785   -0.253973    1.274326
     10          1           0       -2.449734   -0.159638    1.209962
     11          1           0       -1.104874    0.512158    1.845374
     12          6           0       -1.748453   -0.696034   -1.265184
     13          1           0       -1.767552   -1.761489   -1.040043
     14          1           0       -2.736933   -0.275906   -1.092674
     15          1           0       -1.507813   -0.579264   -2.322041
     16         17           0       -1.023224    1.788044   -0.524525
     17          6           0        0.861095   -1.774834   -1.210195
     18          1           0        0.553439   -1.758181   -2.259561
     19          1           0        1.926090   -1.992570   -1.180966
     20          1           0        0.338826   -2.611540   -0.735380
     21          6           0        1.676939    1.404311    0.960833
     22          1           0        0.762280    1.484896    1.542780
     23          1           0        2.528595    1.391256    1.639111
     24          1           0        1.747178    2.301266    0.342814
 ---------------------------------------------------------------------

 SCF Done:  E(RwB97XD) =  -865.345704782     A.U. after    1 cycles

 The electronic state is 1-A.
 Alpha  occ. eigenvalues -- -101.69241 -19.19250 -14.49813 -10.40254 -10.34430
 Alpha  occ. eigenvalues --  -10.32078 -10.29045 -10.26871 -10.26286 -10.25628
 Alpha  occ. eigenvalues --   -9.57863  -7.32473  -7.31664  -7.31618  -1.09919
 Alpha  occ. eigenvalues --   -1.05464  -0.96971  -0.88240  -0.83773  -0.81311
 Alpha  occ. eigenvalues --   -0.79463  -0.74946  -0.67747  -0.64205  -0.59596
 Alpha  occ. eigenvalues --   -0.58607  -0.56383  -0.55420  -0.53158  -0.51168
 Alpha  occ. eigenvalues --   -0.50423  -0.49784  -0.48716  -0.47746  -0.47563
 Alpha  occ. eigenvalues --   -0.46672  -0.44876  -0.44295  -0.43087  -0.41733
 Alpha  occ. eigenvalues --   -0.39047  -0.38694  -0.31352  -0.26690
 Alpha virt. eigenvalues --    0.05097   0.07783   0.09650   0.12559   0.13637
 Alpha virt. eigenvalues --    0.14974   0.15636   0.16449   0.16937   0.18323
 Alpha virt. eigenvalues --    0.19011   0.19687   0.20241   0.21129   0.21544

 Mulliken charges:
               1
     1  C   -0.235429
     2  C    0.223852
     3  O   -0.547337
     4  C    0.158971
     5  C   -0.313671
     6  H    0.165882
     7  H    0.165901
     8  H    0.163625
     9  N   -0.285661
    10  H    0.291503
    11  H    0.280177
    12  C   -0.379055
    13  H    0.144311
    14  H    0.152880
    15  H    0.162822
    16  Cl  -0.138873
    17  C   -0.393511
    18  H    0.119169
    19  H    0.131234
    20  H    0.125853
    21  C   -0.341213
    22  H    0.085335
    23  H    0.122630
    24  H    0.140604
 Sum of Mulliken charges =   0.00000

 Dipole moment (field-independent basis, Debye):
    X=            -10.4770    Y=             -1.4413    Z=              4.4874  Tot=             11.4883
 Quadrupole moment (field-independent basis, Debye-Ang):
   XX=            -82.4885   YY=            -68.8242   ZZ=            -61.6751
   XY=              7.4239   XZ=             -3.0537   YZ=             -0.1444

  Exact polarizability: 188.564  -2.479 150.025  -3.839   3.395 136.339
 Approx polarizability: 148.820  -4.125 123.754  -3.735   1.589 114.079

 ******    1 imaginary frequencies (negative Signs) ******

                      1                      2                      3
                      A                      A                      A
 Frequencies --   -381.1846                72.0310                80.2354
 Red. masses --      5.6018                 4.4508                 2.8667
 Frc consts  --      0.4796                 0.0136                 0.0109
 IR Inten    --    848.4670                 5.9961                 3.3571

                      4                      5                      6
                      A                      A                      A
 Frequencies --     97.7400               153.1353               159.4329
 Red. masses --      2.1231                 1.3520                 1.6048
 Frc consts  --      0.0120                 0.0187                 0.0240
 IR Inten    --     14.3132                 1.6525                 2.0083

                      7                      8                      9
                      A                      A                      A
 Frequencies --    178.9905               188.5390               218.7408
 Red. masses --      1.5353                 1.2263                 2.7665
 Frc consts  --      0.0290                 0.0257                 0.0780
 IR Inten    --      1.9326                 0.5049                 8.7405

                     10                     11                     12
                      A                      A                      A
 Frequencies --    247.7356               285.8646               313.4277
 Red. masses --      2.6686                 2.0313                 1.8973
 Frc consts  --      0.0965                 0.0978                 0.1098
 IR Inten    --      1.3619                 2.7875                31.2428

                     13                     14                     15
                      A                      A                      A
 Frequencies --    328.0651               341.2128               367.9069
 Red. masses --      2.9775                 2.1466                 4.0753
 Frc consts  --      0.1888                 0.1473                 0.3250
 IR Inten    --      6.8603                20.9419                10.3999

                     16                     17                     18
                      A                      A                      A
 Frequencies --    385.2733               450.7031               532.3954
 Red. masses --      2.3125                 4.4305                 3.1123
 Frc consts  --      0.2022                 0.5303                 0.5198
 IR Inten    --      0.9594                65.9424                12.6213

                     19                     20                     21
                      A                      A                      A
 Frequencies --    544.9800               617.3260               654.3038
 Red. masses --      4.5358                 3.0732                 2.8151
 Frc consts  --      0.7937                 0.6900                 0.7101
 IR Inten    --     89.6397                19.2130                48.2568

                     22                     23                     24
                      A                      A                      A
 Frequencies --    701.8963               773.7853               943.4534
 Red. masses --      1.4217                 2.9697                 1.9936
 Frc consts  --      0.4127                 1.0476                 1.0455
 IR Inten    --     32.3252               143.3882               113.9697

                     25                     26                     27
                      A                      A                      A
 Frequencies --    979.6560              1005.3817              1036.6156
 Red. masses --      1.6905                 1.0906                 1.6317
 Frc consts  --      0.9559                 0.6495                 1.0330
 IR Inten    --    142.1082                29.0101                16.1994

                     28                     29                     30
                      A                      A                      A
 Frequencies --   1046.0385              1055.7340              1068.6115
 Red. masses --      1.2254                 1.5036                 1.5765
 Frc consts  --      0.7900                 0.9874                 1.0607
 IR Inten    --     32.1760                74.5730                16.1440

                     31                     32                     33
                      A                      A                      A
 Frequencies --   1081.9010              1090.9009              1117.6422
 Red. masses --      3.2794                 1.8702                 1.9054
 Frc consts  --      2.2616                 1.3113                 1.4023
 IR Inten    --      2.9983               112.0901                71.7164

                     34                     35                     36
                      A                      A                      A
 Frequencies --   1150.7945              1235.8992              1342.5230
 Red. masses --      3.5031                 1.3777                 1.3249
 Frc consts  --      2.7334                 1.2399                 1.4070
 IR Inten    --     12.7057                42.6996                 7.4466

                     37                     38                     39
                      A                      A                      A
 Frequencies --   1371.1834              1387.1013              1395.1938
 Red. masses --      2.0554                 1.3228                 2.0264
 Frc consts  --      2.2768                 1.4995                 2.3241
 IR Inten    --     58.5637                 5.2232               273.4113

                     40                     41                     42
                      A                      A                      A
 Frequencies --   1405.2595              1430.6214              1454.4872
 Red. masses --      1.9143                 1.5273                 1.2125
 Frc consts  --      2.2273                 1.8417                 1.5114
 IR Inten    --    611.1097               334.3029                52.3927

                     43                     44                     45
                      A                      A                      A
 Frequencies --   1463.8124              1482.5474              1485.5954
 Red. masses --      1.1393                 1.0642                 1.0561
 Frc consts  --      1.4383                 1.3782                 1.3733
 IR Inten    --      8.6104                23.8942                10.6929

                     46                     47                     48
                      A                      A                      A
 Frequencies --   1487.9380              1495.7857              1497.7542
 Red. masses --      1.1180                 1.0755                 1.0604
 Frc consts  --      1.4583                 1.4177                 1.4015
 IR Inten    --     34.1691                27.5287                82.0200

                     49                     50                     51
                      A                      A                      A
 Frequencies --   1501.3349              1509.2532              1604.6919
 Red. masses --      1.0496                 1.0503                 7.6550
 Frc consts  --      1.3939                 1.4096                11.6139
 IR Inten    --     31.1967                32.8269               763.4052

                     52                     53                     54
                      A                      A                      A
 Frequencies --   1646.2126              3026.0220              3071.5348
 Red. masses --      1.0895                 1.0422                 1.0389
 Frc consts  --      1.7396                 5.6227                 5.7746
 IR Inten    --     56.4412               101.0105                17.0593

                     55                     56                     57
                      A                      A                      A
 Frequencies --   3072.4883              3073.2869              3075.0681
 Red. masses --      1.0681                 1.0632                 1.0359
 Frc consts  --      5.9409                 5.9163                 5.7711
 IR Inten    --      6.9059                77.0470                13.7883

                     58                     59                     60
                      A                      A                      A
 Frequencies --   3144.1606              3152.4152              3153.1661
 Red. masses --      1.0987                 1.1018                 1.1041
 Frc consts  --      6.3995                 6.4512                 6.4676
 IR Inten    --     20.8521                 8.5208                10.0332

                     61                     62                     63
                      A                      A                      A
 Frequencies --   3154.7990              3164.7817              3170.9673
 Red. masses --      1.0955                 1.1045                 1.1014
 Frc consts  --      6.4243                 6.5179                 6.5248
 IR Inten    --      5.6666                13.8329                46.5170

                     64                     65                     66
                      A                      A                      A
 Frequencies --   3173.3428              3523.1031              3604.1095
 Red. masses --      1.1059                 1.0516                 1.0955
 Frc consts  --      6.5616                 7.6907                 8.3844
 IR Inten    --     12.3297                47.4329                53.1294

 - Thermochemistry -
 -------------------
 Temperature   298.150 Kelvin.  Pressure   1.00000 Atm.
 Atom     1 has atomic number  6 and mass  12.00000

 Molecular mass:   163.07639 amu.
 Principal axes and moments of inertia in atomic units:
                           1         2         3
     Eigenvalues --  1473.732431953.166972257.75170
           X            0.99357   0.11323   0.00228
           Y           -0.11297   0.98938   0.09144
           Z            0.00810  -0.09111   0.99581
 This molecule is an asymmetric top.
 Rotational symmetry number  1.
 Warning -- assumption of classical behavior for rotation
           may cause significant error
 Rotational temperatures (Kelvin)      0.05877     0.04435     0.03836
 Rotational constants (GHZ):           1.22461     0.92401     0.79935
    1 imaginary frequencies ignored.
 Zero-point vibrational energy     538480.4 (Joules/Mol)
                                  128.69990 (Kcal/Mol)
 Warning -- explicit consideration of  19 degrees of freedom as
           vibrations may cause significant error
 Vibrational temperatures:    103.64   115.44   140.63   220.33   229.39
          (Kelvin)            257.53   271.27   314.72   356.44   411.30
                              450.95   472.01   490.93   529.34   554.32
                              648.46   766.00   784.10   888.19   941.40
                             1009.87  1113.30  1357.42  1409.51  1446.52
                             1491.46  1505.02  1518.97  1537.49  1556.61
                             1569.56  1608.04  1655.74  1778.18  1931.59
                             1972.83  1995.73  2007.37  2021.85  2058.35
                             2092.68  2106.10  2133.05  2137.44  2140.81
                             2152.10  2154.93  2160.09  2171.48  2308.79
                             2368.53  4353.77  4419.25  4420.63  4421.77
                             4424.34  4523.75  4535.62  4536.70  4539.05
                             4553.42  4562.31  4565.73  5068.96  5185.51

 Zero-point correction=                           0.205096 (Hartree/Particle)
 Thermal correction to Energy=                    0.217547
 Thermal correction to Enthalpy=                  0.218491
 Thermal correction to Gibbs Free Energy=         0.167081
 Sum of electronic and zero-point Energies=           -865.140608
 Sum of electronic and thermal Energies=              -865.128158
 Sum of electronic and thermal Enthalpies=            -865.127214
 Sum of electronic and thermal Free Energies=         -865.178624

                     E (Thermal)             CV                S
                      KCal/Mol        Cal/Mol-Kelvin    Cal/Mol-Kelvin
 Total                  136.513             44.910            108.202
 Electronic               0.000              0.000              0.000
 Translational            0.889              2.981             41.176
 Rotational               0.889              2.981             30.253
 Vibrational            134.735             38.948             36.773
 Vibration     1          0.598              1.967              4.097
 Vibration     2          0.600              1.963              3.885
 Vibration     3          0.603              1.951              3.499
 Vibration     4          0.619              1.899              2.633
 Vibration     5          0.621              1.892              2.557
 Vibration     6          0.629              1.868              2.339
 Vibration     7          0.633              1.856              2.242
 Vibration     8          0.647              1.813              1.969
 Vibration     9          0.661              1.767              1.747
 Vibration    10          0.684              1.700              1.498
 Vibration    11          0.701              1.648              1.344
 Vibration    12          0.711              1.619              1.270
 Vibration    13          0.721              1.593              1.206
 Vibration    14          0.741              1.538              1.089
 Vibration    15          0.754              1.502              1.018
 Vibration    16          0.809              1.359              0.794
 Vibration    17          0.887              1.178              0.582
 Vibration    18          0.900              1.151              0.555
 Vibration    19          0.977              0.995              0.421

 Optimization completed.
    -- Stationary point found.
 Normal termination of Gaussian 16 at Wed Feb 17 10:59:22 2021.
