 Gaussian 16, Revision A.03,
 Gaussian 16:  ES64L-G16RevA.03 25-Dec-2016

 ----------------------------------------------------------------------
 # wB97XD def2tzvp, opt=(ts, noeigen, calcfc, maxcycles=70, maxstep=3),
  freq=noraman, scrf=(iefpcm, solvent=water)
 ----------------------------------------------------------------------

 ------------------------
 3_iteration/TS-528-3.out
 ------------------------
 Symbolic Z-matrix:
 Charge =  0 Multiplicity = 1

 SCF Done:  E(RwB97XD) =  -3362.82916277     A.U. after   15 cycles
 Optimization completed.
    -- Stationary point found.
 Normal termination of Gaussian 16 at Wed Feb 17 22:36:08 2021.

 ---------------------------------------------------------------------
 #N Geom=AllCheck Guess=TCheck SCRF=Check GenChk RwB97XD/def2TZVP Freq
 ---------------------------------------------------------------------

 Structure from the checkpoint file:  "/beegfs/scratch/user/q/tla25/Gau-41251.chk"
 ------------------------
 3_iteration/TS-528-3.out
 ------------------------
 Charge =  0 Multiplicity = 1

                         Standard orientation:
 ---------------------------------------------------------------------
 Center     Atomic      Atomic             Coordinates (Angstroms)
 Number     Number       Type             X           Y           Z
 ---------------------------------------------------------------------
      1          6           0        0.419631    0.173640   -0.020449
      2          6           0       -0.134470   -1.113230    0.337361
      3          8           0        0.534740   -2.011111    0.858761
      4          6           0        1.790341    0.345259   -0.129209
      5          6           0        2.041281    0.820479    2.769281
      6          1           0        2.163631    0.425129    3.779821
      7          1           0        2.540111    1.786319    2.705761
      8          1           0        0.976381    0.965139    2.581851
      9          7           0        2.570171   -0.071471    1.754291
     10          1           0        3.580341   -0.126541    1.759461
     11          1           0        2.173400   -1.004181    1.815591
     12          6           0        2.428931    1.683589   -0.344639
     13          1           0        1.947591    2.435339    0.279871
     14          1           0        3.490111    1.645419   -0.110589
     15          1           0        2.325101    1.985919   -1.387159
     16         35           0        2.839690   -1.043241   -1.018619
     17          6           0       -0.479709    1.363630   -0.068509
     18          6           0       -0.555169    2.169340   -1.204759
     19          6           0       -1.413338    3.256610   -1.258759
     20          6           0       -2.229178    3.556020   -0.176779
     21          6           0       -2.175599    2.759000    0.957711
     22          6           0       -1.306959    1.679810    1.009671
     23          1           0        0.053211    1.926840   -2.067389
     24          1           0       -1.453318    3.864840   -2.153889
     25          1           0       -2.904258    4.401340   -0.219159
     26          1           0       -2.809278    2.979710    1.807681
     27          1           0       -1.277819    1.063910    1.900781
     28          6           0       -1.593190   -1.376610    0.097161
     29          6           0       -2.215540   -0.993990   -1.087109
     30          6           0       -3.548940   -1.300989   -1.308469
     31          6           0       -4.277260   -1.975839   -0.338199
     32          6           0       -3.662420   -2.359449    0.846081
     33          6           0       -2.322960   -2.071920    1.055811
     34          1           0       -1.651669   -0.459730   -1.841009
     35          1           0       -4.021690   -1.010389   -2.238079
     36          1           0       -5.322160   -2.204719   -0.505969
     37          1           0       -4.227320   -2.885779    1.605091
     38          1           0       -1.833370   -2.378040    1.971701
 ---------------------------------------------------------------------

 SCF Done:  E(RwB97XD) =  -3362.82916277     A.U. after    1 cycles

 The electronic state is 1-A.
 Alpha  occ. eigenvalues -- -483.12537 -62.67379 -56.46490 -56.46148 -56.46131
 Alpha  occ. eigenvalues --  -19.22391 -14.45884 -10.39412 -10.36670 -10.31009
 Alpha  occ. eigenvalues --  -10.30220 -10.29720 -10.29352 -10.29320 -10.29258
 Alpha  occ. eigenvalues --  -10.29153 -10.29141 -10.29063 -10.28923 -10.28907
 Alpha  occ. eigenvalues --  -10.28808 -10.28751 -10.28695 -10.27658  -8.81481
 Alpha  occ. eigenvalues --   -6.63611  -6.62528  -6.62471  -2.74000  -2.73700
 Alpha  occ. eigenvalues --   -2.73655  -2.72778  -2.72778  -1.13090  -1.01872
 Alpha  occ. eigenvalues --   -0.97337  -0.96623  -0.93923  -0.88361  -0.85990
 Alpha  occ. eigenvalues --   -0.85329  -0.84988  -0.83421  -0.80973  -0.77797
 Alpha  occ. eigenvalues --   -0.73559  -0.70680  -0.70267  -0.69925  -0.67186
 Alpha  occ. eigenvalues --   -0.62882  -0.62045  -0.61598  -0.58251  -0.56886
 Alpha  occ. eigenvalues --   -0.56572  -0.55662  -0.55055  -0.54172  -0.53642
 Alpha  occ. eigenvalues --   -0.52929  -0.52705  -0.51223  -0.50841  -0.50590
 Alpha  occ. eigenvalues --   -0.49809  -0.49288  -0.47570  -0.47095  -0.46586
 Alpha  occ. eigenvalues --   -0.45889  -0.45154  -0.44207  -0.42957  -0.42767
 Alpha  occ. eigenvalues --   -0.42304  -0.41361  -0.37243  -0.36026  -0.35200
 Alpha  occ. eigenvalues --   -0.34404  -0.33679  -0.33404  -0.32217  -0.27995
 Alpha virt. eigenvalues --    0.00483   0.02827   0.05131   0.05470   0.06792
 Alpha virt. eigenvalues --    0.06952   0.10561   0.12636   0.13424   0.13650
 Alpha virt. eigenvalues --    0.14338   0.15431   0.15939   0.16308   0.16660

 Mulliken charges:
               1
     1  C   -0.239486
     2  C    0.329447
     3  O   -0.491319
     4  C    0.188189
     5  C   -0.274474
     6  H    0.146956
     7  H    0.152426
     8  H    0.123939
     9  N   -0.390416
    10  H    0.273482
    11  H    0.268293
    12  C   -0.393954
    13  H    0.162576
    14  H    0.159493
    15  H    0.161728
    16  Br  -0.117532
    17  C    0.156061
    18  C   -0.275833
    19  C   -0.140878
    20  C   -0.140702
    21  C   -0.168321
    22  C   -0.232411
    23  H    0.158662
    24  H    0.139917
    25  H    0.142182
    26  H    0.139092
    27  H    0.164885
    28  C    0.145543
    29  C   -0.221845
    30  C   -0.158838
    31  C   -0.124993
    32  C   -0.149427
    33  C   -0.225272
    34  H    0.161564
    35  H    0.142499
    36  H    0.145970
    37  H    0.142761
    38  H    0.140036
 Sum of Mulliken charges =  -0.00000

 Dipole moment (field-independent basis, Debye):
    X=              1.3320    Y=              5.0799    Z=              2.7116  Tot=              5.9104
 Quadrupole moment (field-independent basis, Debye-Ang):
   XX=           -112.6810   YY=           -135.4337   ZZ=           -117.2706
   XY=              6.7954   XZ=              8.8767   YZ=             -2.0736

  Exact polarizability: 377.806  -9.949 303.857   2.838 -25.757 309.797
 Approx polarizability: 283.411 -11.531 247.321  -0.858 -23.840 264.135

 ******    1 imaginary frequencies (negative Signs) ******

                      1                      2                      3
                      A                      A                      A
 Frequencies --   -360.0666                28.3839                41.3786
 Red. masses --      5.2746                 5.2257                 4.3466
 Frc consts  --      0.4029                 0.0025                 0.0044
 IR Inten    --    740.3367                 1.4102                 0.6051

                      4                      5                      6
                      A                      A                      A
 Frequencies --     52.5688                63.5827                64.9904
 Red. masses --      4.6818                 4.2578                 4.2959
 Frc consts  --      0.0076                 0.0101                 0.0107
 IR Inten    --      1.6284                 0.5264                 2.6603

                      7                      8                      9
                      A                      A                      A
 Frequencies --     87.3280               108.5740               134.4979
 Red. masses --      2.5436                 5.1386                 2.6299
 Frc consts  --      0.0114                 0.0357                 0.0280
 IR Inten    --      0.7639                 1.4021                20.8454

                     10                     11                     12
                      A                      A                      A
 Frequencies --    135.1512               153.1664               180.9165
 Red. masses --      4.1201                 4.7456                 1.7513
 Frc consts  --      0.0443                 0.0656                 0.0338
 IR Inten    --      2.8846                 3.8014                 0.5105

                     13                     14                     15
                      A                      A                      A
 Frequencies --    206.7447               219.3965               243.4683
 Red. masses --      2.9026                 4.8827                 2.5759
 Frc consts  --      0.0731                 0.1385                 0.0900
 IR Inten    --      8.7723                11.0644                 1.9858

                     16                     17                     18
                      A                      A                      A
 Frequencies --    244.3703               270.0408               301.0651
 Red. masses --      3.9029                 5.0465                 1.6477
 Frc consts  --      0.1373                 0.2168                 0.0880
 IR Inten    --     24.1995                 3.7338                12.2674

                     19                     20                     21
                      A                      A                      A
 Frequencies --    310.9183               346.1668               371.1894
 Red. masses --      1.8913                 4.9929                 3.6191
 Frc consts  --      0.1077                 0.3525                 0.2938
 IR Inten    --      3.4861                26.4825                 3.9745

                     22                     23                     24
                      A                      A                      A
 Frequencies --    403.2647               419.8731               430.5106
 Red. masses --      4.6772                 2.9250                 3.1641
 Frc consts  --      0.4481                 0.3038                 0.3455
 IR Inten    --      4.3412                 1.8541                 0.6650

                     25                     26                     27
                      A                      A                      A
 Frequencies --    434.4035               525.4130               534.8586
 Red. masses --      4.4184                 3.3893                 4.7650
 Frc consts  --      0.4913                 0.5513                 0.8031
 IR Inten    --      4.3280                42.8162                51.4465

                     28                     29                     30
                      A                      A                      A
 Frequencies --    544.8309               609.4482               635.0795
 Red. masses --      5.3675                 1.5562                 6.2636
 Frc consts  --      0.9387                 0.3406                 1.4884
 IR Inten    --     45.7104                21.2744                 0.7242

                     31                     32                     33
                      A                      A                      A
 Frequencies --    638.6722               663.4445               678.8055
 Red. masses --      6.0823                 3.1339                 5.5125
 Frc consts  --      1.4617                 0.8127                 1.4965
 IR Inten    --      3.5942               173.2787                 7.2661

                     34                     35                     36
                      A                      A                      A
 Frequencies --    722.0497               731.6184               740.3918
 Red. masses --      1.6943                 1.6084                 3.6353
 Frc consts  --      0.5204                 0.5072                 1.1741
 IR Inten    --     70.7781                84.8763                73.0100

                     37                     38                     39
                      A                      A                      A
 Frequencies --    758.4656               808.2287               831.1656
 Red. masses --      2.8231                 2.3869                 3.4254
 Frc consts  --      0.9569                 0.9187                 1.3943
 IR Inten    --     73.8938                49.7251                55.0099

                     40                     41                     42
                      A                      A                      A
 Frequencies --    879.6516               881.0860               902.1311
 Red. masses --      1.2491                 1.2489                 5.5165
 Frc consts  --      0.5695                 0.5712                 2.6451
 IR Inten    --      1.2088                 0.3325                20.3600

                     43                     44                     45
                      A                      A                      A
 Frequencies --    952.2396               960.3747               966.9075
 Red. masses --      1.1073                 1.4397                 1.4882
 Frc consts  --      0.5916                 0.7823                 0.8198
 IR Inten    --    170.7066                 3.0118                 8.1021

                     46                     47                     48
                      A                      A                      A
 Frequencies --   1012.6010              1015.6188              1016.7118
 Red. masses --      1.3236                 1.3896                 1.3461
 Frc consts  --      0.7996                 0.8445                 0.8198
 IR Inten    --     57.4446                 0.8942                 6.4199

                     49                     50                     51
                      A                      A                      A
 Frequencies --   1024.1875              1026.5887              1027.4806
 Red. masses --      2.3956                 5.2163                 2.1744
 Frc consts  --      1.4806                 3.2389                 1.3525
 IR Inten    --     10.1653                 2.1402                 2.4744

                     52                     53                     54
                      A                      A                      A
 Frequencies --   1030.3788              1032.4798              1048.2000
 Red. masses --      1.7508                 1.3800                 1.5453
 Frc consts  --      1.0952                 0.8667                 1.0004
 IR Inten    --      2.4624                 2.6735                93.6373

                     55                     56                     57
                      A                      A                      A
 Frequencies --   1059.0296              1067.7672              1093.8991
 Red. masses --      2.1170                 1.8957                 3.8282
 Frc consts  --      1.3989                 1.2734                 2.6990
 IR Inten    --     18.4091                 2.4185                22.4317

                     58                     59                     60
                      A                      A                      A
 Frequencies --   1107.0543              1112.8042              1116.5590
 Red. masses --      2.1401                 1.6160                 1.8923
 Frc consts  --      1.5453                 1.1791                 1.3900
 IR Inten    --     88.7481                18.4375                87.0930

                     61                     62                     63
                      A                      A                      A
 Frequencies --   1149.7860              1181.8290              1182.8228
 Red. masses --      2.6817                 1.4210                 1.1333
 Frc consts  --      2.0888                 1.1693                 0.9342
 IR Inten    --     36.4973                20.4586                 0.8113

                     64                     65                     66
                      A                      A                      A
 Frequencies --   1183.5415              1203.4053              1212.8107
 Red. masses --      1.1369                 1.1262                 1.1252
 Frc consts  --      0.9383                 0.9609                 0.9751
 IR Inten    --      0.2846                12.8908                 0.3791

                     67                     68                     69
                      A                      A                      A
 Frequencies --   1273.9134              1308.0651              1324.6603
 Red. masses --      4.4143                 4.4456                 4.0493
 Frc consts  --      4.2207                 4.4817                 4.1863
 IR Inten    --     82.1610                74.8851                83.4566

                     70                     71                     72
                      A                      A                      A
 Frequencies --   1344.1227              1347.1454              1357.5537
 Red. masses --      1.6027                 2.9819                 1.5134
 Frc consts  --      1.7061                 3.1884                 1.6433
 IR Inten    --    114.4128               186.9203                45.5592

                     73                     74                     75
                      A                      A                      A
 Frequencies --   1363.9659              1410.8082              1436.3742
 Red. masses --      1.5502                 1.4612                 2.2378
 Frc consts  --      1.6992                 1.7135                 2.7203
 IR Inten    --     43.8090               204.6704               638.5337

                     76                     77                     78
                      A                      A                      A
 Frequencies --   1460.3303              1476.3804              1487.8171
 Red. masses --      1.2979                 1.0535                 1.5404
 Frc consts  --      1.6308                 1.3529                 2.0090
 IR Inten    --     96.2445                20.7347                12.7334

                     79                     80                     81
                      A                      A                      A
 Frequencies --   1489.3034              1491.3841              1496.2344
 Red. masses --      1.3384                 1.6553                 1.4283
 Frc consts  --      1.7490                 2.1693                 1.8840
 IR Inten    --      9.3504                11.9004               116.3754

                     82                     83                     84
                      A                      A                      A
 Frequencies --   1507.0677              1539.7047              1544.1080
 Red. masses --      1.0450                 2.3177                 2.3558
 Frc consts  --      1.3984                 3.2373                 3.3093
 IR Inten    --      2.8406                 2.3082                57.4950

                     85                     86                     87
                      A                      A                      A
 Frequencies --   1635.6674              1646.3103              1651.3797
 Red. masses --      3.5015                 3.6596                 1.8417
 Frc consts  --      5.5194                 5.8439                 2.9592
 IR Inten    --    393.7842                43.6042                11.3506

                     88                     89                     90
                      A                      A                      A
 Frequencies --   1664.0260              1672.8196              1675.4975
 Red. masses --      4.0611                 5.8681                 5.9899
 Frc consts  --      6.6255                 9.6749                 9.9073
 IR Inten    --    166.3552                 4.3754                27.2071

                     91                     92                     93
                      A                      A                      A
 Frequencies --   3053.8957              3074.4392              3123.5158
 Red. masses --      1.0355                 1.0362                 1.1012
 Frc consts  --      5.6899                 5.7705                 6.3298
 IR Inten    --     67.7029                 8.1457                15.7036

                     94                     95                     96
                      A                      A                      A
 Frequencies --   3148.9022              3153.0074              3168.6306
 Red. masses --      1.1014                 1.1042                 1.1035
 Frc consts  --      6.4344                 6.4676                 6.5278
 IR Inten    --      8.1053                23.4365                19.7151

                     97                     98                     99
                      A                      A                      A
 Frequencies --   3188.7427              3193.3779              3194.7017
 Red. masses --      1.0866                 1.0875                 1.0858
 Frc consts  --      6.5096                 6.5341                 6.5294
 IR Inten    --      9.4281                 0.5954                 0.4261

                    100                    101                    102
                      A                      A                      A
 Frequencies --   3202.0472              3202.8515              3209.4576
 Red. masses --      1.0883                 1.0912                 1.0936
 Frc consts  --      6.5746                 6.5952                 6.6371
 IR Inten    --      3.6224                11.8821                35.3685

                    103                    104                    105
                      A                      A                      A
 Frequencies --   3209.7703              3216.2613              3220.5275
 Red. masses --      1.0931                 1.0950                 1.0988
 Frc consts  --      6.6355                 6.6739                 6.7147
 IR Inten    --     22.8044                32.2662                19.0306

                    106                    107                    108
                      A                      A                      A
 Frequencies --   3223.0092              3493.9031              3608.8790
 Red. masses --      1.0988                 1.0548                 1.0935
 Frc consts  --      6.7250                 7.5864                 8.3907
 IR Inten    --     17.3376                42.3067                93.7473

 - Thermochemistry -
 -------------------
 Temperature   298.150 Kelvin.  Pressure   1.00000 Atm.
 Atom     1 has atomic number  6 and mass  12.00000

 Molecular mass:   331.05718 amu.
 Principal axes and moments of inertia in atomic units:
                           1         2         3
     Eigenvalues --  5037.195618232.52130**********
           X            0.99796   0.05497   0.03260
           Y           -0.05426   0.99828  -0.02217
           Z           -0.03376   0.02036   0.99922
 This molecule is an asymmetric top.
 Rotational symmetry number  1.
 Warning -- assumption of classical behavior for rotation
           may cause significant error
 Rotational temperatures (Kelvin)      0.01719     0.01052     0.00841
 Rotational constants (GHZ):           0.35828     0.21922     0.17515
    1 imaginary frequencies ignored.
 Zero-point vibrational energy     817126.8 (Joules/Mol)
                                  195.29799 (Kcal/Mol)
 Warning -- explicit consideration of  28 degrees of freedom as
           vibrations may cause significant error
 Vibrational temperatures:     40.84    59.53    75.63    91.48    93.51
          (Kelvin)            125.65   156.21   193.51   194.45   220.37
                              260.30   297.46   315.66   350.30   351.59
                              388.53   433.17   447.34   498.06   534.06
                              580.21   604.10   619.41   625.01   755.95
                              769.54   783.89   876.86   913.74   918.91
                              954.55   976.65  1038.87  1052.64  1065.26
                             1091.26  1162.86  1195.86  1265.62  1267.69
                             1297.97  1370.06  1381.77  1391.16  1456.91
                             1461.25  1462.82  1473.58  1477.03  1478.32
                             1482.49  1485.51  1508.13  1523.71  1536.28
                             1573.88  1592.80  1601.08  1606.48  1654.29
                             1700.39  1701.82  1702.85  1731.43  1744.96
                             1832.88  1882.01  1905.89  1933.89  1938.24
                             1953.22  1962.44  2029.84  2066.62  2101.09
                             2124.18  2140.64  2142.78  2145.77  2152.75
                             2168.33  2215.29  2221.63  2353.36  2368.67
                             2375.97  2394.16  2406.81  2410.67  4393.87
                             4423.43  4494.04  4530.57  4536.47  4558.95
                             4587.89  4594.56  4596.46  4607.03  4608.19
                             4617.69  4618.14  4627.48  4633.62  4637.19
                             5026.95  5192.37

 Zero-point correction=                           0.311227 (Hartree/Particle)
 Thermal correction to Energy=                    0.330322
 Thermal correction to Enthalpy=                  0.331266
 Thermal correction to Gibbs Free Energy=         0.262252
 Sum of electronic and zero-point Energies=          -3362.517936
 Sum of electronic and thermal Energies=             -3362.498840
 Sum of electronic and thermal Enthalpies=           -3362.497896
 Sum of electronic and thermal Free Energies=        -3362.566911

                     E (Thermal)             CV                S
                      KCal/Mol        Cal/Mol-Kelvin    Cal/Mol-Kelvin
 Total                  207.280             71.922            145.253
 Electronic               0.000              0.000              0.000
 Translational            0.889              2.981             43.286
 Rotational               0.889              2.981             34.412
 Vibrational            205.503             65.960             67.555
 Vibration     1          0.593              1.984              5.939
 Vibration     2          0.594              1.981              5.192
 Vibration     3          0.596              1.977              4.718
 Vibration     4          0.597              1.972              4.343
 Vibration     5          0.597              1.971              4.300
 Vibration     6          0.601              1.958              3.719
 Vibration     7          0.606              1.942              3.294
 Vibration     8          0.613              1.919              2.881
 Vibration     9          0.613              1.918              2.871
 Vibration    10          0.619              1.899              2.633
 Vibration    11          0.630              1.866              2.319
 Vibration    12          0.641              1.830              2.072
 Vibration    13          0.647              1.812              1.964
 Vibration    14          0.659              1.774              1.777
 Vibration    15          0.660              1.772              1.771
 Vibration    16          0.674              1.728              1.596
 Vibration    17          0.693              1.672              1.411
 Vibration    18          0.700              1.653              1.357
 Vibration    19          0.724              1.583              1.184
 Vibration    20          0.743              1.531              1.075
 Vibration    21          0.769              1.463              0.951
 Vibration    22          0.783              1.427              0.892
 Vibration    23          0.792              1.404              0.857
 Vibration    24          0.795              1.395              0.844
 Vibration    25          0.880              1.194              0.598
 Vibration    26          0.890              1.173              0.576
 Vibration    27          0.900              1.151              0.555
 Vibration    28          0.968              1.012              0.434

 Optimization completed.
    -- Stationary point found.
 Normal termination of Gaussian 16 at Thu Feb 18 01:14:21 2021.
