 Gaussian 16, Revision A.03,
 Gaussian 16:  ES64L-G16RevA.03 25-Dec-2016

 ----------------------------------------------------------------------
 # wB97XD def2tzvp, opt=(ts, noeigen, calcfc, maxcycles=70, maxstep=5),
  freq=noraman, scrf=(iefpcm, solvent=water)
 ----------------------------------------------------------------------

 ------------------------
 2_iteration/TS-583-2.out
 ------------------------
 Symbolic Z-matrix:
 Charge =  0 Multiplicity = 1

 SCF Done:  E(RwB97XD) =  -1112.46266290     A.U. after   14 cycles
 SCF Done:  E(RwB97XD) =  -1112.46266234     A.U. after    8 cycles
 SCF Done:  E(RwB97XD) =  -1112.46266285     A.U. after    7 cycles
 Optimization completed.
    -- Stationary point found.
 Normal termination of Gaussian 16 at Wed Feb 17 16:42:09 2021.

 ---------------------------------------------------------------------
 #N Geom=AllCheck Guess=TCheck SCRF=Check GenChk RwB97XD/def2TZVP Freq
 ---------------------------------------------------------------------

 Structure from the checkpoint file:  "/beegfs/scratch/user/q/tla25/Gau-97252.chk"
 ------------------------
 2_iteration/TS-583-2.out
 ------------------------
 Charge =  0 Multiplicity = 1

                         Standard orientation:
 ---------------------------------------------------------------------
 Center     Atomic      Atomic             Coordinates (Angstroms)
 Number     Number       Type             X           Y           Z
 ---------------------------------------------------------------------
      1          6           0        1.292129    0.861828   -0.062274
      2          6           0        0.100978    0.045019   -0.126808
      3          8           0        0.112707   -1.194007   -0.135277
      4          6           0        2.525543    0.280267   -0.307197
      5          6           0        2.688307   -0.638625    2.379738
      6          1           0        1.925828    0.144546    2.390631
      7          1           0        2.404179   -1.410572    3.096057
      8          1           0        3.642561   -0.209330    2.679104
      9          7           0        2.781035   -1.153593    1.025845
     10          1           0        3.611540   -1.707572    0.860413
     11          1           0        1.950347   -1.678573    0.762091
     12          6           0        3.810199    1.040508   -0.145820
     13          1           0        3.871442    1.485917    0.846413
     14          1           0        4.664251    0.382301   -0.285629
     15          1           0        3.866834    1.838506   -0.887726
     16         17           0        2.681203   -0.845371   -1.723253
     17          6           0        1.186266    2.297667    0.404125
     18          1           0        2.158738    2.721435    0.640989
     19          1           0        0.751368    2.952711   -0.360577
     20          1           0        0.572928    2.393592    1.304577
     21          7           0       -1.092123    0.741012   -0.130786
     22          6           0       -2.404944    0.270044   -0.063397
     23          6           0       -2.751901   -1.068215    0.132677
     24          6           0       -4.090332   -1.430449    0.201580
     25          6           0       -5.100258   -0.489392    0.078655
     26          6           0       -4.755255    0.841771   -0.116332
     27          6           0       -3.426825    1.218167   -0.186494
     28          1           0       -1.014291    1.738859   -0.223759
     29          1           0       -1.976276   -1.809933    0.225032
     30          1           0       -4.340455   -2.473282    0.354864
     31          1           0       -6.139628   -0.785802    0.132864
     32          1           0       -5.525725    1.596288   -0.215204
     33          1           0       -3.171568    2.260813   -0.338762
 ---------------------------------------------------------------------

 SCF Done:  E(RwB97XD) =  -1112.46266285     A.U. after    1 cycles

 The electronic state is 1-A.
 Alpha  occ. eigenvalues -- -101.68373 -19.20609 -14.46696 -14.46208 -10.39140
 Alpha  occ. eigenvalues --  -10.38170 -10.33746 -10.31123 -10.28989 -10.28828
 Alpha  occ. eigenvalues --  -10.28802 -10.28757 -10.28168 -10.28088 -10.27841
 Alpha  occ. eigenvalues --  -10.26300  -9.56977  -7.31585  -7.30780  -7.30738
 Alpha  occ. eigenvalues --   -1.13347  -1.03900  -1.02770  -0.96189  -0.95348
 Alpha  occ. eigenvalues --   -0.88622  -0.85046  -0.84879  -0.82320  -0.78132
 Alpha  occ. eigenvalues --   -0.76627  -0.73419  -0.71241  -0.67107  -0.63765
 Alpha  occ. eigenvalues --   -0.62103  -0.61830  -0.58556  -0.57403  -0.56980
 Alpha  occ. eigenvalues --   -0.54878  -0.53969  -0.53239  -0.52382  -0.51772
 Alpha  occ. eigenvalues --   -0.50778  -0.49957  -0.49449  -0.48883  -0.47790
 Alpha  occ. eigenvalues --   -0.46929  -0.46579  -0.46023  -0.44923  -0.44561
 Alpha  occ. eigenvalues --   -0.43083  -0.42727  -0.39960  -0.38480  -0.37309
 Alpha  occ. eigenvalues --   -0.33780  -0.33525  -0.30216  -0.26503
 Alpha virt. eigenvalues --    0.03699   0.05446   0.06968   0.09447   0.10254
 Alpha virt. eigenvalues --    0.12218   0.13515   0.14728   0.14894   0.15557
 Alpha virt. eigenvalues --    0.16707   0.17382   0.17983   0.18150   0.18614

 Mulliken charges:
               1
     1  C   -0.347499
     2  C    0.440214
     3  O   -0.570679
     4  C    0.268904
     5  C   -0.302221
     6  H    0.148427
     7  H    0.151097
     8  H    0.155506
     9  N   -0.346028
    10  H    0.276289
    11  H    0.272988
    12  C   -0.423115
    13  H    0.152584
    14  H    0.153072
    15  H    0.165740
    16  Cl  -0.164829
    17  C   -0.437192
    18  H    0.140634
    19  H    0.137613
    20  H    0.142845
    21  N   -0.265925
    22  C    0.298503
    23  C   -0.299055
    24  C   -0.108715
    25  C   -0.199564
    26  C   -0.099241
    27  C   -0.313805
    28  H    0.250122
    29  H    0.159775
    30  H    0.140553
    31  H    0.139915
    32  H    0.142679
    33  H    0.140407
 Sum of Mulliken charges =  -0.00000

 Dipole moment (field-independent basis, Debye):
    X=              4.6277    Y=              3.0023    Z=              4.5851  Tot=              7.1731
 Quadrupole moment (field-independent basis, Debye-Ang):
   XX=            -82.6758   YY=            -94.5964   ZZ=           -105.9080
   XY=             -4.0905   XZ=             12.0892   YZ=             -5.7599

  Exact polarizability: 335.396  -9.284 244.551   1.530  -6.603 185.642
 Approx polarizability: 237.796  -6.263 210.800   0.433  -4.420 158.243

 ******    1 imaginary frequencies (negative Signs) ******

                      1                      2                      3
                      A                      A                      A
 Frequencies --   -402.5188                17.7531                33.7675
 Red. masses --      5.4339                 3.7809                 5.1416
 Frc consts  --      0.5187                 0.0007                 0.0035
 IR Inten    --    837.1569                 0.4392                 3.2763

                      4                      5                      6
                      A                      A                      A
 Frequencies --     67.1765                95.8254               104.3177
 Red. masses --      4.0065                 5.0204                 3.1704
 Frc consts  --      0.0107                 0.0272                 0.0203
 IR Inten    --      0.3763                 9.3085                 4.3553

                      7                      8                      9
                      A                      A                      A
 Frequencies --    118.3817               157.9759               171.6232
 Red. masses --      3.3318                 2.1553                 1.1126
 Frc consts  --      0.0275                 0.0317                 0.0193
 IR Inten    --     24.3944                17.9064                 1.1609

                     10                     11                     12
                      A                      A                      A
 Frequencies --    191.9070               200.6258               219.6278
 Red. masses --      6.3044                 1.5039                 2.5199
 Frc consts  --      0.1368                 0.0357                 0.0716
 IR Inten    --      5.5244                 0.4934                13.2479

                     13                     14                     15
                      A                      A                      A
 Frequencies --    234.8505               258.3894               275.9632
 Red. masses --      3.4813                 4.5065                 1.8474
 Frc consts  --      0.1131                 0.1773                 0.0829
 IR Inten    --     15.9050                 3.2053                 7.9228

                     16                     17                     18
                      A                      A                      A
 Frequencies --    291.9150               318.0463               364.7203
 Red. masses --      1.8674                 2.8911                 5.6179
 Frc consts  --      0.0938                 0.1723                 0.4403
 IR Inten    --     18.8400                22.7126                 9.9910

                     19                     20                     21
                      A                      A                      A
 Frequencies --    374.7544               388.3752               422.7404
 Red. masses --      4.6617                 2.6824                 2.9855
 Frc consts  --      0.3857                 0.2384                 0.3144
 IR Inten    --     32.2762                 4.4458                 0.1087

                     22                     23                     24
                      A                      A                      A
 Frequencies --    431.7493               468.8031               529.1417
 Red. masses --      4.1603                 4.0613                 2.7912
 Frc consts  --      0.4569                 0.5259                 0.4605
 IR Inten    --      5.8483                79.0757                27.2097

                     25                     26                     27
                      A                      A                      A
 Frequencies --    569.8486               579.4238               600.7103
 Red. masses --      1.1780                 3.6456                 4.5590
 Frc consts  --      0.2254                 0.7211                 0.9693
 IR Inten    --    120.8977                50.8547                41.1791

                     28                     29                     30
                      A                      A                      A
 Frequencies --    636.5934               681.1640               714.2528
 Red. masses --      6.0832                 1.6744                 3.0924
 Frc consts  --      1.4525                 0.4577                 0.9295
 IR Inten    --      6.2936                20.1815               163.7032

                     31                     32                     33
                      A                      A                      A
 Frequencies --    718.1480               783.4049               787.4456
 Red. masses --      1.8946                 1.9235                 5.8890
 Frc consts  --      0.5757                 0.6955                 2.1514
 IR Inten    --     58.4451                49.8060                97.3701

                     34                     35                     36
                      A                      A                      A
 Frequencies --    855.8403               860.6873               885.5775
 Red. masses --      4.0262                 1.3009                 4.9989
 Frc consts  --      1.7375                 0.5678                 2.3098
 IR Inten    --     74.4383                 2.2307                38.7215

                     37                     38                     39
                      A                      A                      A
 Frequencies --    931.8263               975.7293               984.9681
 Red. masses --      1.4807                 1.0938                 2.0016
 Frc consts  --      0.7575                 0.6136                 1.1441
 IR Inten    --     13.4028                90.0444               201.8260

                     40                     41                     42
                      A                      A                      A
 Frequencies --   1000.7272              1016.1781              1019.8844
 Red. masses --      1.3458                 1.2936                 5.5921
 Frc consts  --      0.7941                 0.7871                 3.4271
 IR Inten    --      0.1000                 0.8801                 2.1107

                     43                     44                     45
                      A                      A                      A
 Frequencies --   1042.5035              1050.7095              1060.5820
 Red. masses --      1.1480                 1.3735                 2.0829
 Frc consts  --      0.7351                 0.8934                 1.3804
 IR Inten    --     49.7830                73.5239                 2.8406

                     46                     47                     48
                      A                      A                      A
 Frequencies --   1067.0142              1091.5184              1097.1010
 Red. masses --      1.4573                 1.9482                 3.8918
 Frc consts  --      0.9775                 1.3676                 2.7599
 IR Inten    --     16.8889                38.1170                68.2686

                     49                     50                     51
                      A                      A                      A
 Frequencies --   1109.0669              1123.7610              1181.3236
 Red. masses --      1.7653                 1.7034                 1.1258
 Frc consts  --      1.2794                 1.2674                 0.9257
 IR Inten    --    157.7930                74.4084                 2.7960

                     52                     53                     54
                      A                      A                      A
 Frequencies --   1190.6847              1204.2166              1211.1630
 Red. masses --      1.4410                 1.8956                 1.6988
 Frc consts  --      1.2037                 1.6196                 1.4683
 IR Inten    --     41.8163               149.4871                24.5466

                     55                     56                     57
                      A                      A                      A
 Frequencies --   1273.8755              1308.6888              1345.8564
 Red. masses --      2.5483                 5.1025                 2.1116
 Frc consts  --      2.4364                 5.1488                 2.2535
 IR Inten    --    372.7019                98.3221               412.7788

                     58                     59                     60
                      A                      A                      A
 Frequencies --   1347.2555              1360.2727              1410.0416
 Red. masses --      1.8052                 1.6713                 1.3241
 Frc consts  --      1.9305                 1.8221                 1.5511
 IR Inten    --    318.2014                 3.2996                61.3319

                     61                     62                     63
                      A                      A                      A
 Frequencies --   1425.0883              1448.2576              1465.6795
 Red. masses --      1.2166                 1.2602                 1.4787
 Frc consts  --      1.4557                 1.5573                 1.8716
 IR Inten    --     62.6247                70.0961               100.1950

                     64                     65                     66
                      A                      A                      A
 Frequencies --   1476.9181              1486.3930              1491.1868
 Red. masses --      1.8805                 1.1091                 1.0847
 Frc consts  --      2.4167                 1.4438                 1.4211
 IR Inten    --    345.9235                66.1246                24.9466

                     67                     68                     69
                      A                      A                      A
 Frequencies --   1496.1862              1501.8540              1505.9882
 Red. masses --      1.0486                 1.3802                 1.0368
 Frc consts  --      1.3830                 1.8341                 1.3854
 IR Inten    --     18.1116               166.8297                26.4697

                     70                     71                     72
                      A                      A                      A
 Frequencies --   1520.0330              1547.0064              1568.5574
 Red. masses --      1.2833                 2.4706                 2.0410
 Frc consts  --      1.7470                 3.4837                 2.9586
 IR Inten    --    539.9645               122.1988               559.5680

                     73                     74                     75
                      A                      A                      A
 Frequencies --   1639.8240              1659.0841              1670.8654
 Red. masses --      1.2917                 4.3690                 3.6270
 Frc consts  --      2.0465                 7.0854                 5.9659
 IR Inten    --    187.0470                90.4487                23.5104

                     76                     77                     78
                      A                      A                      A
 Frequencies --   1682.7522              3012.0890              3050.6350
 Red. masses --      4.9273                 1.0508                 1.0351
 Frc consts  --      8.2206                 5.6171                 5.6757
 IR Inten    --    330.7100                99.6203                48.9448

                     79                     80                     81
                      A                      A                      A
 Frequencies --   3068.1783              3071.8819              3119.0098
 Red. masses --      1.0928                 1.0384                 1.1027
 Frc consts  --      6.0609                 5.7732                 6.3206
 IR Inten    --     47.3819                11.3523                17.2800

                     82                     83                     84
                      A                      A                      A
 Frequencies --   3146.7142              3156.7768              3160.5258
 Red. masses --      1.1012                 1.1038                 1.0933
 Frc consts  --      6.4246                 6.4808                 6.4343
 IR Inten    --     11.6905                22.9167                23.7197

                     85                     86                     87
                      A                      A                      A
 Frequencies --   3169.4330              3185.9771              3195.8877
 Red. masses --      1.1018                 1.0879                 1.0883
 Frc consts  --      6.5210                 6.5061                 6.5490
 IR Inten    --     14.3692                14.3315                 2.5371

                     88                     89                     90
                      A                      A                      A
 Frequencies --   3205.4458              3221.1683              3269.7981
 Red. masses --      1.0932                 1.0979                 1.0926
 Frc consts  --      6.6177                 6.7115                 6.8829
 IR Inten    --     31.3300                23.1835                 5.7922

                     91                     92                     93
                      A                      A                      A
 Frequencies --   3466.0031              3601.6150              3659.7526
 Red. masses --      1.0584                 1.0908                 1.0763
 Frc consts  --      7.4913                 8.3365                 8.4932
 IR Inten    --     72.5796               103.2227                57.8589

 - Thermochemistry -
 -------------------
 Temperature   298.150 Kelvin.  Pressure   1.00000 Atm.
 Atom     1 has atomic number  6 and mass  12.00000

 Molecular mass:   240.10294 amu.
 Principal axes and moments of inertia in atomic units:
                           1         2         3
     Eigenvalues --  1816.866888056.091048313.67821
           X            0.99982   0.01009   0.01609
           Y           -0.00834   0.99437  -0.10562
           Z           -0.01706   0.10547   0.99428
 This molecule is an asymmetric top.
 Rotational symmetry number  1.
 Warning -- assumption of classical behavior for rotation
           may cause significant error
 Rotational temperatures (Kelvin)      0.04767     0.01075     0.01042
 Rotational constants (GHZ):           0.99333     0.22402     0.21708
    1 imaginary frequencies ignored.
 Zero-point vibrational energy     724715.9 (Joules/Mol)
                                  173.21126 (Kcal/Mol)
 Warning -- explicit consideration of  26 degrees of freedom as
           vibrations may cause significant error
 Vibrational temperatures:     25.54    48.58    96.65   137.87   150.09
          (Kelvin)            170.32   227.29   246.93   276.11   288.66
                              316.00   337.90   371.76   397.05   420.00
                              457.60   524.75   539.19   558.79   608.23
                              621.19   674.50   761.32   819.89   833.66
                              864.29   915.92   980.04  1027.65  1033.25
                             1127.14  1132.96  1231.36  1238.34  1274.15
                             1340.69  1403.86  1417.15  1439.82  1462.05
                             1467.39  1499.93  1511.74  1525.94  1535.20
                             1570.45  1578.48  1595.70  1616.84  1699.66
                             1713.13  1732.60  1742.59  1832.82  1882.91
                             1936.39  1938.40  1957.13  2028.74  2050.38
                             2083.72  2108.79  2124.96  2138.59  2145.49
                             2152.68  2160.83  2166.78  2186.99  2225.80
                             2256.80  2359.34  2387.05  2404.00  2421.11
                             4333.72  4389.18  4414.42  4419.75  4487.56
                             4527.42  4541.90  4547.29  4560.11  4583.91
                             4598.17  4611.92  4634.54  4704.51  4986.81
                             5181.92  5265.57

 Zero-point correction=                           0.276030 (Hartree/Particle)
 Thermal correction to Energy=                    0.292765
 Thermal correction to Enthalpy=                  0.293709
 Thermal correction to Gibbs Free Energy=         0.230576
 Sum of electronic and zero-point Energies=          -1112.186633
 Sum of electronic and thermal Energies=             -1112.169898
 Sum of electronic and thermal Enthalpies=           -1112.168954
 Sum of electronic and thermal Free Energies=        -1112.232087

                     E (Thermal)             CV                S
                      KCal/Mol        Cal/Mol-Kelvin    Cal/Mol-Kelvin
 Total                  183.713             62.524            132.875
 Electronic               0.000              0.000              0.000
 Translational            0.889              2.981             42.329
 Rotational               0.889              2.981             33.164
 Vibrational            181.935             56.563             57.382
 Vibration     1          0.593              1.986              6.871
 Vibration     2          0.594              1.983              5.595
 Vibration     3          0.598              1.970              4.234
 Vibration     4          0.603              1.952              3.537
 Vibration     5          0.605              1.946              3.372
 Vibration     6          0.609              1.934              3.127
 Vibration     7          0.621              1.894              2.574
 Vibration     8          0.626              1.877              2.418
 Vibration     9          0.634              1.851              2.209
 Vibration    10          0.638              1.839              2.127
 Vibration    11          0.647              1.811              1.962
 Vibration    12          0.655              1.788              1.842
 Vibration    13          0.667              1.749              1.673
 Vibration    14          0.678              1.718              1.559
 Vibration    15          0.687              1.689              1.463
 Vibration    16          0.704              1.639              1.320
 Vibration    17          0.738              1.545              1.102
 Vibration    18          0.746              1.524              1.060
 Vibration    19          0.757              1.495              1.006
 Vibration    20          0.785              1.421              0.883
 Vibration    21          0.793              1.401              0.853
 Vibration    22          0.826              1.319              0.741
 Vibration    23          0.884              1.186              0.589
 Vibration    24          0.926              1.096              0.505
 Vibration    25          0.936              1.076              0.486
 Vibration    26          0.959              1.030              0.448

 Optimization completed.
    -- Stationary point found.
 Normal termination of Gaussian 16 at Wed Feb 17 17:54:58 2021.
