 Gaussian 16, Revision A.03,
 Gaussian 16:  ES64L-G16RevA.03 25-Dec-2016

 ----------------------------------------------------------------------
 # wB97XD def2tzvp, opt=(ts, noeigen, calcfc, maxcycles=70, maxstep=3),
  freq=noraman, scrf=(iefpcm, solvent=water)
 ----------------------------------------------------------------------

 ------------------------
 0_iteration/TS-573-0.out
 ------------------------
 Symbolic Z-matrix:
 Charge =  0 Multiplicity = 1

 SCF Done:  E(RwB97XD) =  -881.400993156     A.U. after   14 cycles
 SCF Done:  E(RwB97XD) =  -881.400987502     A.U. after   11 cycles
 SCF Done:  E(RwB97XD) =  -881.401007236     A.U. after   10 cycles
 SCF Done:  E(RwB97XD) =  -881.401111662     A.U. after   10 cycles
 SCF Done:  E(RwB97XD) =  -881.401437445     A.U. after   11 cycles
 SCF Done:  E(RwB97XD) =  -881.401856272     A.U. after   11 cycles
 SCF Done:  E(RwB97XD) =  -881.402425803     A.U. after   11 cycles
 SCF Done:  E(RwB97XD) =  -881.403081759     A.U. after   11 cycles
 SCF Done:  E(RwB97XD) =  -881.403778299     A.U. after   12 cycles
 SCF Done:  E(RwB97XD) =  -881.404515127     A.U. after   11 cycles
 SCF Done:  E(RwB97XD) =  -881.406570861     A.U. after   11 cycles
 SCF Done:  E(RwB97XD) =  -881.407099882     A.U. after   11 cycles
 SCF Done:  E(RwB97XD) =  -881.407518250     A.U. after   10 cycles
 SCF Done:  E(RwB97XD) =  -881.407764994     A.U. after   11 cycles
 SCF Done:  E(RwB97XD) =  -881.407887438     A.U. after   11 cycles
 SCF Done:  E(RwB97XD) =  -881.407921278     A.U. after   10 cycles
 SCF Done:  E(RwB97XD) =  -881.407924411     A.U. after   10 cycles
 SCF Done:  E(RwB97XD) =  -881.407924927     A.U. after    9 cycles
 SCF Done:  E(RwB97XD) =  -881.407925012     A.U. after    7 cycles
 Optimization completed.
    -- Stationary point found.
 Normal termination of Gaussian 16 at Wed Apr 14 02:11:39 2021.

 ---------------------------------------------------------------------
 #N Geom=AllCheck Guess=TCheck SCRF=Check GenChk RwB97XD/def2TZVP Freq
 ---------------------------------------------------------------------

 Structure from the checkpoint file:  "/beegfs/scratch/user/q/tla25/Gau-311289.chk"
 ------------------------
 0_iteration/TS-573-0.out
 ------------------------
 Charge =  0 Multiplicity = 1

                         Standard orientation:
 ---------------------------------------------------------------------
 Center     Atomic      Atomic             Coordinates (Angstroms)
 Number     Number       Type             X           Y           Z
 ---------------------------------------------------------------------
      1          6           0        0.059819   -0.406088   -1.084000
      2          6           0        1.436177   -0.424921   -0.656104
      3          8           0        2.284778   -1.127404   -1.227061
      4          6           0       -1.050329    0.164760   -0.484905
      5          6           0       -1.534474   -2.063032    1.090362
      6          1           0       -1.362650   -2.561058    2.043316
      7          1           0       -2.543160   -2.280079    0.747085
      8          1           0       -0.814222   -2.430145    0.356715
      9          7           0       -1.357672   -0.619890    1.205009
     10          1           0       -2.130877   -0.169219    1.681745
     11          1           0       -0.505909   -0.399732    1.710388
     12          6           0       -2.388152   -0.012207   -1.152090
     13          1           0       -2.518688   -1.053094   -1.446505
     14          1           0       -3.208628    0.280976   -0.499573
     15          1           0       -2.425393    0.607410   -2.047725
     16         17           0       -0.933541    1.872416    0.165874
     17          1           0       -0.159142   -1.100089   -1.884959
     18          7           0        1.801287    0.308302    0.445713
     19          6           0        3.190854    0.417619    0.829799
     20          1           0        1.208671    1.081668    0.695168
     21          1           0        3.799194    0.909489    0.064720
     22          1           0        3.251064    0.996037    1.750180
     23          1           0        3.613039   -0.569672    1.012640
 ---------------------------------------------------------------------

 SCF Done:  E(RwB97XD) =  -881.407925012     A.U. after    1 cycles

 The electronic state is 1-A.
 Alpha  occ. eigenvalues -- -101.69506 -19.19160 -14.49321 -14.43834 -10.40039
 Alpha  occ. eigenvalues --  -10.36867 -10.31843 -10.30237 -10.29039 -10.24656
 Alpha  occ. eigenvalues --   -9.58125  -7.32707  -7.31932  -7.31906  -1.11723
 Alpha  occ. eigenvalues --   -1.05067  -1.00464  -0.96478  -0.87145  -0.82428
 Alpha  occ. eigenvalues --   -0.79281  -0.77270  -0.68026  -0.65294  -0.63764
 Alpha  occ. eigenvalues --   -0.59469  -0.58410  -0.55850  -0.55245  -0.53086
 Alpha  occ. eigenvalues --   -0.51525  -0.50515  -0.50005  -0.48283  -0.47227
 Alpha  occ. eigenvalues --   -0.46689  -0.46032  -0.44909  -0.44099  -0.39844
 Alpha  occ. eigenvalues --   -0.38994  -0.33784  -0.32694  -0.27512
 Alpha virt. eigenvalues --    0.06056   0.07787   0.10005   0.13012   0.13972
 Alpha virt. eigenvalues --    0.14979   0.15449   0.16579   0.17135   0.18340
 Alpha virt. eigenvalues --    0.18875   0.20378   0.20483   0.20774   0.21523

 Mulliken charges:
               1
     1  C   -0.498790
     2  C    0.366962
     3  O   -0.568099
     4  C    0.180614
     5  C   -0.298319
     6  H    0.161228
     7  H    0.164118
     8  H    0.154010
     9  N   -0.300609
    10  H    0.291749
    11  H    0.275785
    12  C   -0.382070
    13  H    0.154009
    14  H    0.151757
    15  H    0.157417
    16  Cl  -0.165879
    17  H    0.131510
    18  N   -0.330372
    19  C   -0.258704
    20  H    0.230776
    21  H    0.118769
    22  H    0.136228
    23  H    0.127909
 Sum of Mulliken charges =  -0.00000

 Dipole moment (field-independent basis, Debye):
    X=             -7.8287    Y=              0.1452    Z=              6.9376  Tot=             10.4614
 Quadrupole moment (field-independent basis, Debye-Ang):
   XX=            -67.7795   YY=            -70.6411   ZZ=            -67.0559
   XY=             13.3034   XZ=              6.6095   YZ=             -4.8549

  Exact polarizability: 171.738  -4.440 143.314 -10.770   7.506 139.168
 Approx polarizability: 130.045  -5.424 120.045  -8.889   8.551 117.917

 ******    1 imaginary frequencies (negative Signs) ******

                      1                      2                      3
                      A                      A                      A
 Frequencies --   -402.2937                59.3600                80.2748
 Red. masses --      4.9186                 3.3637                 4.6636
 Frc consts  --      0.4690                 0.0070                 0.0177
 IR Inten    --    594.5059                 5.2155                10.0638

                      4                      5                      6
                      A                      A                      A
 Frequencies --    107.6558               131.4275               143.9429
 Red. masses --      2.0365                 1.4941                 1.9505
 Frc consts  --      0.0139                 0.0152                 0.0238
 IR Inten    --      8.5651                 4.9468                 3.0229

                      7                      8                      9
                      A                      A                      A
 Frequencies --    166.8565               183.4723               200.3349
 Red. masses --      1.4363                 2.2130                 3.2980
 Frc consts  --      0.0236                 0.0439                 0.0780
 IR Inten    --      2.8694                19.2217                16.9617

                     10                     11                     12
                      A                      A                      A
 Frequencies --    238.7632               260.0460               294.7024
 Red. masses --      1.1830                 3.7788                 3.2512
 Frc consts  --      0.0397                 0.1506                 0.1664
 IR Inten    --      1.3996                 9.6138                 6.1044

                     13                     14                     15
                      A                      A                      A
 Frequencies --    320.2414               340.1527               351.4880
 Red. masses --      3.0555                 3.7310                 4.3939
 Frc consts  --      0.1846                 0.2543                 0.3198
 IR Inten    --     26.6303                 6.7477                24.8239

                     16                     17                     18
                      A                      A                      A
 Frequencies --    436.4721               523.1790               530.8911
 Red. masses --      4.5078                 1.2792                 2.6738
 Frc consts  --      0.5060                 0.2063                 0.4440
 IR Inten    --     29.2836               216.6945                32.5611

                     19                     20                     21
                      A                      A                      A
 Frequencies --    580.7103               670.9397               719.2819
 Red. masses --      2.8109                 1.4527                 2.7776
 Frc consts  --      0.5585                 0.3853                 0.8467
 IR Inten    --    114.0804                46.0853                46.9547

                     22                     23                     24
                      A                      A                      A
 Frequencies --    731.6686               800.3531               892.2766
 Red. masses --      1.8350                 6.9268                 2.6503
 Frc consts  --      0.5788                 2.6142                 1.2432
 IR Inten    --     77.6763                81.0373                22.4163

                     25                     26                     27
                      A                      A                      A
 Frequencies --   1007.1852              1042.1725              1052.5710
 Red. masses --      1.1478                 1.6179                 1.2717
 Frc consts  --      0.6860                 1.0353                 0.8301
 IR Inten    --     14.5423                72.9406                40.0962

                     28                     29                     30
                      A                      A                      A
 Frequencies --   1062.8864              1083.9557              1114.5635
 Red. masses --      1.6253                 3.1233                 2.4016
 Frc consts  --      1.0818                 2.1621                 1.7578
 IR Inten    --     95.5965                 5.9519               106.0133

                     31                     32                     33
                      A                      A                      A
 Frequencies --   1144.9104              1160.5858              1187.1150
 Red. masses --      1.4492                 2.3712                 1.9557
 Frc consts  --      1.1193                 1.8818                 1.6238
 IR Inten    --      8.5136                11.4217                14.7624

                     34                     35                     36
                      A                      A                      A
 Frequencies --   1232.3634              1271.1175              1322.0560
 Red. masses --      1.3878                 1.3713                 2.6832
 Frc consts  --      1.2418                 1.3055                 2.7631
 IR Inten    --     46.2473               365.6374               330.7433

                     37                     38                     39
                      A                      A                      A
 Frequencies --   1348.5546              1418.4240              1446.4605
 Red. masses --      1.3093                 1.2364                 1.2031
 Frc consts  --      1.4029                 1.4656                 1.4831
 IR Inten    --      3.3525                11.6001                34.0606

                     40                     41                     42
                      A                      A                      A
 Frequencies --   1453.1703              1476.7245              1478.4579
 Red. masses --      1.2088                 1.1892                 1.0880
 Frc consts  --      1.5039                 1.5280                 1.4012
 IR Inten    --     16.0471               101.5638                44.8524

                     43                     44                     45
                      A                      A                      A
 Frequencies --   1479.7412              1496.4009              1502.9462
 Red. masses --      1.0669                 1.0563                 1.1390
 Frc consts  --      1.3763                 1.3936                 1.5158
 IR Inten    --      9.7612                12.0439                18.8519

                     46                     47                     48
                      A                      A                      A
 Frequencies --   1504.5367              1511.1193              1556.4741
 Red. masses --      1.0459                 2.1926                 1.7590
 Frc consts  --      1.3949                 2.9498                 2.5107
 IR Inten    --     18.1855               356.7528               396.2105

                     49                     50                     51
                      A                      A                      A
 Frequencies --   1641.4667              1649.6646              3037.9131
 Red. masses --      1.3591                 2.7864                 1.0443
 Frc consts  --      2.1575                 4.4677                 5.6782
 IR Inten    --    434.4687               639.4230                96.9071

                     52                     53                     54
                      A                      A                      A
 Frequencies --   3064.6867              3073.5404              3113.0588
 Red. masses --      1.0354                 1.0354                 1.0921
 Frc consts  --      5.7298                 5.7630                 6.2356
 IR Inten    --     38.2640                10.1534                42.8556

                     55                     56                     57
                      A                      A                      A
 Frequencies --   3144.0009              3153.8071              3153.9232
 Red. masses --      1.1021                 1.1027                 1.1039
 Frc consts  --      6.4183                 6.4623                 6.4695
 IR Inten    --      5.8138                10.7346                24.8210

                     58                     59                     60
                      A                      A                      A
 Frequencies --   3161.2075              3174.0743              3201.3448
 Red. masses --      1.1043                 1.1058                 1.0877
 Frc consts  --      6.5018                 6.5637                 6.5681
 IR Inten    --     17.6326                12.0747                 5.6013

                     61                     62                     63
                      A                      A                      A
 Frequencies --   3516.6240              3599.5791              3636.5198
 Red. masses --      1.0507                 1.0966                 1.0771
 Frc consts  --      7.6553                 8.3718                 8.3923
 IR Inten    --     36.5671                68.5295                98.8752

 - Thermochemistry -
 -------------------
 Temperature   298.150 Kelvin.  Pressure   1.00000 Atm.
 Atom     1 has atomic number  6 and mass  12.00000

 Molecular mass:   164.07164 amu.
 Principal axes and moments of inertia in atomic units:
                           1         2         3
     Eigenvalues --  1297.425662334.715862678.40802
           X            0.99714   0.07046   0.02745
           Y           -0.06915   0.99654  -0.04608
           Z           -0.03061   0.04405   0.99856
 This molecule is an asymmetric top.
 Rotational symmetry number  1.
 Warning -- assumption of classical behavior for rotation
           may cause significant error
 Rotational temperatures (Kelvin)      0.06676     0.03710     0.03234
 Rotational constants (GHZ):           1.39102     0.77300     0.67381
    1 imaginary frequencies ignored.
 Zero-point vibrational energy     511047.0 (Joules/Mol)
                                  122.14318 (Kcal/Mol)
 Warning -- explicit consideration of  18 degrees of freedom as
           vibrations may cause significant error
 Vibrational temperatures:     85.41   115.50   154.89   189.09   207.10
          (Kelvin)            240.07   263.98   288.24   343.53   374.15
                              424.01   460.76   489.40   505.71   627.99
                              752.74   763.83   835.51   965.33  1034.89
                             1052.71  1151.53  1283.79  1449.11  1499.45
                             1514.41  1529.26  1559.57  1603.61  1647.27
                             1669.82  1707.99  1773.10  1828.85  1902.14
                             1940.27  2040.80  2081.13  2090.79  2124.68
                             2127.17  2129.02  2152.99  2162.40  2164.69
                             2174.16  2239.42  2361.70  2373.50  4370.88
                             4409.40  4422.14  4479.00  4523.52  4537.62
                             4537.79  4548.27  4566.79  4606.02  5059.64
                             5178.99  5232.14

 Zero-point correction=                           0.194648 (Hartree/Particle)
 Thermal correction to Energy=                    0.207075
 Thermal correction to Enthalpy=                  0.208019
 Thermal correction to Gibbs Free Energy=         0.156172
 Sum of electronic and zero-point Energies=           -881.213277
 Sum of electronic and thermal Energies=              -881.200850
 Sum of electronic and thermal Enthalpies=            -881.199906
 Sum of electronic and thermal Free Energies=         -881.251753

                     E (Thermal)             CV                S
                      KCal/Mol        Cal/Mol-Kelvin    Cal/Mol-Kelvin
 Total                  129.942             43.892            109.122
 Electronic               0.000              0.000              0.000
 Translational            0.889              2.981             41.194
 Rotational               0.889              2.981             30.474
 Vibrational            128.164             37.930             37.455
 Vibration     1          0.597              1.974              4.478
 Vibration     2          0.600              1.963              3.884
 Vibration     3          0.606              1.943              3.311
 Vibration     4          0.612              1.922              2.925
 Vibration     5          0.616              1.909              2.751
 Vibration     6          0.624              1.883              2.471
 Vibration     7          0.631              1.862              2.293
 Vibration     8          0.638              1.839              2.130
 Vibration     9          0.657              1.781              1.812
 Vibration    10          0.668              1.746              1.661
 Vibration    11          0.689              1.684              1.447
 Vibration    12          0.706              1.635              1.309
 Vibration    13          0.720              1.595              1.211
 Vibration    14          0.728              1.572              1.160
 Vibration    15          0.797              1.391              0.838
 Vibration    16          0.878              1.199              0.603
 Vibration    17          0.886              1.182              0.585
 Vibration    18          0.937              1.073              0.484

 Optimization completed.
    -- Stationary point found.
 Normal termination of Gaussian 16 at Wed Apr 14 02:18:31 2021.
