 Gaussian 16, Revision A.03,
 Gaussian 16:  ES64L-G16RevA.03 25-Dec-2016

 ----------------------------------------------------------------------
 # wB97XD def2tzvp, opt=(ts, noeigen, calcfc, maxcycles=70, maxstep=8),
  freq=noraman, scrf=(iefpcm, solvent=water)
 ----------------------------------------------------------------------

 ------------------------
 1_iteration/TS-546-1.out
 ------------------------
 Symbolic Z-matrix:
 Charge =  0 Multiplicity = 1

 SCF Done:  E(RwB97XD) =  -5513.64716258     A.U. after   15 cycles
 SCF Done:  E(RwB97XD) =  -5513.64792000     A.U. after   13 cycles
 SCF Done:  E(RwB97XD) =  -5513.64805638     A.U. after   12 cycles
 SCF Done:  E(RwB97XD) =  -5513.64806301     A.U. after   12 cycles
 SCF Done:  E(RwB97XD) =  -5513.64791154     A.U. after   12 cycles
 SCF Done:  E(RwB97XD) =  -5513.64806689     A.U. after   12 cycles
 SCF Done:  E(RwB97XD) =  -5513.64808113     A.U. after   11 cycles
 SCF Done:  E(RwB97XD) =  -5513.64808147     A.U. after   10 cycles
 SCF Done:  E(RwB97XD) =  -5513.64808136     A.U. after    9 cycles
 SCF Done:  E(RwB97XD) =  -5513.64808129     A.U. after    8 cycles
 SCF Done:  E(RwB97XD) =  -5513.64808132     A.U. after    7 cycles
 Optimization completed.
    -- Stationary point found.
 Normal termination of Gaussian 16 at Tue Feb 16 15:33:01 2021.

 ---------------------------------------------------------------------
 #N Geom=AllCheck Guess=TCheck SCRF=Check GenChk RwB97XD/def2TZVP Freq
 ---------------------------------------------------------------------

 Structure from the checkpoint file:  "/beegfs/scratch/user/q/tla25/Gau-36054.chk"
 ------------------------
 1_iteration/TS-546-1.out
 ------------------------
 Charge =  0 Multiplicity = 1

                         Standard orientation:
 ---------------------------------------------------------------------
 Center     Atomic      Atomic             Coordinates (Angstroms)
 Number     Number       Type             X           Y           Z
 ---------------------------------------------------------------------
      1          6           0        0.553489    0.317250   -0.104547
      2          6           0        0.602398    1.707388    0.267318
      3          8           0        1.627903    2.378459    0.157734
      4          6           0       -0.512647   -0.582338   -0.121347
      5          6           0        0.134590   -1.128353    2.577861
      6          1           0       -0.155752   -1.236203    3.622404
      7          1           0        0.755621   -1.973081    2.286998
      8          1           0        0.709642   -0.210333    2.458355
      9          7           0       -1.032578   -1.063372    1.706907
     10          1           0       -1.524906   -1.948764    1.666863
     11          1           0       -1.693687   -0.365704    2.027164
     12          6           0       -0.345402   -1.979842   -0.659078
     13          1           0       -1.271428   -2.542503   -0.568417
     14          1           0       -0.074275   -1.929394   -1.713797
     15          1           0        0.449279   -2.502847   -0.130169
     16         35           0       -2.262110    0.091820   -0.697556
     17         35           0        2.286494   -0.407866   -0.521400
     18          6           0       -0.616771    2.398589    0.847963
     19          1           0       -1.269890    1.750570    1.426338
     20          1           0       -0.256548    3.204421    1.484655
     21          1           0       -1.210627    2.835244    0.043834
 ---------------------------------------------------------------------

 SCF Done:  E(RwB97XD) =  -5513.64808132     A.U. after    1 cycles

 The electronic state is 1-A.
 Alpha  occ. eigenvalues -- -483.13572-483.12000 -62.68424 -62.66833 -56.47543
 Alpha  occ. eigenvalues --  -56.47187 -56.47169 -56.45945 -56.45600 -56.45588
 Alpha  occ. eigenvalues --  -19.21314 -14.49346 -10.41210 -10.36731 -10.32102
 Alpha  occ. eigenvalues --  -10.31526 -10.29680 -10.27904  -8.82532  -8.80944
 Alpha  occ. eigenvalues --   -6.64690  -6.63562  -6.63506  -6.63078  -6.61977
 Alpha  occ. eigenvalues --   -6.61943  -2.75071  -2.74761  -2.74718  -2.73805
 Alpha  occ. eigenvalues --   -2.73805  -2.73469  -2.73152  -2.73126  -2.72235
 Alpha  occ. eigenvalues --   -2.72235  -1.12435  -1.04830  -0.95858  -0.89342
 Alpha  occ. eigenvalues --   -0.84867  -0.83740  -0.79416  -0.78592  -0.69443
 Alpha  occ. eigenvalues --   -0.63956  -0.59844  -0.58312  -0.57093  -0.55299
 Alpha  occ. eigenvalues --   -0.54030  -0.52386  -0.50759  -0.50455  -0.49335
 Alpha  occ. eigenvalues --   -0.48151  -0.46929  -0.44820  -0.43628  -0.43341
 Alpha  occ. eigenvalues --   -0.39010  -0.37969  -0.37433  -0.36347  -0.32943
 Alpha  occ. eigenvalues --   -0.28329
 Alpha virt. eigenvalues --    0.01815   0.03881   0.09389   0.09695   0.13394
 Alpha virt. eigenvalues --    0.13653   0.13983   0.15504   0.16457   0.17818
 Alpha virt. eigenvalues --    0.18593   0.19417   0.20064   0.20531   0.21211

 Mulliken charges:
               1
     1  C   -0.186270
     2  C    0.206540
     3  O   -0.478439
     4  C    0.122200
     5  C   -0.293881
     6  H    0.164957
     7  H    0.162347
     8  H    0.157068
     9  N   -0.333323
    10  H    0.291510
    11  H    0.283922
    12  C   -0.379927
    13  H    0.158431
    14  H    0.167517
    15  H    0.156790
    16  Br  -0.093439
    17  Br  -0.148534
    18  C   -0.352406
    19  H    0.103531
    20  H    0.137247
    21  H    0.154155
 Sum of Mulliken charges =  -0.00000

 Dipole moment (field-independent basis, Debye):
    X=             -7.4532    Y=             -7.1098    Z=              5.6463  Tot=             11.7465
 Quadrupole moment (field-independent basis, Debye-Ang):
   XX=            -95.3289   YY=            -87.2979   ZZ=            -75.3360
   XY=             -6.7827   XZ=             -4.5138   YZ=             -4.1276

  Exact polarizability: 210.483  11.093 184.406  -4.716  -4.617 153.093
 Approx polarizability: 168.576   7.779 149.497  -3.749  -4.092 128.955

 ******    1 imaginary frequencies (negative Signs) ******

                      1                      2                      3
                      A                      A                      A
 Frequencies --   -356.0054                46.5031                58.0796
 Red. masses --      5.5175                 2.9618                 5.3292
 Frc consts  --      0.4120                 0.0038                 0.0106
 IR Inten    --    753.8967                 0.5397                11.6650

                      4                      5                      6
                      A                      A                      A
 Frequencies --     74.9868               130.3966               152.6075
 Red. masses --      3.1101                 2.9845                 3.1423
 Frc consts  --      0.0103                 0.0299                 0.0431
 IR Inten    --      3.1912                 3.9512                 4.3809

                      7                      8                      9
                      A                      A                      A
 Frequencies --    164.6933               183.0621               201.8134
 Red. masses --      1.4512                 1.7599                 2.9898
 Frc consts  --      0.0232                 0.0347                 0.0717
 IR Inten    --      0.2959                 2.1274                 0.1358

                     10                     11                     12
                      A                      A                      A
 Frequencies --    221.2067               251.1948               274.6848
 Red. masses --      4.3912                 5.9006                 1.9463
 Frc consts  --      0.1266                 0.2194                 0.0865
 IR Inten    --      4.7403                15.8134                 2.2898

                     13                     14                     15
                      A                      A                      A
 Frequencies --    295.9604               328.9914               360.5982
 Red. masses --      3.2572                 2.0294                 2.5592
 Frc consts  --      0.1681                 0.1294                 0.1961
 IR Inten    --     13.9030                 4.6235                 2.8870

                     16                     17                     18
                      A                      A                      A
 Frequencies --    366.5528               458.7517               523.1037
 Red. masses --      1.8790                 4.4755                 4.7797
 Frc consts  --      0.1487                 0.5549                 0.7706
 IR Inten    --     10.7725                40.7805                67.1529

                     19                     20                     21
                      A                      A                      A
 Frequencies --    596.5787               638.0923               659.0936
 Red. masses --      3.1952                 3.0946                 1.5595
 Frc consts  --      0.6700                 0.7424                 0.3992
 IR Inten    --     20.5755                45.8991                68.2311

                     22                     23                     24
                      A                      A                      A
 Frequencies --    694.7614               891.1077               997.2371
 Red. masses --      2.9267                 4.3267                 1.2238
 Frc consts  --      0.8323                 2.0243                 0.7171
 IR Inten    --    174.0276                21.8062                22.5094

                     25                     26                     27
                      A                      A                      A
 Frequencies --   1007.6008              1033.2987              1040.2095
 Red. masses --      1.4526                 1.1196                 1.7872
 Frc consts  --      0.8689                 0.7043                 1.1394
 IR Inten    --     93.8496                80.2068                48.0466

                     28                     29                     30
                      A                      A                      A
 Frequencies --   1055.5991              1074.0379              1082.8010
 Red. masses --      1.9082                 2.0429                 2.9842
 Frc consts  --      1.2528                 1.3885                 2.0615
 IR Inten    --     66.0854                20.5688                 0.6765

                     31                     32                     33
                      A                      A                      A
 Frequencies --   1113.2299              1225.1019              1299.2521
 Red. masses --      2.2918                 1.3959                 4.5256
 Frc consts  --      1.6734                 1.2344                 4.5011
 IR Inten    --     61.0090                27.3213               179.1960

                     34                     35                     36
                      A                      A                      A
 Frequencies --   1341.2442              1389.0885              1407.3327
 Red. masses --      1.3339                 1.2819                 2.7446
 Frc consts  --      1.4138                 1.4574                 3.2028
 IR Inten    --      3.8209                41.6583               877.3836

                     37                     38                     39
                      A                      A                      A
 Frequencies --   1426.6513              1460.4139              1465.3142
 Red. masses --      1.4471                 1.0969                 1.2221
 Frc consts  --      1.7353                 1.3784                 1.5461
 IR Inten    --    249.5289                 1.9360                35.8863

                     40                     41                     42
                      A                      A                      A
 Frequencies --   1485.6561              1486.0754              1490.8973
 Red. masses --      1.0569                 1.0656                 1.0779
 Frc consts  --      1.3745                 1.3865                 1.4117
 IR Inten    --     12.2050                 8.6168                41.5337

                     43                     44                     45
                      A                      A                      A
 Frequencies --   1491.2786              1504.1132              1651.9419
 Red. masses --      1.0557                 1.0337                 1.1314
 Frc consts  --      1.3832                 1.3779                 1.8191
 IR Inten    --     14.1852                23.2087               153.6188

                     46                     47                     48
                      A                      A                      A
 Frequencies --   1658.7136              3071.7763              3077.0182
 Red. masses --      7.6059                 1.0330                 1.0376
 Frc consts  --     12.3294                 5.7429                 5.7881
 IR Inten    --    567.5201                24.4392                10.6424

                     49                     50                     51
                      A                      A                      A
 Frequencies --   3077.4404              3149.4907              3152.8353
 Red. masses --      1.0358                 1.1049                 1.0997
 Frc consts  --      5.7800                 6.4572                 6.4405
 IR Inten    --      3.9827                 8.2832                12.8175

                     52                     53                     54
                      A                      A                      A
 Frequencies --   3156.4886              3169.9147              3171.0994
 Red. masses --      1.1020                 1.1055                 1.1045
 Frc consts  --      6.4691                 6.5447                 6.5436
 IR Inten    --      7.0067                11.3541                13.6295

                     55                     56                     57
                      A                      A                      A
 Frequencies --   3177.7254              3530.2210              3610.1176
 Red. masses --      1.1021                 1.0508                 1.0959
 Frc consts  --      6.5569                 7.7156                 8.4152
 IR Inten    --     33.6513                53.9756                49.3146

 - Thermochemistry -
 -------------------
 Temperature   298.150 Kelvin.  Pressure   1.00000 Atm.
 Atom     1 has atomic number  6 and mass  12.00000

 Molecular mass:   270.92074 amu.
 Principal axes and moments of inertia in atomic units:
                           1         2         3
     Eigenvalues --  2042.531124054.279844434.69329
           X            0.99982   0.01412  -0.01286
           Y           -0.01443   0.99959  -0.02469
           Z            0.01250   0.02487   0.99961
 This molecule is an asymmetric top.
 Rotational symmetry number  1.
 Warning -- assumption of classical behavior for rotation
           may cause significant error
 Rotational temperatures (Kelvin)      0.04241     0.02136     0.01953
 Rotational constants (GHZ):           0.88358     0.44514     0.40696
    1 imaginary frequencies ignored.
 Zero-point vibrational energy     437259.2 (Joules/Mol)
                                  104.50747 (Kcal/Mol)
 Warning -- explicit consideration of  18 degrees of freedom as
           vibrations may cause significant error
 Vibrational temperatures:     66.91    83.56   107.89   187.61   219.57
          (Kelvin)            236.96   263.39   290.36   318.27   361.41
                              395.21   425.82   473.35   518.82   527.39
                              660.04   752.63   858.34   918.07   948.29
                              999.61  1282.11  1434.80  1449.71  1486.69
                             1496.63  1518.77  1545.30  1557.91  1601.69
                             1762.65  1869.33  1929.75  1998.59  2024.84
                             2052.63  2101.21  2108.26  2137.53  2138.13
                             2145.07  2145.62  2164.08  2376.78  2386.52
                             4419.60  4427.14  4427.75  4531.41  4536.23
                             4541.48  4560.80  4562.50  4572.04  5079.20
                             5194.15

 Zero-point correction=                           0.166543 (Hartree/Particle)
 Thermal correction to Energy=                    0.179281
 Thermal correction to Enthalpy=                  0.180225
 Thermal correction to Gibbs Free Energy=         0.125729
 Sum of electronic and zero-point Energies=          -5513.481538
 Sum of electronic and thermal Energies=             -5513.468801
 Sum of electronic and thermal Enthalpies=           -5513.467857
 Sum of electronic and thermal Free Energies=        -5513.522353

                     E (Thermal)             CV                S
                      KCal/Mol        Cal/Mol-Kelvin    Cal/Mol-Kelvin
 Total                  112.500             43.798            114.697
 Electronic               0.000              0.000              0.000
 Translational            0.889              2.981             42.689
 Rotational               0.889              2.981             31.974
 Vibrational            110.723             37.837             40.034
 Vibration     1          0.595              1.979              4.961
 Vibration     2          0.596              1.974              4.521
 Vibration     3          0.599              1.966              4.018
 Vibration     4          0.612              1.923              2.940
 Vibration     5          0.619              1.900              2.639
 Vibration     6          0.623              1.886              2.495
 Vibration     7          0.631              1.863              2.297
 Vibration     8          0.639              1.837              2.117
 Vibration     9          0.648              1.809              1.949
 Vibration    10          0.663              1.761              1.722
 Vibration    11          0.677              1.720              1.567
 Vibration    12          0.690              1.681              1.440
 Vibration    13          0.712              1.618              1.265
 Vibration    14          0.735              1.553              1.120
 Vibration    15          0.739              1.541              1.094
 Vibration    16          0.817              1.342              0.770
 Vibration    17          0.878              1.199              0.603
 Vibration    18          0.954              1.039              0.456

 Optimization completed.
    -- Stationary point found.
 Normal termination of Gaussian 16 at Tue Feb 16 15:55:33 2021.
