 Gaussian 16, Revision A.03,
 Gaussian 16:  ES64L-G16RevA.03 25-Dec-2016

 ----------------------------------------------------------------------
 # wB97XD def2tzvp, opt=(ts, noeigen, calcfc, maxcycles=70, maxstep=8),
  freq=noraman, scrf=(iefpcm, solvent=water)
 ----------------------------------------------------------------------

 -----------------------
 1_iteration/TS-57-1.out
 -----------------------
 Symbolic Z-matrix:
 Charge =  0 Multiplicity = 1

 SCF Done:  E(RwB97XD) =  -558.160065517     A.U. after   15 cycles
 SCF Done:  E(RwB97XD) =  -558.160065498     A.U. after    6 cycles
 Optimization completed.
    -- Stationary point found.
 Normal termination of Gaussian 16 at Sun Jan 31 05:40:00 2021.

 ---------------------------------------------------------------------
 #N Geom=AllCheck Guess=TCheck SCRF=Check GenChk RwB97XD/def2TZVP Freq
 ---------------------------------------------------------------------

 Structure from the checkpoint file:  "/beegfs/scratch/user/q/tla25/Gau-94042.chk"
 -----------------------
 1_iteration/TS-57-1.out
 -----------------------
 Charge =  0 Multiplicity = 1

                         Standard orientation:
 ---------------------------------------------------------------------
 Center     Atomic      Atomic             Coordinates (Angstroms)
 Number     Number       Type             X           Y           Z
 ---------------------------------------------------------------------
      1          6           0        1.482344   -0.677146    0.024684
      2          6           0        2.648560   -0.823216   -0.751152
      3          8           0        3.625408   -1.556862   -0.525454
      4          6           0        0.517260    0.235009   -0.453072
      5          6           0        2.110230    2.400386    0.214940
      6          1           0        2.282343    3.305964    0.795213
      7          1           0        2.776872    1.612256    0.564876
      8          1           0        2.319943    2.596064   -0.835071
      9          7           0        0.736668    1.932002    0.348112
     10          1           0        0.472872    1.839709    1.322182
     11          1           0        0.074218    2.561437   -0.090740
     12          6           0       -0.947957    0.045297   -0.239638
     13          6           0       -1.524330   -0.088347    1.022691
     14          6           0       -2.889702   -0.285583    1.158899
     15          6           0       -3.702041   -0.356573    0.036174
     16          6           0       -3.140708   -0.218790   -1.224724
     17          6           0       -1.776237   -0.012362   -1.358465
     18          1           0       -0.909940   -0.034048    1.912027
     19          1           0       -3.319957   -0.384681    2.147399
     20          1           0       -4.767668   -0.513321    0.144377
     21          1           0       -3.766122   -0.265858   -2.107176
     22          1           0       -1.344744    0.100309   -2.346191
     23          1           0        0.731581    0.590947   -1.457828
     24          6           0        1.338727   -1.439755    1.310258
     25          1           0        0.409238   -2.013633    1.357357
     26          1           0        2.170962   -2.137258    1.403974
     27          1           0        1.357963   -0.789046    2.191856
     28          1           0        2.655625   -0.211485   -1.678986
 ---------------------------------------------------------------------

 SCF Done:  E(RwB97XD) =  -558.160065498     A.U. after    1 cycles

 The electronic state is 1-A.
 Alpha  occ. eigenvalues --  -19.19174 -14.48971 -10.34011 -10.32825 -10.31727
 Alpha  occ. eigenvalues --  -10.30627 -10.29501 -10.29441 -10.29360 -10.29313
 Alpha  occ. eigenvalues --  -10.29232 -10.26458 -10.25343  -1.09105  -1.04434
 Alpha  occ. eigenvalues --   -0.97368  -0.90830  -0.85678  -0.85309  -0.79413
 Alpha  occ. eigenvalues --   -0.78633  -0.73471  -0.70964  -0.67823  -0.63996
 Alpha  occ. eigenvalues --   -0.61695  -0.60231  -0.57241  -0.56528  -0.55664
 Alpha  occ. eigenvalues --   -0.54879  -0.52335  -0.51762  -0.51154  -0.49340
 Alpha  occ. eigenvalues --   -0.48075  -0.47954  -0.47224  -0.45637  -0.44176
 Alpha  occ. eigenvalues --   -0.43920  -0.43366  -0.42956  -0.41908  -0.34175
 Alpha  occ. eigenvalues --   -0.33714  -0.31183  -0.26465
 Alpha virt. eigenvalues --    0.02940   0.04907   0.08558   0.10022   0.12760
 Alpha virt. eigenvalues --    0.13289   0.14028   0.14194   0.16078   0.16533
 Alpha virt. eigenvalues --    0.16885   0.18136   0.18494   0.19495   0.19730

 Mulliken charges:
               1
     1  C   -0.089110
     2  C    0.074486
     3  O   -0.555670
     4  C   -0.123951
     5  C   -0.309050
     6  H    0.161149
     7  H    0.162918
     8  H    0.156010
     9  N   -0.289148
    10  H    0.283521
    11  H    0.290368
    12  C    0.294916
    13  C   -0.321658
    14  C   -0.140428
    15  C   -0.157504
    16  C   -0.131300
    17  C   -0.236789
    18  H    0.175161
    19  H    0.145115
    20  H    0.146063
    21  H    0.145126
    22  H    0.141760
    23  H    0.166091
    24  C   -0.417415
    25  H    0.135086
    26  H    0.124833
    27  H    0.120595
    28  H    0.048824
 Sum of Mulliken charges =  -0.00000

 Dipole moment (field-independent basis, Debye):
    X=             -7.6195    Y=              9.7039    Z=              1.7181  Tot=             12.4569
 Quadrupole moment (field-independent basis, Debye-Ang):
   XX=           -102.9950   YY=            -76.8005   ZZ=            -71.0455
   XY=             21.5117   XZ=              4.4931   YZ=             -1.0352

  Exact polarizability: 256.111 -18.012 170.473  -8.662  -1.395 188.627
 Approx polarizability: 192.842 -12.325 139.443  -4.475  -1.237 161.042

 ******    1 imaginary frequencies (negative Signs) ******

                      1                      2                      3
                      A                      A                      A
 Frequencies --   -347.4408                47.6601                57.1583
 Red. masses --      6.1354                 3.3929                 2.0608
 Frc consts  --      0.4364                 0.0045                 0.0040
 IR Inten    --    903.1450                 2.8443                 1.3916

                      4                      5                      6
                      A                      A                      A
 Frequencies --     69.6758                95.9854               117.0164
 Red. masses --      5.1543                 3.3990                 2.8040
 Frc consts  --      0.0147                 0.0185                 0.0226
 IR Inten    --      6.1627                 5.5176                13.3727

                      7                      8                      9
                      A                      A                      A
 Frequencies --    132.6653               171.9533               187.4231
 Red. masses --      1.6175                 1.0625                 1.9777
 Frc consts  --      0.0168                 0.0185                 0.0409
 IR Inten    --      2.0214                 0.9879                 4.2110

                     10                     11                     12
                      A                      A                      A
 Frequencies --    251.8895               278.0831               288.1561
 Red. masses --      3.3487                 4.6693                 3.3038
 Frc consts  --      0.1252                 0.2127                 0.1616
 IR Inten    --      3.2507                25.9700                 7.3988

                     13                     14                     15
                      A                      A                      A
 Frequencies --    305.6614               331.0188               404.9041
 Red. masses --      3.6518                 3.8697                 2.8316
 Frc consts  --      0.2010                 0.2498                 0.2735
 IR Inten    --     12.7827                 7.4909                10.8537

                     16                     17                     18
                      A                      A                      A
 Frequencies --    425.0326               478.9235               556.6059
 Red. masses --      2.8900                 2.9697                 2.4776
 Frc consts  --      0.3076                 0.4013                 0.4522
 IR Inten    --      2.5809                47.4206               146.4706

                     19                     20                     21
                      A                      A                      A
 Frequencies --    633.5157               638.8646               642.2118
 Red. masses --      3.8875                 6.0275                 2.4001
 Frc consts  --      0.9193                 1.4495                 0.5832
 IR Inten    --     36.5635                53.5583                19.7797

                     22                     23                     24
                      A                      A                      A
 Frequencies --    729.2758               758.2167               798.0610
 Red. masses --      1.5945                 2.4165                 2.1467
 Frc consts  --      0.4997                 0.8185                 0.8056
 IR Inten    --     90.1686                21.9665                11.2329

                     25                     26                     27
                      A                      A                      A
 Frequencies --    849.7292               881.3474               889.8672
 Red. masses --      3.6424                 1.2489                 3.4771
 Frc consts  --      1.5495                 0.5716                 1.6222
 IR Inten    --      6.3252                 0.3733                15.7419

                     28                     29                     30
                      A                      A                      A
 Frequencies --    962.6883              1003.7359              1015.0795
 Red. masses --      1.4233                 1.1686                 1.3780
 Frc consts  --      0.7772                 0.6937                 0.8366
 IR Inten    --      3.5455                57.8206                18.1002

                     31                     32                     33
                      A                      A                      A
 Frequencies --   1019.6382              1025.1544              1026.1139
 Red. masses --      1.5600                 1.6675                 4.0393
 Frc consts  --      0.9556                 1.0325                 2.5058
 IR Inten    --      6.3244               120.7374                22.7777

                     34                     35                     36
                      A                      A                      A
 Frequencies --   1031.8692              1035.3593              1061.0102
 Red. masses --      1.2549                 1.2478                 1.5343
 Frc consts  --      0.7872                 0.7881                 1.0176
 IR Inten    --     76.3779                33.3874                19.8892

                     37                     38                     39
                      A                      A                      A
 Frequencies --   1066.9157              1087.1234              1119.8076
 Red. masses --      1.8861                 4.7893                 1.5885
 Frc consts  --      1.2650                 3.3349                 1.1736
 IR Inten    --      1.7620                44.1334                16.7507

                     40                     41                     42
                      A                      A                      A
 Frequencies --   1181.8200              1186.5508              1216.5386
 Red. masses --      1.1654                 1.1211                 1.1525
 Frc consts  --      0.9590                 0.9300                 1.0050
 IR Inten    --     45.5846                 9.5812                 3.4749

                     43                     44                     45
                      A                      A                      A
 Frequencies --   1223.8034              1243.5763              1255.1863
 Red. masses --      1.4002                 1.7120                 2.2698
 Frc consts  --      1.2356                 1.5599                 2.1069
 IR Inten    --     47.0852                14.3626               101.6946

                     46                     47                     48
                      A                      A                      A
 Frequencies --   1331.4066              1344.4964              1367.4862
 Red. masses --      4.2185                 1.3311                 1.4440
 Frc consts  --      4.4059                 1.4177                 1.5909
 IR Inten    --     93.9180                 2.5925                67.4859

                     49                     50                     51
                      A                      A                      A
 Frequencies --   1385.8314              1415.3251              1434.5133
 Red. masses --      1.3816                 1.7961                 2.0602
 Frc consts  --      1.5633                 2.1198                 2.4979
 IR Inten    --     29.1828               143.8179               116.8610

                     52                     53                     54
                      A                      A                      A
 Frequencies --   1448.1243              1471.9400              1483.9093
 Red. masses --      1.1960                 1.4897                 1.1628
 Frc consts  --      1.4777                 1.9016                 1.5086
 IR Inten    --      9.3928                32.9911                34.7993

                     55                     56                     57
                      A                      A                      A
 Frequencies --   1492.9780              1495.8907              1498.3956
 Red. masses --      1.0386                 1.3663                 1.0652
 Frc consts  --      1.3640                 1.8013                 1.4090
 IR Inten    --     19.0110                13.0252                20.3778

                     58                     59                     60
                      A                      A                      A
 Frequencies --   1519.0371              1551.1198              1632.5121
 Red. masses --      2.0779                 2.4513                 6.0081
 Frc consts  --      2.8250                 3.4749                 9.4340
 IR Inten    --    193.8460                22.1232              1506.9187

                     61                     62                     63
                      A                      A                      A
 Frequencies --   1646.2376              1654.5507              1677.9626
 Red. masses --      1.1027                 5.3700                 5.8015
 Frc consts  --      1.7608                 8.6613                 9.6239
 IR Inten    --     45.4078                 4.1341                 0.7052

                     64                     65                     66
                      A                      A                      A
 Frequencies --   2871.7820              3017.5893              3069.6059
 Red. masses --      1.0800                 1.0450                 1.0326
 Frc consts  --      5.2478                 5.6062                 5.7328
 IR Inten    --    208.3222                75.6248                32.5028

                     67                     68                     69
                      A                      A                      A
 Frequencies --   3072.4614              3132.2854              3143.2426
 Red. masses --      1.0947                 1.0970                 1.0882
 Frc consts  --      6.0886                 6.3415                 6.3344
 IR Inten    --     48.0965                18.3938                22.0835

                     70                     71                     72
                      A                      A                      A
 Frequencies --   3151.4478              3163.5854              3191.9806
 Red. masses --      1.1048                 1.1062                 1.0874
 Frc consts  --      6.4650                 6.5231                 6.5279
 IR Inten    --      5.8743                15.1332                 6.5340

                     73                     74                     75
                      A                      A                      A
 Frequencies --   3199.1764              3207.4483              3215.4558
 Red. masses --      1.0876                 1.0913                 1.0948
 Frc consts  --      6.5584                 6.6147                 6.6694
 IR Inten    --      0.4225                14.8772                33.9364

                     76                     77                     78
                      A                      A                      A
 Frequencies --   3224.2175              3528.4077              3609.4536
 Red. masses --      1.0988                 1.0506                 1.0962
 Frc consts  --      6.7300                 7.7064                 8.4144
 IR Inten    --     14.6499                47.5541                43.4853

 - Thermochemistry -
 -------------------
 Temperature   298.150 Kelvin.  Pressure   1.00000 Atm.
 Atom     1 has atomic number  6 and mass  12.00000

 Molecular mass:   177.11536 amu.
 Principal axes and moments of inertia in atomic units:
                           1         2         3
     Eigenvalues --  1371.302103898.798514261.71053
           X            0.99970   0.02422   0.00473
           Y           -0.02397   0.99860  -0.04711
           Z           -0.00586   0.04698   0.99888
 This molecule is an asymmetric top.
 Rotational symmetry number  1.
 Warning -- assumption of classical behavior for rotation
           may cause significant error
 Rotational temperatures (Kelvin)      0.06316     0.02222     0.02032
 Rotational constants (GHZ):           1.31608     0.46290     0.42348
    1 imaginary frequencies ignored.
 Zero-point vibrational energy     630627.8 (Joules/Mol)
                                  150.72365 (Kcal/Mol)
 Warning -- explicit consideration of  17 degrees of freedom as
           vibrations may cause significant error
 Vibrational temperatures:     68.57    82.24   100.25   138.10   168.36
          (Kelvin)            190.88   247.40   269.66   362.41   400.10
                              414.59   439.78   476.26   582.57   611.53
                              689.06   800.83   911.49   919.18   924.00
                             1049.27  1090.90  1148.23  1222.57  1268.06
                             1280.32  1385.09  1444.15  1460.47  1467.03
                             1474.97  1476.35  1484.63  1489.65  1526.56
                             1535.05  1564.13  1611.15  1700.38  1707.18
                             1750.33  1760.78  1789.23  1805.93  1915.60
                             1934.43  1967.51  1993.90  2036.34  2063.94
                             2083.53  2117.79  2135.01  2148.06  2152.25
                             2155.86  2185.56  2231.72  2348.82  2368.57
                             2380.53  2414.21  4131.85  4341.64  4416.48
                             4420.59  4506.66  4522.43  4534.23  4551.69
                             4592.55  4602.90  4614.80  4626.32  4638.93
                             5076.59  5193.20

 Zero-point correction=                           0.240193 (Hartree/Particle)
 Thermal correction to Energy=                    0.253416
 Thermal correction to Enthalpy=                  0.254360
 Thermal correction to Gibbs Free Energy=         0.199690
 Sum of electronic and zero-point Energies=           -557.919872
 Sum of electronic and thermal Energies=              -557.906649
 Sum of electronic and thermal Enthalpies=            -557.905705
 Sum of electronic and thermal Free Energies=         -557.960376

                     E (Thermal)             CV                S
                      KCal/Mol        Cal/Mol-Kelvin    Cal/Mol-Kelvin
 Total                  159.021             48.498            115.063
 Electronic               0.000              0.000              0.000
 Translational            0.889              2.981             41.422
 Rotational               0.889              2.981             31.500
 Vibrational            157.244             42.536             42.142
 Vibration     1          0.595              1.978              4.912
 Vibration     2          0.596              1.975              4.553
 Vibration     3          0.598              1.969              4.162
 Vibration     4          0.603              1.952              3.534
 Vibration     5          0.608              1.935              3.149
 Vibration     6          0.613              1.921              2.907
 Vibration     7          0.626              1.877              2.414
 Vibration     8          0.632              1.857              2.253
 Vibration     9          0.664              1.760              1.717
 Vibration    10          0.679              1.714              1.545
 Vibration    11          0.685              1.696              1.485
 Vibration    12          0.696              1.663              1.386
 Vibration    13          0.713              1.614              1.255
 Vibration    14          0.770              1.460              0.945
 Vibration    15          0.787              1.416              0.875
 Vibration    16          0.835              1.297              0.713
 Vibration    17          0.912              1.125              0.531

 Optimization completed.
    -- Stationary point found.
 Normal termination of Gaussian 16 at Sun Jan 31 06:20:40 2021.
