 Gaussian 16, Revision A.03,
 Gaussian 16:  ES64L-G16RevA.03 25-Dec-2016

 ----------------------------------------------------------------------
 # wB97XD def2tzvp, opt=(ts, noeigen, calcfc, maxcycles=70, maxstep=3),
  freq=noraman, scrf=(iefpcm, solvent=water)
 ----------------------------------------------------------------------

 ------------------------
 0_iteration/TS-554-0.out
 ------------------------
 Symbolic Z-matrix:
 Charge =  0 Multiplicity = 1

 SCF Done:  E(RwB97XD) =  -3399.62315000     A.U. after   15 cycles
 SCF Done:  E(RwB97XD) =  -3399.62273060     A.U. after   12 cycles
 SCF Done:  E(RwB97XD) =  -3399.62237336     A.U. after   12 cycles
 SCF Done:  E(RwB97XD) =  -3399.62212307     A.U. after   13 cycles
 SCF Done:  E(RwB97XD) =  -3399.62210168     A.U. after   14 cycles
 SCF Done:  E(RwB97XD) =  -3399.62261012     A.U. after   14 cycles
 SCF Done:  E(RwB97XD) =  -3399.62344623     A.U. after   14 cycles
 SCF Done:  E(RwB97XD) =  -3399.62425549     A.U. after   13 cycles
 SCF Done:  E(RwB97XD) =  -3399.62510847     A.U. after   13 cycles
 SCF Done:  E(RwB97XD) =  -3399.62596625     A.U. after   13 cycles
 SCF Done:  E(RwB97XD) =  -3399.64301483     A.U. after   10 cycles
 SCF Done:  E(RwB97XD) =  -3399.64301954     A.U. after   10 cycles
 SCF Done:  E(RwB97XD) =  -3399.64302304     A.U. after   10 cycles
 SCF Done:  E(RwB97XD) =  -3399.64302067     A.U. after   10 cycles
 SCF Done:  E(RwB97XD) =  -3399.64302574     A.U. after    9 cycles
 SCF Done:  E(RwB97XD) =  -3399.64302589     A.U. after   10 cycles
 SCF Done:  E(RwB97XD) =  -3399.64302580     A.U. after    7 cycles
 SCF Done:  E(RwB97XD) =  -3399.64302524     A.U. after   10 cycles
 SCF Done:  E(RwB97XD) =  -3399.64302598     A.U. after    9 cycles
 Optimization completed.
    -- Stationary point found.
 Normal termination of Gaussian 16 at Tue Apr 13 13:01:40 2021.

 ---------------------------------------------------------------------
 #N Geom=AllCheck Guess=TCheck SCRF=Check GenChk RwB97XD/def2TZVP Freq
 ---------------------------------------------------------------------

 Structure from the checkpoint file:  "/beegfs/scratch/user/q/tla25/Gau-139797.chk"
 ------------------------
 0_iteration/TS-554-0.out
 ------------------------
 Charge =  0 Multiplicity = 1

                         Standard orientation:
 ---------------------------------------------------------------------
 Center     Atomic      Atomic             Coordinates (Angstroms)
 Number     Number       Type             X           Y           Z
 ---------------------------------------------------------------------
      1          6           0        0.922981    0.134564   -0.312603
      2          6           0        1.293841    1.409887    0.240001
      3          8           0        2.412487    1.891863    0.060407
      4          6           0       -0.283969   -0.566437   -0.270615
      5          6           0        0.650285   -1.764533    2.106221
      6          1           0        1.409285   -0.990504    1.991494
      7          1           0        0.529446   -1.993875    3.164304
      8          1           0        0.974308   -2.658772    1.578562
      9          7           0       -0.594613   -1.279754    1.521671
     10          1           0       -0.988508   -0.525902    2.072363
     11          1           0       -1.297433   -2.008292    1.460242
     12          6           0       -0.443884   -1.851186   -1.041060
     13          1           0        0.318441   -2.571443   -0.750394
     14          1           0       -1.429056   -2.281276   -0.878683
     15          1           0       -0.326920   -1.647289   -2.105624
     16         35           0       -1.944986    0.459077   -0.410758
     17         17           0        2.275911   -0.719912   -1.063974
     18          6           0        0.323736    2.203451    1.093616
     19          1           0       -0.344652    1.595499    1.698265
     20          1           0        0.916723    2.840849    1.746770
     21          1           0       -0.293158    2.840703    0.458464
 ---------------------------------------------------------------------

 SCF Done:  E(RwB97XD) =  -3399.64302598     A.U. after    1 cycles

 The electronic state is 1-A.
 Alpha  occ. eigenvalues -- -483.13600-101.68526 -62.68454 -56.47572 -56.47216
 Alpha  occ. eigenvalues --  -56.47199 -19.21146 -14.49385 -10.41077 -10.36533
 Alpha  occ. eigenvalues --  -10.32093 -10.31770 -10.29601 -10.27828  -9.57058
 Alpha  occ. eigenvalues --   -8.82563  -7.31694  -7.30845  -7.30829  -6.64722
 Alpha  occ. eigenvalues --   -6.63593  -6.63537  -2.75105  -2.74793  -2.74750
 Alpha  occ. eigenvalues --   -2.73836  -2.73835  -1.12285  -1.04876  -0.97378
 Alpha  occ. eigenvalues --   -0.92125  -0.84793  -0.84340  -0.79458  -0.78852
 Alpha  occ. eigenvalues --   -0.69526  -0.63941  -0.60126  -0.58397  -0.57191
 Alpha  occ. eigenvalues --   -0.55388  -0.54667  -0.52325  -0.50737  -0.50529
 Alpha  occ. eigenvalues --   -0.49322  -0.48291  -0.47127  -0.45285  -0.44789
 Alpha  occ. eigenvalues --   -0.43450  -0.41029  -0.39199  -0.37587  -0.37283
 Alpha  occ. eigenvalues --   -0.33023  -0.28199
 Alpha virt. eigenvalues --    0.02416   0.04162   0.09530   0.11737   0.13439
 Alpha virt. eigenvalues --    0.14034   0.14261   0.15616   0.16695   0.18125
 Alpha virt. eigenvalues --    0.18636   0.19568   0.20151   0.20851   0.21501

 Mulliken charges:
               1
     1  C   -0.130947
     2  C    0.185300
     3  O   -0.484024
     4  C    0.124614
     5  C   -0.295784
     6  H    0.158632
     7  H    0.163888
     8  H    0.161678
     9  N   -0.327908
    10  H    0.283054
    11  H    0.292221
    12  C   -0.382866
    13  H    0.153117
    14  H    0.155769
    15  H    0.165769
    16  Br  -0.090354
    17  Cl  -0.172950
    18  C   -0.350250
    19  H    0.103490
    20  H    0.135145
    21  H    0.152407
 Sum of Mulliken charges =  -0.00000

 Dipole moment (field-independent basis, Debye):
    X=             -7.6989    Y=             -6.7560    Z=              5.6449  Tot=             11.6954
 Quadrupole moment (field-independent basis, Debye-Ang):
   XX=            -98.2171   YY=            -76.2955   ZZ=            -71.3013
   XY=             -6.5644   XZ=              0.5176   YZ=             -3.8870

  Exact polarizability: 193.795  11.772 173.395  -8.371  -1.628 143.751
 Approx polarizability: 157.579   7.006 140.191  -7.565  -1.678 122.000

 ******    1 imaginary frequencies (negative Signs) ******

                      1                      2                      3
                      A                      A                      A
 Frequencies --   -362.6875                67.0607                72.9641
 Red. masses --      5.4910                 3.8351                 4.4664
 Frc consts  --      0.4256                 0.0102                 0.0140
 IR Inten    --    773.2482                 0.1075                 8.7335

                      4                      5                      6
                      A                      A                      A
 Frequencies --     84.3145               132.7527               162.3995
 Red. masses --      2.9640                 3.2065                 1.9643
 Frc consts  --      0.0124                 0.0333                 0.0305
 IR Inten    --      8.9199                 3.2467                 3.4973

                      7                      8                      9
                      A                      A                      A
 Frequencies --    169.0425               172.8486               210.1786
 Red. masses --      1.5036                 1.4278                 3.2910
 Frc consts  --      0.0253                 0.0251                 0.0857
 IR Inten    --      1.7982                 1.1708                 2.8933

                     10                     11                     12
                      A                      A                      A
 Frequencies --    259.4469               265.0747               276.9487
 Red. masses --      5.1330                 5.5900                 2.0499
 Frc consts  --      0.2036                 0.2314                 0.0926
 IR Inten    --      2.2204                18.1676                 3.3514

                     13                     14                     15
                      A                      A                      A
 Frequencies --    297.4583               323.6473               371.9215
 Red. masses --      3.4765                 2.0805                 1.8333
 Frc consts  --      0.1812                 0.1284                 0.1494
 IR Inten    --      9.1136                 3.8247                 9.6244

                     16                     17                     18
                      A                      A                      A
 Frequencies --    388.2394               477.7757               525.6422
 Red. masses --      4.0698                 4.3480                 4.8071
 Frc consts  --      0.3614                 0.5848                 0.7825
 IR Inten    --     11.7887                26.1902                69.1367

                     19                     20                     21
                      A                      A                      A
 Frequencies --    603.8386               643.5390               660.7763
 Red. masses --      3.2726                 3.1487                 1.4330
 Frc consts  --      0.7031                 0.7683                 0.3686
 IR Inten    --     21.1586                36.2167                51.2973

                     22                     23                     24
                      A                      A                      A
 Frequencies --    720.7914               910.1931               992.0168
 Red. masses --      3.7900                 4.3374                 1.1455
 Frc consts  --      1.1601                 2.1171                 0.6642
 IR Inten    --    214.3443                39.7679                15.4309

                     25                     26                     27
                      A                      A                      A
 Frequencies --   1007.7482              1027.1547              1041.9557
 Red. masses --      1.5948                 1.1251                 1.7737
 Frc consts  --      0.9542                 0.6994                 1.1346
 IR Inten    --    105.1741                92.0920                33.3322

                     28                     29                     30
                      A                      A                      A
 Frequencies --   1058.2895              1075.3990              1081.6308
 Red. masses --      1.7934                 2.2340                 2.8290
 Frc consts  --      1.1834                 1.5222                 1.9500
 IR Inten    --     77.9427                13.6632                 1.0242

                     31                     32                     33
                      A                      A                      A
 Frequencies --   1118.6166              1221.1930              1311.6006
 Red. masses --      2.4012                 1.4019                 4.4154
 Frc consts  --      1.7703                 1.2318                 4.4753
 IR Inten    --     57.9615                27.4869               169.9259

                     34                     35                     36
                      A                      A                      A
 Frequencies --   1338.2451              1392.4489              1408.6045
 Red. masses --      1.3359                 1.3204                 2.5800
 Frc consts  --      1.4096                 1.5084                 3.0161
 IR Inten    --      2.8778                56.8241               856.3031

                     37                     38                     39
                      A                      A                      A
 Frequencies --   1427.9133              1459.0535              1463.1009
 Red. masses --      1.4507                 1.1047                 1.2039
 Frc consts  --      1.7427                 1.3856                 1.5184
 IR Inten    --    263.8805                13.2294                34.2478

                     40                     41                     42
                      A                      A                      A
 Frequencies --   1479.6790              1489.2181              1490.2523
 Red. masses --      1.0851                 1.0947                 1.0562
 Frc consts  --      1.3998                 1.4304                 1.3820
 IR Inten    --     22.4137                23.8528                 9.3175

                     43                     44                     45
                      A                      A                      A
 Frequencies --   1495.1350              1502.0691              1646.1348
 Red. masses --      1.0419                 1.0374                 1.1050
 Frc consts  --      1.3722                 1.3790                 1.7642
 IR Inten    --     19.8783                23.7699               121.6816

                     46                     47                     48
                      A                      A                      A
 Frequencies --   1657.3667              3071.5992              3075.1356
 Red. masses --      8.9362                 1.0331                 1.0375
 Frc consts  --     14.4624                 5.7427                 5.7805
 IR Inten    --    638.2279                26.9645                 8.3135

                     49                     50                     51
                      A                      A                      A
 Frequencies --   3079.3820              3149.2473              3151.1593
 Red. masses --      1.0360                 1.1048                 1.0994
 Frc consts  --      5.7880                 6.4555                 6.4318
 IR Inten    --      6.4711                 8.4568                12.9443

                     52                     53                     54
                      A                      A                      A
 Frequencies --   3157.3518              3170.8043              3173.3375
 Red. masses --      1.1016                 1.1057                 1.1030
 Frc consts  --      6.4701                 6.5495                 6.5440
 IR Inten    --      8.0096                13.2075                27.4974

                     55                     56                     57
                      A                      A                      A
 Frequencies --   3174.3631              3522.6990              3603.3409
 Red. masses --      1.1044                 1.0511                 1.0964
 Frc consts  --      6.5569                 7.6848                 8.3872
 IR Inten    --     17.0333                55.6538                53.5617

 - Thermochemistry -
 -------------------
 Temperature   298.150 Kelvin.  Pressure   1.00000 Atm.
 Atom     1 has atomic number  6 and mass  12.00000

 Molecular mass:   226.97125 amu.
 Principal axes and moments of inertia in atomic units:
                           1         2         3
     Eigenvalues --  1897.750752961.191313410.49323
           X            0.99930   0.03746   0.00197
           Y           -0.03746   0.99930   0.00106
           Z           -0.00193  -0.00113   1.00000
 This molecule is an asymmetric top.
 Rotational symmetry number  1.
 Warning -- assumption of classical behavior for rotation
           may cause significant error
 Rotational temperatures (Kelvin)      0.04564     0.02925     0.02540
 Rotational constants (GHZ):           0.95099     0.60946     0.52917
    1 imaginary frequencies ignored.
 Zero-point vibrational energy     438491.8 (Joules/Mol)
                                  104.80205 (Kcal/Mol)
 Warning -- explicit consideration of  18 degrees of freedom as
           vibrations may cause significant error
 Vibrational temperatures:     96.49   104.98   121.31   191.00   233.66
          (Kelvin)            243.21   248.69   302.40   373.29   381.38
                              398.47   427.98   465.66   535.11   558.59
                              687.41   756.28   868.79   925.91   950.71
                             1037.06  1309.56  1427.29  1449.92  1477.85
                             1499.14  1522.64  1547.26  1556.23  1609.44
                             1757.02  1887.10  1925.44  2003.42  2026.67
                             2054.45  2099.25  2105.08  2128.93  2142.65
                             2144.14  2151.17  2161.14  2368.42  2384.58
                             4419.35  4424.43  4430.54  4531.06  4533.82
                             4542.72  4562.08  4565.72  4567.20  5068.38
                             5184.40

 Zero-point correction=                           0.167013 (Hartree/Particle)
 Thermal correction to Energy=                    0.179489
 Thermal correction to Enthalpy=                  0.180433
 Thermal correction to Gibbs Free Energy=         0.127541
 Sum of electronic and zero-point Energies=          -3399.476013
 Sum of electronic and thermal Energies=             -3399.463537
 Sum of electronic and thermal Enthalpies=           -3399.462593
 Sum of electronic and thermal Free Energies=        -3399.515485

                     E (Thermal)             CV                S
                      KCal/Mol        Cal/Mol-Kelvin    Cal/Mol-Kelvin
 Total                  112.631             43.455            111.321
 Electronic               0.000              0.000              0.000
 Translational            0.889              2.981             42.161
 Rotational               0.889              2.981             31.328
 Vibrational            110.853             37.494             37.832
 Vibration     1          0.598              1.970              4.238
 Vibration     2          0.599              1.967              4.072
 Vibration     3          0.601              1.960              3.788
 Vibration     4          0.613              1.921              2.906
 Vibration     5          0.623              1.889              2.522
 Vibration     6          0.625              1.881              2.446
 Vibration     7          0.626              1.876              2.404
 Vibration     8          0.642              1.825              2.042
 Vibration     9          0.668              1.747              1.665
 Vibration    10          0.671              1.737              1.628
 Vibration    11          0.678              1.716              1.552
 Vibration    12          0.691              1.678              1.431
 Vibration    13          0.708              1.628              1.292
 Vibration    14          0.744              1.530              1.072
 Vibration    15          0.756              1.495              1.007
 Vibration    16          0.834              1.299              0.716
 Vibration    17          0.881              1.193              0.597
 Vibration    18          0.962              1.024              0.443

 Optimization completed.
    -- Stationary point found.
 Normal termination of Gaussian 16 at Tue Apr 13 13:09:07 2021.
