 Gaussian 16, Revision A.03,
 Gaussian 16:  ES64L-G16RevA.03 25-Dec-2016

 ----------------------------------------------------------------------
 # wB97XD def2tzvp, opt=(ts, noeigen, calcfc, maxcycles=70, maxstep=1),
  freq=noraman, scrf=(iefpcm, solvent=water)
 ----------------------------------------------------------------------

 ------------------------
 0_iteration/TS-569-0.out
 ------------------------
 Symbolic Z-matrix:
 Charge =  0 Multiplicity = 1

 SCF Done:  E(RwB97XD) =  -786.710421088     A.U. after   14 cycles
 SCF Done:  E(RwB97XD) =  -786.710392929     A.U. after   10 cycles
 SCF Done:  E(RwB97XD) =  -786.710368637     A.U. after   10 cycles
 SCF Done:  E(RwB97XD) =  -786.710348234     A.U. after   10 cycles
 SCF Done:  E(RwB97XD) =  -786.710331786     A.U. after   10 cycles
 SCF Done:  E(RwB97XD) =  -786.710319500     A.U. after   10 cycles
 SCF Done:  E(RwB97XD) =  -786.710311905     A.U. after   10 cycles
 SCF Done:  E(RwB97XD) =  -786.710311052     A.U. after   10 cycles
 SCF Done:  E(RwB97XD) =  -786.710326835     A.U. after   10 cycles
 SCF Done:  E(RwB97XD) =  -786.710368696     A.U. after   10 cycles
 SCF Done:  E(RwB97XD) =  -786.713943740     A.U. after   10 cycles
 SCF Done:  E(RwB97XD) =  -786.714003682     A.U. after   10 cycles
 SCF Done:  E(RwB97XD) =  -786.714043753     A.U. after   10 cycles
 SCF Done:  E(RwB97XD) =  -786.714066310     A.U. after   10 cycles
 SCF Done:  E(RwB97XD) =  -786.714079441     A.U. after   10 cycles
 SCF Done:  E(RwB97XD) =  -786.714083835     A.U. after   10 cycles
 SCF Done:  E(RwB97XD) =  -786.714084102     A.U. after    7 cycles
 SCF Done:  E(RwB97XD) =  -786.714084365     A.U. after    7 cycles
 SCF Done:  E(RwB97XD) =  -786.714084572     A.U. after    7 cycles
 Optimization completed.
    -- Stationary point found.
 Normal termination of Gaussian 16 at Mon Feb 15 19:29:13 2021.

 ---------------------------------------------------------------------
 #N Geom=AllCheck Guess=TCheck SCRF=Check GenChk RwB97XD/def2TZVP Freq
 ---------------------------------------------------------------------

 Structure from the checkpoint file:  "/beegfs/scratch/user/q/tla25/Gau-69763.chk"
 ------------------------
 0_iteration/TS-569-0.out
 ------------------------
 Charge =  0 Multiplicity = 1

                         Standard orientation:
 ---------------------------------------------------------------------
 Center     Atomic      Atomic             Coordinates (Angstroms)
 Number     Number       Type             X           Y           Z
 ---------------------------------------------------------------------
      1          6           0       -1.194231   -0.304104    0.647916
      2          6           0       -2.197684   -0.211789   -0.336649
      3          8           0       -3.337829   -0.683746   -0.255987
      4          6           0        0.108591    0.182215    0.535351
      5          6           0        2.576537   -1.046551   -0.637868
      6          1           0        2.945827   -1.848092   -1.278821
      7          1           0        2.765057   -0.089152   -1.120448
      8          1           0        3.108070   -1.081734    0.310402
      9          7           0        1.140256   -1.179904   -0.393113
     10          1           0        0.621798   -1.253497   -1.261620
     11          1           0        0.929321   -2.009222    0.151599
     12          6           0        0.947199    0.329628    1.771581
     13          1           0        0.880026   -0.576956    2.373115
     14          1           0        1.989579    0.533824    1.537376
     15          1           0        0.558805    1.162950    2.357986
     16         17           0        0.400816    1.512786   -0.614608
     17          1           0       -1.412995   -0.869219    1.547745
     18          1           0       -1.921003    0.346636   -1.251308
 ---------------------------------------------------------------------

 SCF Done:  E(RwB97XD) =  -786.714084572     A.U. after    1 cycles

 The electronic state is 1-A.
 Alpha  occ. eigenvalues -- -101.70113 -19.20406 -14.48761 -10.40747 -10.34229
 Alpha  occ. eigenvalues --  -10.31961 -10.29254 -10.25494  -9.58713  -7.33338
 Alpha  occ. eigenvalues --   -7.32507  -7.32466  -1.10460  -1.04488  -0.97855
 Alpha  occ. eigenvalues --   -0.87418  -0.82262  -0.79134  -0.69390  -0.64004
 Alpha  occ. eigenvalues --   -0.62853  -0.58648  -0.56342  -0.55682  -0.53832
 Alpha  occ. eigenvalues --   -0.50312  -0.49172  -0.48705  -0.47604  -0.46303
 Alpha  occ. eigenvalues --   -0.45892  -0.43998  -0.40415  -0.39183  -0.31959
 Alpha  occ. eigenvalues --   -0.28532
 Alpha virt. eigenvalues --    0.03685   0.08667   0.10221   0.13064   0.14032
 Alpha virt. eigenvalues --    0.15031   0.16835   0.17488   0.18931   0.19523
 Alpha virt. eigenvalues --    0.19850   0.19981   0.20712   0.21762   0.23589

 Mulliken charges:
               1
     1  C   -0.311084
     2  C    0.116963
     3  O   -0.523534
     4  C    0.129194
     5  C   -0.289693
     6  H    0.158529
     7  H    0.150770
     8  H    0.160141
     9  N   -0.334758
    10  H    0.284574
    11  H    0.284253
    12  C   -0.370009
    13  H    0.151586
    14  H    0.153376
    15  H    0.156010
    16  Cl  -0.114138
    17  H    0.134544
    18  H    0.063275
 Sum of Mulliken charges =  -0.00000

 Dipole moment (field-independent basis, Debye):
    X=             11.2134    Y=             -2.4705    Z=              0.3504  Tot=             11.4877
 Quadrupole moment (field-independent basis, Debye-Ang):
   XX=            -77.5384   YY=            -53.2758   ZZ=            -51.0707
   XY=            -10.5090   XZ=             -1.2766   YZ=              0.9776

  Exact polarizability: 173.443   2.841 107.757  -1.129  -4.434 107.357
 Approx polarizability: 127.965   3.508  92.029  -0.720  -4.630  91.350

 ******    1 imaginary frequencies (negative Signs) ******

                      1                      2                      3
                      A                      A                      A
 Frequencies --   -349.5143                72.7276                91.1534
 Red. masses --      6.1779                 2.0698                 4.9948
 Frc consts  --      0.4447                 0.0065                 0.0245
 IR Inten    --    930.6653                 3.7303                 5.5610

                      4                      5                      6
                      A                      A                      A
 Frequencies --    160.9685               183.2718               204.8907
 Red. masses --      1.5671                 5.7710                 1.7455
 Frc consts  --      0.0239                 0.1142                 0.0432
 IR Inten    --      6.6773                 7.8928                 9.2299

                      7                      8                      9
                      A                      A                      A
 Frequencies --    217.6249               261.1258               278.0202
 Red. masses --      1.9810                 1.3024                 2.1252
 Frc consts  --      0.0553                 0.0523                 0.0968
 IR Inten    --      3.0981                 1.6391                 6.2767

                     10                     11                     12
                      A                      A                      A
 Frequencies --    317.1261               368.7997               435.2366
 Red. masses --      3.0618                 3.9055                 5.8309
 Frc consts  --      0.1814                 0.3130                 0.6508
 IR Inten    --      4.9128                19.4483                20.2379

                     13                     14                     15
                      A                      A                      A
 Frequencies --    457.3253               548.7534               648.2321
 Red. masses --      3.2834                 4.5523                 2.6625
 Frc consts  --      0.4046                 0.8077                 0.6592
 IR Inten    --    110.0785                44.8078                47.8334

                     16                     17                     18
                      A                      A                      A
 Frequencies --    693.4670               753.8072              1010.1743
 Red. masses --      1.5250                 1.3327                 1.4056
 Frc consts  --      0.4321                 0.4462                 0.8451
 IR Inten    --     57.2834               151.1099                46.1516

                     19                     20                     21
                      A                      A                      A
 Frequencies --   1019.3578              1037.0036              1047.7962
 Red. masses --      1.2636                 1.6598                 1.3546
 Frc consts  --      0.7736                 1.0516                 0.8762
 IR Inten    --     82.6201               104.8600               128.1063

                     22                     23                     24
                      A                      A                      A
 Frequencies --   1050.1749              1081.6679              1125.6958
 Red. masses --      1.6667                 2.2164                 3.1657
 Frc consts  --      1.0830                 1.5279                 2.3635
 IR Inten    --     21.6463                52.4160                56.5317

                     25                     26                     27
                      A                      A                      A
 Frequencies --   1229.1856              1234.1245              1276.6074
 Red. masses --      1.7260                 1.4402                 2.2097
 Frc consts  --      1.5365                 1.2924                 2.1217
 IR Inten    --    295.9252                32.4485               251.8398

                     28                     29                     30
                      A                      A                      A
 Frequencies --   1346.5093              1396.3964              1421.3345
 Red. masses --      1.3031                 1.4532                 1.2985
 Frc consts  --      1.3920                 1.6695                 1.5456
 IR Inten    --      9.2642               441.8352                80.3172

                     31                     32                     33
                      A                      A                      A
 Frequencies --   1454.1635              1475.1895              1483.4311
 Red. masses --      1.1744                 1.0519                 1.0678
 Frc consts  --      1.4631                 1.3487                 1.3844
 IR Inten    --      1.7344                 2.4552                11.1664

                     34                     35                     36
                      A                      A                      A
 Frequencies --   1494.4526              1505.5829              1520.7667
 Red. masses --      1.0463                 1.0519                 2.8735
 Frc consts  --      1.3768                 1.4048                 3.9155
 IR Inten    --     13.4866                24.2045               328.9739

                     37                     38                     39
                      A                      A                      A
 Frequencies --   1639.5759              1664.3030              2932.4165
 Red. masses --      1.0985                 5.2793                 1.0808
 Frc consts  --      1.7399                 8.6157                 5.4760
 IR Inten    --    136.4483              1174.1437               118.1959

                     40                     41                     42
                      A                      A                      A
 Frequencies --   3069.4106              3071.2587              3147.4750
 Red. masses --      1.0353                 1.0360                 1.1025
 Frc consts  --      5.7470                 5.7576                 6.4349
 IR Inten    --     43.4499                 7.5600                11.2319

                     43                     44                     45
                      A                      A                      A
 Frequencies --   3148.0538              3167.5235              3174.6320
 Red. masses --      1.1024                 1.1035                 1.1056
 Frc consts  --      6.4367                 6.5232                 6.5653
 IR Inten    --     10.0538                13.9560                11.9722

                     46                     47                     48
                      A                      A                      A
 Frequencies --   3180.6141              3517.8037              3599.5412
 Red. masses --      1.0880                 1.0514                 1.0964
 Frc consts  --      6.4850                 7.6657                 8.3695
 IR Inten    --     11.1737                23.8140                44.2014

 - Thermochemistry -
 -------------------
 Temperature   298.150 Kelvin.  Pressure   1.00000 Atm.
 Atom     1 has atomic number  6 and mass  12.00000

 Molecular mass:   135.04509 amu.
 Principal axes and moments of inertia in atomic units:
                           1         2         3
     Eigenvalues --   809.920381771.894451935.16982
           X            0.99917  -0.04074  -0.00128
           Y            0.04067   0.99437   0.09786
           Z           -0.00271  -0.09783   0.99520
 This molecule is an asymmetric top.
 Rotational symmetry number  1.
 Warning -- assumption of classical behavior for rotation
           may cause significant error
 Rotational temperatures (Kelvin)      0.10694     0.04888     0.04476
 Rotational constants (GHZ):           2.22829     1.01854     0.93260
    1 imaginary frequencies ignored.
 Zero-point vibrational energy     390070.8 (Joules/Mol)
                                   93.22917 (Kcal/Mol)
 Warning -- explicit consideration of  13 degrees of freedom as
           vibrations may cause significant error
 Vibrational temperatures:    104.64   131.15   231.60   263.69   294.79
          (Kelvin)            313.11   375.70   400.01   456.27   530.62
                              626.21   657.99   789.53   932.66   997.74
                             1084.56  1453.42  1466.63  1492.02  1507.54
                             1510.97  1556.28  1619.63  1768.52  1775.63
                             1836.75  1937.33  2009.10  2044.98  2092.22
                             2122.47  2134.33  2150.18  2166.20  2188.04
                             2358.98  2394.56  4219.09  4416.20  4418.86
                             4528.51  4529.35  4557.36  4567.59  4576.19
                             5061.33  5178.94

 Zero-point correction=                           0.148570 (Hartree/Particle)
 Thermal correction to Energy=                    0.158282
 Thermal correction to Enthalpy=                  0.159227
 Thermal correction to Gibbs Free Energy=         0.113555
 Sum of electronic and zero-point Energies=           -786.565514
 Sum of electronic and thermal Energies=              -786.555802
 Sum of electronic and thermal Enthalpies=            -786.554858
 Sum of electronic and thermal Free Energies=         -786.600530

                     E (Thermal)             CV                S
                      KCal/Mol        Cal/Mol-Kelvin    Cal/Mol-Kelvin
 Total                   99.324             33.991             96.124
 Electronic               0.000              0.000              0.000
 Translational            0.889              2.981             40.614
 Rotational               0.889              2.981             29.408
 Vibrational             97.546             28.030             26.102
 Vibration     1          0.599              1.967              4.078
 Vibration     2          0.602              1.955              3.635
 Vibration     3          0.622              1.890              2.538
 Vibration     4          0.631              1.863              2.295
 Vibration     5          0.640              1.833              2.089
 Vibration     6          0.646              1.814              1.979
 Vibration     7          0.669              1.744              1.654
 Vibration     8          0.679              1.714              1.546
 Vibration     9          0.704              1.641              1.325
 Vibration    10          0.741              1.536              1.085
 Vibration    11          0.796              1.393              0.842
 Vibration    12          0.815              1.345              0.774
 Vibration    13          0.904              1.142              0.547

 Optimization completed.
    -- Stationary point found.
 Normal termination of Gaussian 16 at Mon Feb 15 19:36:30 2021.
