 Gaussian 16, Revision A.03,
 Gaussian 16:  ES64L-G16RevA.03 25-Dec-2016

 ----------------------------------------------------------------------
 # wB97XD def2tzvp, opt=(ts, noeigen, calcfc, maxcycles=70, maxstep=8),
  freq=noraman, scrf=(iefpcm, solvent=water)
 ----------------------------------------------------------------------

 ------------------------
 1_iteration/TS-563-1.out
 ------------------------
 Symbolic Z-matrix:
 Charge =  0 Multiplicity = 1

 SCF Done:  E(RwB97XD) =  -1073.15399413     A.U. after   14 cycles
 SCF Done:  E(RwB97XD) =  -1073.15472126     A.U. after   12 cycles
 SCF Done:  E(RwB97XD) =  -1073.15482067     A.U. after   12 cycles
 SCF Done:  E(RwB97XD) =  -1073.15482381     A.U. after   11 cycles
 SCF Done:  E(RwB97XD) =  -1073.15482458     A.U. after    9 cycles
 SCF Done:  E(RwB97XD) =  -1073.15482534     A.U. after    9 cycles
 SCF Done:  E(RwB97XD) =  -1073.15482544     A.U. after    8 cycles
 SCF Done:  E(RwB97XD) =  -1073.15482540     A.U. after    8 cycles
 Optimization completed.
    -- Stationary point found.
 Normal termination of Gaussian 16 at Tue Feb 16 18:01:41 2021.

 ---------------------------------------------------------------------
 #N Geom=AllCheck Guess=TCheck SCRF=Check GenChk RwB97XD/def2TZVP Freq
 ---------------------------------------------------------------------

 Structure from the checkpoint file:  "/beegfs/scratch/user/q/tla25/Gau-64912.chk"
 ------------------------
 1_iteration/TS-563-1.out
 ------------------------
 Charge =  0 Multiplicity = 1

                         Standard orientation:
 ---------------------------------------------------------------------
 Center     Atomic      Atomic             Coordinates (Angstroms)
 Number     Number       Type             X           Y           Z
 ---------------------------------------------------------------------
      1          6           0       -0.079033    0.439332   -0.227513
      2          6           0       -0.444086    1.828822   -0.044105
      3          8           0       -1.594083    2.208342    0.236957
      4          6           0       -1.058341   -0.538890   -0.345077
      5          6           0       -3.252799   -1.276472    1.609638
      6          1           0       -3.715122   -1.004132    2.560773
      7          1           0       -3.971594   -1.111396    0.809064
      8          1           0       -2.991065   -2.333032    1.637580
      9          7           0       -2.058768   -0.484034    1.344492
     10          1           0       -2.242620    0.517633    1.309830
     11          1           0       -1.329436   -0.652096    2.026844
     12          6           0       -0.704546   -1.996234   -0.413453
     13          1           0        0.017540   -2.246987    0.362899
     14          1           0       -1.592731   -2.612652   -0.293752
     15          1           0       -0.261889   -2.225354   -1.382983
     16         17           0       -2.474363   -0.213580   -1.415760
     17          6           0        1.344867    0.027174   -0.067776
     18          6           0        2.070745   -0.494245   -1.139475
     19          6           0        3.395202   -0.879954   -0.991362
     20          6           0        4.029269   -0.737091    0.234463
     21          6           0        3.328049   -0.208248    1.309336
     22          6           0        2.000969    0.164799    1.157928
     23          1           0        1.585520   -0.594661   -2.103034
     24          1           0        3.935548   -1.285154   -1.838040
     25          1           0        5.064189   -1.033196    0.351051
     26          1           0        3.813710   -0.092490    2.270439
     27          1           0        1.457164    0.571395    2.003012
     28          7           0        0.544728    2.759106   -0.187535
     29          1           0        1.503927    2.478572   -0.282358
     30          1           0        0.360200    3.688205    0.146609
 ---------------------------------------------------------------------

 SCF Done:  E(RwB97XD) =  -1073.15482540     A.U. after    1 cycles

 The electronic state is 1-A.
 Alpha  occ. eigenvalues -- -101.68598 -19.20049 -14.46919 -14.43616 -10.39583
 Alpha  occ. eigenvalues --  -10.37749 -10.31265 -10.29949 -10.28897 -10.28866
 Alpha  occ. eigenvalues --  -10.28797 -10.28746 -10.28682 -10.28612 -10.26061
 Alpha  occ. eigenvalues --   -9.57201  -7.31814  -7.31005  -7.30957  -1.12424
 Alpha  occ. eigenvalues --   -1.02927  -0.99308  -0.97024  -0.95695  -0.88576
 Alpha  occ. eigenvalues --   -0.84904  -0.84129  -0.80699  -0.78187  -0.70580
 Alpha  occ. eigenvalues --   -0.69863  -0.69549  -0.63777  -0.62636  -0.61479
 Alpha  occ. eigenvalues --   -0.59768  -0.57104  -0.56242  -0.55575  -0.54225
 Alpha  occ. eigenvalues --   -0.53742  -0.52147  -0.51178  -0.50649  -0.49695
 Alpha  occ. eigenvalues --   -0.48653  -0.47627  -0.46945  -0.46824  -0.46291
 Alpha  occ. eigenvalues --   -0.43502  -0.42553  -0.42351  -0.39169  -0.37939
 Alpha  occ. eigenvalues --   -0.35466  -0.34559  -0.33501  -0.32510  -0.26906
 Alpha virt. eigenvalues --    0.03851   0.05258   0.06013   0.09350   0.10448
 Alpha virt. eigenvalues --    0.13041   0.13336   0.13969   0.15238   0.15561
 Alpha virt. eigenvalues --    0.16613   0.17455   0.18295   0.18504   0.19280

 Mulliken charges:
               1
     1  C   -0.194866
     2  C    0.318099
     3  O   -0.556700
     4  C    0.154170
     5  C   -0.281693
     6  H    0.148397
     7  H    0.142771
     8  H    0.149477
     9  N   -0.338080
    10  H    0.272452
    11  H    0.270989
    12  C   -0.395107
    13  H    0.153613
    14  H    0.153315
    15  H    0.156033
    16  Cl  -0.157076
    17  C    0.091618
    18  C   -0.224380
    19  C   -0.152997
    20  C   -0.137757
    21  C   -0.136878
    22  C   -0.221613
    23  H    0.151453
    24  H    0.139630
    25  H    0.143459
    26  H    0.140665
    27  H    0.140358
    28  N   -0.469104
    29  H    0.276507
    30  H    0.263244
 Sum of Mulliken charges =  -0.00000

 Dipole moment (field-independent basis, Debye):
    X=              2.4598    Y=             -4.2585    Z=              4.5253  Tot=              6.6831
 Quadrupole moment (field-independent basis, Debye-Ang):
   XX=            -91.3163   YY=            -95.8004   ZZ=            -89.6241
   XY=             12.3660   XZ=             -8.5742   YZ=              0.5634

  Exact polarizability: 278.135   2.400 202.554  -4.633   5.582 212.815
 Approx polarizability: 211.873  -3.822 164.905  -1.407   6.139 182.921

 ******    1 imaginary frequencies (negative Signs) ******

                      1                      2                      3
                      A                      A                      A
 Frequencies --   -376.5570                37.6649                49.4638
 Red. masses --      6.0986                 4.0134                 4.1376
 Frc consts  --      0.5095                 0.0034                 0.0060
 IR Inten    --    823.0080                 2.6736                 3.6779

                      4                      5                      6
                      A                      A                      A
 Frequencies --     74.3933                85.8231                95.3162
 Red. masses --      3.3728                 3.3132                 4.3571
 Frc consts  --      0.0110                 0.0144                 0.0233
 IR Inten    --      4.2092                 8.1357                 8.3201

                      7                      8                      9
                      A                      A                      A
 Frequencies --    126.3397               167.3179               180.6584
 Red. masses --      2.2575                 5.5566                 2.3215
 Frc consts  --      0.0212                 0.0917                 0.0446
 IR Inten    --     32.1488                 1.0453                 1.1715

                     10                     11                     12
                      A                      A                      A
 Frequencies --    202.2081               237.4496               268.1130
 Red. masses --      2.2086                 2.8457                 3.8536
 Frc consts  --      0.0532                 0.0945                 0.1632
 IR Inten    --      7.3521                38.0638                 9.7153

                     13                     14                     15
                      A                      A                      A
 Frequencies --    272.0552               276.7026               298.0454
 Red. masses --      1.2663                 1.3619                 3.2332
 Frc consts  --      0.0552                 0.0614                 0.1692
 IR Inten    --    324.5061                40.8880                 2.5219

                     16                     17                     18
                      A                      A                      A
 Frequencies --    311.2816               350.1317               380.4548
 Red. masses --      2.8935                 3.0753                 3.6886
 Frc consts  --      0.1652                 0.2221                 0.3146
 IR Inten    --      8.6149                15.8159                 7.9798

                     19                     20                     21
                      A                      A                      A
 Frequencies --    400.1969               424.4942               471.1542
 Red. masses --      5.9403                 2.8637                 2.3833
 Frc consts  --      0.5605                 0.3040                 0.3117
 IR Inten    --     25.1021                 0.3297                 6.7411

                     22                     23                     24
                      A                      A                      A
 Frequencies --    508.2689               531.3463               556.8237
 Red. masses --      2.2707                 3.5887                 2.0850
 Frc consts  --      0.3456                 0.5970                 0.3809
 IR Inten    --     36.3474                48.7393                46.7679

                     25                     26                     27
                      A                      A                      A
 Frequencies --    633.5038               641.8296               658.5732
 Red. masses --      3.9279                 3.2509                 5.9615
 Frc consts  --      0.9288                 0.7890                 1.5234
 IR Inten    --     54.3221                44.2629                32.8590

                     28                     29                     30
                      A                      A                      A
 Frequencies --    694.8941               728.5621               765.8980
 Red. masses --      1.4709                 1.5572                 3.0792
 Frc consts  --      0.4185                 0.4870                 1.0642
 IR Inten    --     29.3411                82.8873                75.5399

                     31                     32                     33
                      A                      A                      A
 Frequencies --    798.0526               808.7907               880.0419
 Red. masses --      8.1830                 2.5221                 1.2466
 Frc consts  --      3.0706                 0.9720                 0.5689
 IR Inten    --     91.5394                57.2481                 0.9962

                     34                     35                     36
                      A                      A                      A
 Frequencies --    957.2497              1002.7931              1014.5719
 Red. masses --      1.4531                 2.7294                 1.3655
 Frc consts  --      0.7845                 1.6171                 0.8281
 IR Inten    --      3.7131                10.6477                 5.2744

                     37                     38                     39
                      A                      A                      A
 Frequencies --   1017.6128              1026.3096              1028.4352
 Red. masses --      1.1181                 5.5436                 1.3545
 Frc consts  --      0.6821                 3.4403                 0.8441
 IR Inten    --     67.9980                11.4193                14.4139

                     40                     41                     42
                      A                      A                      A
 Frequencies --   1033.7279              1046.2240              1064.0596
 Red. masses --      1.7645                 1.4282                 1.9654
 Frc consts  --      1.1109                 0.9210                 1.3111
 IR Inten    --    156.3829                14.4510                 5.4774

                     43                     44                     45
                      A                      A                      A
 Frequencies --   1074.8818              1085.0855              1104.9198
 Red. masses --      2.0447                 2.6545                 1.8691
 Frc consts  --      1.3919                 1.8414                 1.3444
 IR Inten    --     48.9523                97.3285                21.6200

                     46                     47                     48
                      A                      A                      A
 Frequencies --   1109.4355              1132.4130              1181.6414
 Red. masses --      1.6916                 2.2606                 1.1328
 Frc consts  --      1.2267                 1.7080                 0.9319
 IR Inten    --     45.3592               117.6657                 0.1228

                     49                     50                     51
                      A                      A                      A
 Frequencies --   1204.5404              1206.2603              1295.5791
 Red. masses --      1.3536                 1.1469                 4.2082
 Frc consts  --      1.1571                 0.9832                 4.1618
 IR Inten    --     33.8749                 5.7897                 6.8212

                     52                     53                     54
                      A                      A                      A
 Frequencies --   1307.7682              1342.1652              1355.5890
 Red. masses --      4.4815                 1.3298                 1.4818
 Frc consts  --      4.5158                 1.4114                 1.6044
 IR Inten    --     19.5112                 9.7535                17.4839

                     55                     56                     57
                      A                      A                      A
 Frequencies --   1384.1818              1413.9507              1446.6074
 Red. masses --      4.3086                 1.3343                 1.8746
 Frc consts  --      4.8637                 1.5717                 2.3114
 IR Inten    --    638.8348                28.1442               378.2762

                     58                     59                     60
                      A                      A                      A
 Frequencies --   1465.0128              1476.2618              1485.1950
 Red. masses --      1.4350                 1.0718                 1.7626
 Frc consts  --      1.8146                 1.3762                 2.2907
 IR Inten    --    200.7597                11.7313                 2.8559

                     61                     62                     63
                      A                      A                      A
 Frequencies --   1490.9499              1494.5422              1507.4893
 Red. masses --      1.2718                 1.1724                 1.0527
 Frc consts  --      1.6657                 1.5430                 1.4094
 IR Inten    --     66.2615                76.4635                16.4876

                     64                     65                     66
                      A                      A                      A
 Frequencies --   1541.3626              1610.3254              1641.0105
 Red. masses --      2.4103                 1.4277                 4.9189
 Frc consts  --      3.3739                 2.1813                 7.8045
 IR Inten    --     54.0329               278.8747               129.5348

                     67                     68                     69
                      A                      A                      A
 Frequencies --   1648.8143              1655.2897              1670.4338
 Red. masses --      3.1845                 1.2435                 5.8920
 Frc consts  --      5.1007                 2.0074                 9.6866
 IR Inten    --    596.6209                87.8782                 0.6227

                     70                     71                     72
                      A                      A                      A
 Frequencies --   3058.2060              3074.2510              3134.5203
 Red. masses --      1.0378                 1.0360                 1.0993
 Frc consts  --      5.7188                 5.7687                 6.3637
 IR Inten    --     69.5490                 9.6591                19.3958

                     73                     74                     75
                      A                      A                      A
 Frequencies --   3151.0200              3165.2046              3167.5068
 Red. masses --      1.1021                 1.1048                 1.1035
 Frc consts  --      6.4474                 6.5213                 6.5231
 IR Inten    --      9.6778                20.8132                15.3519

                     76                     77                     78
                      A                      A                      A
 Frequencies --   3186.2295              3190.4074              3200.3537
 Red. masses --      1.0871                 1.0876                 1.0911
 Frc consts  --      6.5024                 6.5223                 6.5844
 IR Inten    --      9.5779                 2.9570                10.0068

                     79                     80                     81
                      A                      A                      A
 Frequencies --   3207.4929              3219.4363              3448.4370
 Red. masses --      1.0950                 1.0988                 1.0614
 Frc consts  --      6.6372                 6.7098                 7.4368
 IR Inten    --     45.9855                21.5070                99.8509

                     82                     83                     84
                      A                      A                      A
 Frequencies --   3586.0168              3622.9168              3747.1857
 Red. masses --      1.0880                 1.0456                 1.1042
 Frc consts  --      8.2435                 8.0861                 9.1349
 IR Inten    --     51.9334                76.2585                82.4392

 - Thermochemistry -
 -------------------
 Temperature   298.150 Kelvin.  Pressure   1.00000 Atm.
 Atom     1 has atomic number  6 and mass  12.00000

 Molecular mass:   226.08729 amu.
 Principal axes and moments of inertia in atomic units:
                           1         2         3
     Eigenvalues --  2149.101564991.153525489.46547
           X            0.99956   0.01603  -0.02486
           Y           -0.01635   0.99978  -0.01277
           Z            0.02465   0.01317   0.99961
 This molecule is an asymmetric top.
 Rotational symmetry number  1.
 Warning -- assumption of classical behavior for rotation
           may cause significant error
 Rotational temperatures (Kelvin)      0.04030     0.01735     0.01578
 Rotational constants (GHZ):           0.83977     0.36159     0.32876
    1 imaginary frequencies ignored.
 Zero-point vibrational energy     649558.6 (Joules/Mol)
                                  155.24824 (Kcal/Mol)
 Warning -- explicit consideration of  23 degrees of freedom as
           vibrations may cause significant error
 Vibrational temperatures:     54.19    71.17   107.04   123.48   137.14
          (Kelvin)            181.77   240.73   259.93   290.93   341.64
                              385.75   391.43   398.11   428.82   447.86
                              503.76   547.39   575.79   610.75   677.89
                              731.29   764.49   801.15   911.47   923.45
                              947.54   999.80  1048.24  1101.96  1148.22
                             1163.67  1266.18  1377.27  1442.80  1459.74
                             1464.12  1476.63  1479.69  1487.30  1505.28
                             1530.94  1546.52  1561.20  1589.73  1596.23
                             1629.29  1700.12  1733.07  1735.54  1864.05
                             1881.59  1931.08  1950.39  1991.53  2034.36
                             2081.35  2107.83  2124.01  2136.86  2145.14
                             2150.31  2168.94  2217.68  2316.90  2361.05
                             2372.28  2381.59  2403.38  4400.08  4423.16
                             4509.88  4533.62  4554.02  4557.34  4584.27
                             4590.28  4604.60  4614.87  4632.05  4961.53
                             5159.48  5212.57  5391.36

 Zero-point correction=                           0.247404 (Hartree/Particle)
 Thermal correction to Energy=                    0.263033
 Thermal correction to Enthalpy=                  0.263977
 Thermal correction to Gibbs Free Energy=         0.204146
 Sum of electronic and zero-point Energies=          -1072.907422
 Sum of electronic and thermal Energies=             -1072.891793
 Sum of electronic and thermal Enthalpies=           -1072.890848
 Sum of electronic and thermal Free Energies=        -1072.950680

                     E (Thermal)             CV                S
                      KCal/Mol        Cal/Mol-Kelvin    Cal/Mol-Kelvin
 Total                  165.056             58.206            125.926
 Electronic               0.000              0.000              0.000
 Translational            0.889              2.981             42.150
 Rotational               0.889              2.981             32.443
 Vibrational            163.278             52.245             51.333
 Vibration     1          0.594              1.982              5.378
 Vibration     2          0.595              1.978              4.839
 Vibration     3          0.599              1.966              4.034
 Vibration     4          0.601              1.959              3.753
 Vibration     5          0.603              1.953              3.548
 Vibration     6          0.611              1.927              3.001
 Vibration     7          0.624              1.883              2.465
 Vibration     8          0.630              1.866              2.322
 Vibration     9          0.639              1.837              2.113
 Vibration    10          0.656              1.783              1.822
 Vibration    11          0.673              1.732              1.608
 Vibration    12          0.675              1.725              1.583
 Vibration    13          0.678              1.717              1.554
 Vibration    14          0.691              1.677              1.428
 Vibration    15          0.700              1.652              1.356
 Vibration    16          0.727              1.575              1.166
 Vibration    17          0.750              1.512              1.037
 Vibration    18          0.766              1.470              0.962
 Vibration    19          0.786              1.417              0.877
 Vibration    20          0.828              1.314              0.734
 Vibration    21          0.863              1.232              0.638
 Vibration    22          0.886              1.181              0.584
 Vibration    23          0.912              1.125              0.530

 Optimization completed.
    -- Stationary point found.
 Normal termination of Gaussian 16 at Tue Feb 16 19:03:54 2021.
