 Gaussian 16, Revision A.03,
 Gaussian 16:  ES64L-G16RevA.03 25-Dec-2016

 ----------------------------------------------------------------------
 # wB97XD def2tzvp, opt=(ts, noeigen, calcfc, maxcycles=70, maxstep=8),
  freq=noraman, scrf=(iefpcm, solvent=water)
 ----------------------------------------------------------------------

 ------------------------
 1_iteration/TS-566-1.out
 ------------------------
 Symbolic Z-matrix:
 Charge =  0 Multiplicity = 1

 SCF Done:  E(RwB97XD) =  -1151.76730974     A.U. after   15 cycles
 SCF Done:  E(RwB97XD) =  -1151.76730974     A.U. after    6 cycles
 Optimization completed.
    -- Stationary point found.
 Normal termination of Gaussian 16 at Mon Mar 29 04:40:17 2021.

 ---------------------------------------------------------------------
 #N Geom=AllCheck Guess=TCheck SCRF=Check GenChk RwB97XD/def2TZVP Freq
 ---------------------------------------------------------------------

 Structure from the checkpoint file:  "/beegfs/scratch/user/q/tla25/Gau-3377.chk"
 ------------------------
 1_iteration/TS-566-1.out
 ------------------------
 Charge =  0 Multiplicity = 1

                         Standard orientation:
 ---------------------------------------------------------------------
 Center     Atomic      Atomic             Coordinates (Angstroms)
 Number     Number       Type             X           Y           Z
 ---------------------------------------------------------------------
      1          6           0       -0.289578   -0.003400   -0.234178
      2          6           0       -0.660255    1.345923    0.210001
      3          8           0       -1.661217    1.557258    0.922933
      4          6           0       -1.302718   -0.936550   -0.428722
      5          6           0       -1.397566   -1.758322    2.268335
      6          1           0       -1.787972   -1.575529    3.270440
      7          1           0       -1.320357   -2.832150    2.107905
      8          1           0       -0.403446   -1.315796    2.193772
      9          7           0       -2.239036   -1.161710    1.243687
     10          1           0       -3.129530   -1.631313    1.136962
     11          1           0       -2.373898   -0.160378    1.401378
     12          6           0       -1.035617   -2.369801   -0.791365
     13          1           0       -0.228336   -2.773274   -0.181986
     14          1           0       -1.930663   -2.970998   -0.643853
     15          1           0       -0.748742   -2.446414   -1.839290
     16         17           0       -2.774125   -0.360168   -1.329873
     17          6           0        1.131394   -0.416739   -0.116418
     18          6           0        1.794240   -1.136103   -1.114598
     19          6           0        3.126682   -1.497991   -0.984077
     20          6           0        3.848372   -1.126200    0.140840
     21          6           0        3.216926   -0.389815    1.134016
     22          6           0        1.880009   -0.048937    1.007556
     23          1           0        1.263991   -1.397211   -2.021232
     24          1           0        3.607779   -2.058712   -1.776373
     25          1           0        4.891159   -1.400019    0.239382
     26          1           0        3.765505   -0.087487    2.017861
     27          1           0        1.400390    0.516787    1.798316
     28          7           0        0.142767    2.387348   -0.134587
     29          6           0        1.095012    2.355270   -1.223001
     30          6           0       -0.025242    3.671301    0.509417
     31          1           0        0.896403    1.509206   -1.874506
     32          1           0        0.994048    3.272214   -1.807787
     33          1           0        2.124970    2.286327   -0.860287
     34          1           0        0.955668    4.125028    0.663961
     35          1           0       -0.627185    4.352653   -0.100416
     36          1           0       -0.516002    3.540571    1.469598
 ---------------------------------------------------------------------

 SCF Done:  E(RwB97XD) =  -1151.76730974     A.U. after    1 cycles

 The electronic state is 1-A.
 Alpha  occ. eigenvalues -- -101.68454 -19.20376 -14.46722 -14.45501 -10.39347
 Alpha  occ. eigenvalues --  -10.37584 -10.31141 -10.30503 -10.30282 -10.29846
 Alpha  occ. eigenvalues --  -10.28664 -10.28558 -10.28552 -10.28285 -10.28159
 Alpha  occ. eigenvalues --  -10.28131 -10.25938  -9.57064  -7.31666  -7.30863
 Alpha  occ. eigenvalues --   -7.30835  -1.12970  -1.03288  -1.02589  -0.96770
 Alpha  occ. eigenvalues --   -0.95381  -0.88492  -0.84725  -0.83912  -0.82015
 Alpha  occ. eigenvalues --   -0.80628  -0.78295  -0.77408  -0.69987  -0.69647
 Alpha  occ. eigenvalues --   -0.66316  -0.62783  -0.62000  -0.60606  -0.57924
 Alpha  occ. eigenvalues --   -0.57268  -0.56214  -0.55953  -0.54750  -0.54143
 Alpha  occ. eigenvalues --   -0.53260  -0.51564  -0.51442  -0.50354  -0.49424
 Alpha  occ. eigenvalues --   -0.48488  -0.48300  -0.47665  -0.47208  -0.46489
 Alpha  occ. eigenvalues --   -0.46356  -0.45198  -0.44926  -0.43620  -0.42478
 Alpha  occ. eigenvalues --   -0.41892  -0.38992  -0.37619  -0.35376  -0.33344
 Alpha  occ. eigenvalues --   -0.32897  -0.31674  -0.25858
 Alpha virt. eigenvalues --    0.04314   0.05570   0.06568   0.09063   0.10657
 Alpha virt. eigenvalues --    0.12276   0.13139   0.14209   0.14278   0.15685
 Alpha virt. eigenvalues --    0.15879   0.16886   0.17623   0.18195   0.18234

 Mulliken charges:
               1
     1  C   -0.315137
     2  C    0.307153
     3  O   -0.575783
     4  C    0.214522
     5  C   -0.302987
     6  H    0.151776
     7  H    0.155725
     8  H    0.142453
     9  N   -0.311416
    10  H    0.272278
    11  H    0.270650
    12  C   -0.425438
    13  H    0.162638
    14  H    0.154705
    15  H    0.156830
    16  Cl  -0.170690
    17  C    0.159183
    18  C   -0.227271
    19  C   -0.164672
    20  C   -0.136500
    21  C   -0.185136
    22  C   -0.218629
    23  H    0.147109
    24  H    0.136520
    25  H    0.139430
    26  H    0.136382
    27  H    0.154977
    28  N   -0.083332
    29  C   -0.300762
    30  C   -0.295185
    31  H    0.157053
    32  H    0.146775
    33  H    0.134663
    34  H    0.137198
    35  H    0.134588
    36  H    0.140332
 Sum of Mulliken charges =  -0.00000

 Dipole moment (field-independent basis, Debye):
    X=              1.4159    Y=             -3.2661    Z=              1.7491  Tot=              3.9663
 Quadrupole moment (field-independent basis, Debye-Ang):
   XX=           -109.0065   YY=            -98.6087   ZZ=           -104.2436
   XY=             12.5042   XZ=             -6.0225   YZ=             -4.2343

  Exact polarizability: 313.150   2.890 249.485  -3.624   8.861 240.178
 Approx polarizability: 240.981  -1.018 197.110  -2.436   9.976 205.139

 ******    1 imaginary frequencies (negative Signs) ******

                      1                      2                      3
                      A                      A                      A
 Frequencies --   -412.0744                45.0792                64.0543
 Red. masses --      5.5988                 4.3466                 4.5803
 Frc consts  --      0.5601                 0.0052                 0.0111
 IR Inten    --    819.7442                 3.9649                 4.6703

                      4                      5                      6
                      A                      A                      A
 Frequencies --     71.4950                75.7359                94.5571
 Red. masses --      3.5564                 3.4291                 3.0837
 Frc consts  --      0.0107                 0.0116                 0.0162
 IR Inten    --      0.8647                 4.8623                 1.4509

                      7                      8                      9
                      A                      A                      A
 Frequencies --    112.2690               114.0756               159.0019
 Red. masses --      2.2097                 1.4926                 3.9450
 Frc consts  --      0.0164                 0.0114                 0.0588
 IR Inten    --      0.2941                 0.5921                19.3080

                     10                     11                     12
                      A                      A                      A
 Frequencies --    167.9540               173.0237               200.1317
 Red. masses --      3.5016                 1.8285                 1.4305
 Frc consts  --      0.0582                 0.0323                 0.0338
 IR Inten    --      3.5826                 3.1133                 2.0817

                     13                     14                     15
                      A                      A                      A
 Frequencies --    215.3961               239.3479               249.2172
 Red. masses --      1.7104                 2.2130                 4.0440
 Frc consts  --      0.0468                 0.0747                 0.1480
 IR Inten    --      2.7279                13.8480                15.5963

                     16                     17                     18
                      A                      A                      A
 Frequencies --    268.3402               276.5912               294.9934
 Red. masses --      1.9514                 3.2851                 1.7012
 Frc consts  --      0.0828                 0.1481                 0.0872
 IR Inten    --     13.2945                 4.7745                 3.7718

                     19                     20                     21
                      A                      A                      A
 Frequencies --    315.4692               328.0035               356.2134
 Red. masses --      2.6630                 2.7279                 4.3819
 Frc consts  --      0.1561                 0.1729                 0.3276
 IR Inten    --     35.4629                22.0398                 9.7772

                     22                     23                     24
                      A                      A                      A
 Frequencies --    370.8792               415.8372               429.9467
 Red. masses --      3.2067                 3.1527                 2.9355
 Frc consts  --      0.2599                 0.3212                 0.3197
 IR Inten    --     18.1345                20.0770                 2.5813

                     25                     26                     27
                      A                      A                      A
 Frequencies --    437.5873               496.2669               535.8462
 Red. masses --      4.3199                 3.8464                 4.0675
 Frc consts  --      0.4874                 0.5581                 0.6881
 IR Inten    --      6.1196                15.0392                64.0462

                     28                     29                     30
                      A                      A                      A
 Frequencies --    541.3056               631.4407               645.7822
 Red. masses --      4.6655                 4.7230                 4.2113
 Frc consts  --      0.8054                 1.1095                 1.0348
 IR Inten    --     50.6489                28.5911                19.1377

                     31                     32                     33
                      A                      A                      A
 Frequencies --    674.6936               723.8587               730.9039
 Red. masses --      3.6414                 2.8028                 1.5820
 Frc consts  --      0.9766                 0.8653                 0.4980
 IR Inten    --     62.6406                47.9222                73.5848

                     34                     35                     36
                      A                      A                      A
 Frequencies --    756.5805               791.6461               811.6736
 Red. masses --      2.0427                 4.9429                 2.7139
 Frc consts  --      0.6889                 1.8251                 1.0534
 IR Inten    --    205.4190                37.5666                62.0746

                     37                     38                     39
                      A                      A                      A
 Frequencies --    878.3744               907.3524               952.1028
 Red. masses --      1.2504                 4.6422                 1.4614
 Frc consts  --      0.5684                 2.2518                 0.7805
 IR Inten    --      1.3834                27.3062                 1.8588

                     40                     41                     42
                      A                      A                      A
 Frequencies --    993.3074              1012.0753              1016.1098
 Red. masses --      1.0933                 1.5003                 2.4470
 Frc consts  --      0.6356                 0.9054                 1.4886
 IR Inten    --     53.9793                 3.4910                12.0318

                     43                     44                     45
                      A                      A                      A
 Frequencies --   1023.0312              1026.2465              1049.6283
 Red. masses --      1.4409                 3.5680                 2.1729
 Frc consts  --      0.8885                 2.2140                 1.4104
 IR Inten    --      0.4563                 1.5453                47.3190

                     46                     47                     48
                      A                      A                      A
 Frequencies --   1062.9624              1068.3872              1081.0985
 Red. masses --      1.4736                 1.9049                 1.3404
 Frc consts  --      0.9810                 1.2811                 0.9230
 IR Inten    --     39.5121                12.0904               209.9122

                     49                     50                     51
                      A                      A                      A
 Frequencies --   1087.6268              1091.6549              1115.2286
 Red. masses --      1.3852                 3.6916                 1.5787
 Frc consts  --      0.9654                 2.5920                 1.1568
 IR Inten    --     20.8485                 8.3373                25.6775

                     52                     53                     54
                      A                      A                      A
 Frequencies --   1132.0607              1133.7112              1170.3886
 Red. masses --      2.1596                 1.2296                 1.4072
 Frc consts  --      1.6307                 0.9311                 1.1357
 IR Inten    --    118.8998                 0.6192                 3.1859

                     55                     56                     57
                      A                      A                      A
 Frequencies --   1180.5400              1205.8054              1214.0031
 Red. masses --      1.1233                 1.8843                 1.1263
 Frc consts  --      0.9224                 1.6142                 0.9780
 IR Inten    --      1.2577               178.9594                 3.6998

                     58                     59                     60
                      A                      A                      A
 Frequencies --   1218.3575              1292.0034              1312.7852
 Red. masses --      1.8191                 4.3325                 5.1446
 Frc consts  --      1.5910                 4.2611                 5.2239
 IR Inten    --     85.3403                59.8092                17.6151

                     61                     62                     63
                      A                      A                      A
 Frequencies --   1325.7677              1354.4296              1363.1867
 Red. masses --      5.4415                 1.3119                 1.4407
 Frc consts  --      5.6351                 1.4180                 1.5774
 IR Inten    --     89.5378                 9.6047                13.9579

                     64                     65                     66
                      A                      A                      A
 Frequencies --   1412.3076              1429.0397              1443.1002
 Red. masses --      1.4526                 1.8673                 1.2624
 Frc consts  --      1.7071                 2.2467                 1.5490
 IR Inten    --    227.5993               450.0995               101.9372

                     67                     68                     69
                      A                      A                      A
 Frequencies --   1448.2005              1463.5078              1471.6914
 Red. masses --      1.7296                 1.3708                 1.1855
 Frc consts  --      2.1373                 1.7299                 1.5128
 IR Inten    --    132.6787                98.3606                49.8544

                     70                     71                     72
                      A                      A                      A
 Frequencies --   1477.3701              1484.3514              1487.8160
 Red. masses --      1.0793                 1.1156                 1.4789
 Frc consts  --      1.3880                 1.4482                 1.9288
 IR Inten    --     11.3921                 9.8797                 0.7109

                     73                     74                     75
                      A                      A                      A
 Frequencies --   1491.5854              1493.7978              1501.8599
 Red. masses --      1.1441                 1.0920                 1.0587
 Frc consts  --      1.4997                 1.4356                 1.4069
 IR Inten    --     39.3114                21.6919                27.8964

                     76                     77                     78
                      A                      A                      A
 Frequencies --   1502.4442              1510.8804              1536.9007
 Red. masses --      1.3111                 1.0737                 1.6917
 Frc consts  --      1.7437                 1.4441                 2.3543
 IR Inten    --     67.3518                 3.7881               164.9317

                     79                     80                     81
                      A                      A                      A
 Frequencies --   1542.0618              1607.1738              1640.4074
 Red. masses --      2.2350                 3.7034                 5.1447
 Frc consts  --      3.1313                 5.6360                 8.1567
 IR Inten    --    140.7344               955.0101                14.4436

                     82                     83                     84
                      A                      A                      A
 Frequencies --   1653.0131              1669.1675              3031.5324
 Red. masses --      1.2663                 5.8335                 1.0421
 Frc consts  --      2.0386                 9.5759                 5.6426
 IR Inten    --     41.0190                32.5935                73.8319

                     85                     86                     87
                      A                      A                      A
 Frequencies --   3036.7530              3061.2075              3077.3857
 Red. masses --      1.0417                 1.0339                 1.0356
 Frc consts  --      5.6598                 5.7084                 5.7784
 IR Inten    --    127.2059                55.0616                11.4254

                     88                     89                     90
                      A                      A                      A
 Frequencies --   3092.6422              3100.1547              3134.0777
 Red. masses --      1.0996                 1.0997                 1.1034
 Frc consts  --      6.1965                 6.2270                 6.3854
 IR Inten    --     83.8366                14.6835                13.8063

                     91                     92                     93
                      A                      A                      A
 Frequencies --   3155.7571              3158.1870              3164.6638
 Red. masses --      1.1024                 1.1048                 1.1036
 Frc consts  --      6.4686                 6.4922                 6.5119
 IR Inten    --     12.0969                26.0330                16.2196

                     94                     95                     96
                      A                      A                      A
 Frequencies --   3174.7464              3175.3324              3183.0397
 Red. masses --      1.0980                 1.0988                 1.0869
 Frc consts  --      6.5204                 6.5274                 6.4882
 IR Inten    --     10.5629                11.2091                12.3014

                     97                     98                     99
                      A                      A                      A
 Frequencies --   3191.8125              3200.7808              3211.9812
 Red. masses --      1.0872                 1.0925                 1.0935
 Frc consts  --      6.5258                 6.5945                 6.6469
 IR Inten    --      0.4593                28.9514                43.5030

                    100                    101                    102
                      A                      A                      A
 Frequencies --   3219.9556              3377.4413              3587.9403
 Red. masses --      1.0977                 1.0658                 1.0852
 Frc consts  --      6.7058                 7.1633                 8.2307
 IR Inten    --     15.9086               218.6086                93.7488

 - Thermochemistry -
 -------------------
 Temperature   298.150 Kelvin.  Pressure   1.00000 Atm.
 Atom     1 has atomic number  6 and mass  12.00000

 Molecular mass:   254.11859 amu.
 Principal axes and moments of inertia in atomic units:
                           1         2         3
     Eigenvalues --  3495.443044865.242786239.22159
           X            0.99912   0.03267  -0.02632
           Y           -0.03310   0.99932  -0.01622
           Z            0.02577   0.01707   0.99952
 This molecule is an asymmetric top.
 Rotational symmetry number  1.
 Warning -- assumption of classical behavior for rotation
           may cause significant error
 Rotational temperatures (Kelvin)      0.02478     0.01780     0.01388
 Rotational constants (GHZ):           0.51631     0.37095     0.28926
    1 imaginary frequencies ignored.
 Zero-point vibrational energy     799616.8 (Joules/Mol)
                                  191.11301 (Kcal/Mol)
 Warning -- explicit consideration of  27 degrees of freedom as
           vibrations may cause significant error
 Vibrational temperatures:     64.86    92.16   102.87   108.97   136.05
          (Kelvin)            161.53   164.13   228.77   241.65   248.94
                              287.94   309.91   344.37   358.57   386.08
                              397.95   424.43   453.89   471.92   512.51
                              533.61   598.30   618.60   629.59   714.02
                              770.96   778.82   908.50   929.14   970.73
                             1041.47  1051.61  1088.55  1139.00  1167.82
                             1263.78  1305.48  1369.86  1429.15  1456.15
                             1461.96  1471.91  1476.54  1510.18  1529.37
                             1537.17  1555.46  1564.85  1570.65  1604.57
                             1628.78  1631.16  1683.93  1698.53  1734.88
                             1746.68  1752.94  1858.90  1888.81  1907.48
                             1948.72  1961.32  2032.00  2056.07  2076.30
                             2083.64  2105.66  2117.44  2125.61  2135.65
                             2140.64  2146.06  2149.24  2160.84  2161.68
                             2173.82  2211.26  2218.68  2312.36  2360.18
                             2378.32  2401.56  4361.70  4369.21  4404.39
                             4427.67  4449.62  4460.43  4509.24  4540.43
                             4543.93  4553.25  4567.75  4568.60  4579.68
                             4592.31  4605.21  4621.32  4632.80  4859.38
                             5162.25

 Zero-point correction=                           0.304558 (Hartree/Particle)
 Thermal correction to Energy=                    0.322650
 Thermal correction to Enthalpy=                  0.323595
 Thermal correction to Gibbs Free Energy=         0.258875
 Sum of electronic and zero-point Energies=          -1151.462752
 Sum of electronic and thermal Energies=             -1151.444659
 Sum of electronic and thermal Enthalpies=           -1151.443715
 Sum of electronic and thermal Free Energies=        -1151.508435

                     E (Thermal)             CV                S
                      KCal/Mol        Cal/Mol-Kelvin    Cal/Mol-Kelvin
 Total                  202.466             67.228            136.215
 Electronic               0.000              0.000              0.000
 Translational            0.889              2.981             42.498
 Rotational               0.889              2.981             33.028
 Vibrational            200.689             61.267             60.689
 Vibration     1          0.595              1.979              5.022
 Vibration     2          0.597              1.971              4.328
 Vibration     3          0.598              1.968              4.112
 Vibration     4          0.599              1.965              3.998
 Vibration     5          0.603              1.953              3.564
 Vibration     6          0.607              1.939              3.229
 Vibration     7          0.607              1.938              3.198
 Vibration     8          0.621              1.893              2.562
 Vibration     9          0.625              1.882              2.458
 Vibration    10          0.627              1.876              2.402
 Vibration    11          0.638              1.840              2.132
 Vibration    12          0.645              1.818              1.997
 Vibration    13          0.657              1.780              1.808
 Vibration    14          0.662              1.764              1.736
 Vibration    15          0.673              1.731              1.607
 Vibration    16          0.678              1.717              1.555
 Vibration    17          0.689              1.683              1.445
 Vibration    18          0.703              1.644              1.333
 Vibration    19          0.711              1.620              1.270
 Vibration    20          0.732              1.562              1.139
 Vibration    21          0.743              1.532              1.076
 Vibration    22          0.779              1.436              0.906
 Vibration    23          0.791              1.405              0.859
 Vibration    24          0.798              1.388              0.834
 Vibration    25          0.852              1.258              0.668
 Vibration    26          0.891              1.171              0.574
 Vibration    27          0.896              1.159              0.562

 Optimization completed.
    -- Stationary point found.
 Normal termination of Gaussian 16 at Mon Mar 29 06:29:19 2021.
