 Gaussian 16, Revision A.03,
 Gaussian 16:  ES64L-G16RevA.03 25-Dec-2016

 ----------------------------------------------------------------------
 # wB97XD def2tzvp, opt=(ts, noeigen, calcfc, maxcycles=70, maxstep=1),
  freq=noraman, scrf=(iefpcm, solvent=water)
 ----------------------------------------------------------------------

 ------------------------
 0_iteration/TS-585-0.out
 ------------------------
 Symbolic Z-matrix:
 Charge =  0 Multiplicity = 1

 SCF Done:  E(RwB97XD) =  -3360.32854490     A.U. after   15 cycles
 SCF Done:  E(RwB97XD) =  -3360.32850330     A.U. after   10 cycles
 SCF Done:  E(RwB97XD) =  -3360.32846469     A.U. after   10 cycles
 SCF Done:  E(RwB97XD) =  -3360.32842899     A.U. after   10 cycles
 SCF Done:  E(RwB97XD) =  -3360.32839612     A.U. after   10 cycles
 SCF Done:  E(RwB97XD) =  -3360.32836609     A.U. after   10 cycles
 SCF Done:  E(RwB97XD) =  -3360.32833898     A.U. after   10 cycles
 SCF Done:  E(RwB97XD) =  -3360.32831493     A.U. after   10 cycles
 SCF Done:  E(RwB97XD) =  -3360.32829416     A.U. after   10 cycles
 SCF Done:  E(RwB97XD) =  -3360.32827698     A.U. after   10 cycles
 SCF Done:  E(RwB97XD) =  -3360.33088362     A.U. after   10 cycles
 SCF Done:  E(RwB97XD) =  -3360.33094779     A.U. after   10 cycles
 SCF Done:  E(RwB97XD) =  -3360.33100130     A.U. after   10 cycles
 SCF Done:  E(RwB97XD) =  -3360.33104466     A.U. after   10 cycles
 SCF Done:  E(RwB97XD) =  -3360.33107753     A.U. after   10 cycles
 SCF Done:  E(RwB97XD) =  -3360.33109894     A.U. after   10 cycles
 SCF Done:  E(RwB97XD) =  -3360.33110958     A.U. after   10 cycles
 SCF Done:  E(RwB97XD) =  -3360.33111192     A.U. after    9 cycles
 SCF Done:  E(RwB97XD) =  -3360.33111207     A.U. after    7 cycles
 Optimization completed.
    -- Stationary point found.
 Normal termination of Gaussian 16 at Mon Feb 15 20:15:29 2021.

 ---------------------------------------------------------------------
 #N Geom=AllCheck Guess=TCheck SCRF=Check GenChk RwB97XD/def2TZVP Freq
 ---------------------------------------------------------------------

 Structure from the checkpoint file:  "/beegfs/scratch/user/q/tla25/Gau-24409.chk"
 ------------------------
 0_iteration/TS-585-0.out
 ------------------------
 Charge =  0 Multiplicity = 1

                         Standard orientation:
 ---------------------------------------------------------------------
 Center     Atomic      Atomic             Coordinates (Angstroms)
 Number     Number       Type             X           Y           Z
 ---------------------------------------------------------------------
      1          6           0        0.261968    0.373747   -0.329879
      2          6           0        0.314817    1.790541   -0.287187
      3          8           0        1.313449    2.484130   -0.114727
      4          6           0       -0.889149   -0.408637   -0.441581
      5          6           0       -1.455950    0.368768    2.236354
      6          1           0       -0.426619    0.725213    2.237599
      7          1           0       -2.101254    1.150387    1.837820
      8          1           0       -1.755390    0.143966    3.259730
      9          7           0       -1.545655   -0.806380    1.382734
     10          1           0       -0.963363   -1.559548    1.730971
     11          1           0       -2.496025   -1.150525    1.309464
     12          6           0       -0.864983   -1.824626   -0.943129
     13          1           0       -0.116586   -2.412028   -0.416523
     14          1           0       -1.840249   -2.292651   -0.829028
     15          1           0       -0.606664   -1.810902   -2.003161
     16         17           0       -2.333270    0.437690   -1.027081
     17         35           0        1.907001   -0.529651    0.017429
     18          1           0       -0.661503    2.275998   -0.445325
 ---------------------------------------------------------------------

 SCF Done:  E(RwB97XD) =  -3360.33111207     A.U. after    1 cycles

 The electronic state is 1-A.
 Alpha  occ. eigenvalues -- -483.12706-101.71041 -62.67539 -56.46647 -56.46306
 Alpha  occ. eigenvalues --  -56.46297 -19.21799 -14.48788 -10.41832 -10.35670
 Alpha  occ. eigenvalues --  -10.31913 -10.31722 -10.29701  -9.59629  -8.81653
 Alpha  occ. eigenvalues --   -7.34282  -7.33409  -7.33366  -6.63780  -6.62685
 Alpha  occ. eigenvalues --   -6.62657  -2.74175  -2.73855  -2.73833  -2.72947
 Alpha  occ. eigenvalues --   -2.72947  -1.12216  -1.04757  -0.99263  -0.91787
 Alpha  occ. eigenvalues --   -0.85607  -0.81703  -0.78837  -0.71321  -0.63893
 Alpha  occ. eigenvalues --   -0.61858  -0.59096  -0.58049  -0.56405  -0.54265
 Alpha  occ. eigenvalues --   -0.50646  -0.50215  -0.49704  -0.48385  -0.47383
 Alpha  occ. eigenvalues --   -0.45832  -0.44618  -0.41388  -0.40241  -0.38773
 Alpha  occ. eigenvalues --   -0.37001  -0.33237  -0.28893
 Alpha virt. eigenvalues --    0.02645   0.05420   0.10050   0.10545   0.13336
 Alpha virt. eigenvalues --    0.14176   0.15132   0.15851   0.17563   0.18657
 Alpha virt. eigenvalues --    0.19135   0.19975   0.21474   0.21970   0.23199

 Mulliken charges:
               1
     1  C   -0.126171
     2  C    0.065919
     3  O   -0.481435
     4  C    0.126160
     5  C   -0.312973
     6  H    0.166331
     7  H    0.157516
     8  H    0.165914
     9  N   -0.353490
    10  H    0.288058
    11  H    0.294617
    12  C   -0.338463
    13  H    0.153185
    14  H    0.154118
    15  H    0.161944
    16  Cl  -0.083707
    17  Br  -0.134877
    18  H    0.097354
 Sum of Mulliken charges =  -0.00000

 Dipole moment (field-independent basis, Debye):
    X=             -8.1198    Y=             -7.2864    Z=              3.8947  Tot=             11.5842
 Quadrupole moment (field-independent basis, Debye-Ang):
   XX=            -74.8064   YY=            -79.5539   ZZ=            -66.1464
   XY=             -4.0608   XZ=             -6.0611   YZ=             -1.3636

  Exact polarizability: 177.965  12.452 155.603  -0.955  -8.060 126.598
 Approx polarizability: 143.739   8.170 130.915   1.533  -6.570 107.596

 ******    1 imaginary frequencies (negative Signs) ******

                      1                      2                      3
                      A                      A                      A
 Frequencies --   -343.9954                53.5803                73.7711
 Red. masses --      5.4557                 5.6759                 2.3295
 Frc consts  --      0.3804                 0.0096                 0.0075
 IR Inten    --    828.6570                 1.4742                 0.2615

                      4                      5                      6
                      A                      A                      A
 Frequencies --    109.5701               158.8879               188.2963
 Red. masses --      3.2444                 1.6177                 3.8781
 Frc consts  --      0.0229                 0.0241                 0.0810
 IR Inten    --      9.6665                 3.3807                 0.4324

                      7                      8                      9
                      A                      A                      A
 Frequencies --    189.1384               229.2396               245.5539
 Red. masses --     11.1150                 2.6360                 1.4844
 Frc consts  --      0.2343                 0.0816                 0.0527
 IR Inten    --     13.5362                 4.3029                 2.3117

                     10                     11                     12
                      A                      A                      A
 Frequencies --    257.1094               281.3500               331.2051
 Red. masses --      3.3623                 2.4376                 3.1031
 Frc consts  --      0.1310                 0.1137                 0.2006
 IR Inten    --      5.1724                 2.1843                 6.9571

                     13                     14                     15
                      A                      A                      A
 Frequencies --    351.9576               370.5659               528.5573
 Red. masses --      3.0004                 3.4305                 4.4709
 Frc consts  --      0.2190                 0.2776                 0.7359
 IR Inten    --      8.9340                 4.5693                63.6629

                     16                     17                     18
                      A                      A                      A
 Frequencies --    549.4380               599.6790               635.9696
 Red. masses --      5.5724                 5.0186                 1.5964
 Frc consts  --      0.9911                 1.0633                 0.3804
 IR Inten    --     80.3626                50.6943                 8.6152

                     19                     20                     21
                      A                      A                      A
 Frequencies --    757.5919              1006.7909              1011.9383
 Red. masses --      3.1954                 1.1099                 1.1703
 Frc consts  --      1.0805                 0.6629                 0.7061
 IR Inten    --    188.9558                48.4450                91.9383

                     22                     23                     24
                      A                      A                      A
 Frequencies --   1017.6639              1041.7169              1062.2428
 Red. masses --      1.6537                 1.9221                 1.5573
 Frc consts  --      1.0090                 1.2289                 1.0353
 IR Inten    --      3.8592                67.9223                43.9581

                     25                     26                     27
                      A                      A                      A
 Frequencies --   1090.1465              1114.0227              1221.1639
 Red. masses --      3.7734                 2.8748                 1.3988
 Frc consts  --      2.6421                 2.1020                 1.2290
 IR Inten    --     17.9788                66.9498                22.7932

                     28                     29                     30
                      A                      A                      A
 Frequencies --   1239.8617              1350.0023              1362.4777
 Red. masses --      3.5333                 1.3170                 1.6685
 Frc consts  --      3.2002                 1.4142                 1.8248
 IR Inten    --    104.6005                 0.0940               384.6284

                     31                     32                     33
                      A                      A                      A
 Frequencies --   1422.5673              1450.8223              1470.6485
 Red. masses --      1.2419                 1.6023                 1.4283
 Frc consts  --      1.4808                 1.9871                 1.8201
 IR Inten    --      7.9522               318.5980               155.4713

                     34                     35                     36
                      A                      A                      A
 Frequencies --   1475.9565              1493.2655              1494.0356
 Red. masses --      1.0741                 1.0652                 1.2322
 Frc consts  --      1.3786                 1.3995                 1.6206
 IR Inten    --     34.4162                11.3381               179.9334

                     37                     38                     39
                      A                      A                      A
 Frequencies --   1507.7063              1646.0938              1674.9851
 Red. masses --      1.0613                 1.0893                 9.4484
 Frc consts  --      1.4214                 1.7390                15.6182
 IR Inten    --     37.6196                61.7291               932.2890

                     40                     41                     42
                      A                      A                      A
 Frequencies --   2990.8703              3070.7958              3076.5322
 Red. masses --      1.0831                 1.0327                 1.0375
 Frc consts  --      5.7086                 5.7377                 5.7859
 IR Inten    --     68.7651                22.4721                 5.0628

                     43                     44                     45
                      A                      A                      A
 Frequencies --   3150.6884              3155.7269              3162.2871
 Red. masses --      1.1050                 1.1003                 1.1055
 Frc consts  --      6.4627                 6.4560                 6.5134
 IR Inten    --      8.9952                10.8674                10.2591

                     46                     47                     48
                      A                      A                      A
 Frequencies --   3179.8582              3527.0761              3610.9665
 Red. masses --      1.1039                 1.0502                 1.0963
 Frc consts  --      6.5767                 7.6977                 8.4225
 IR Inten    --      8.8259                64.8578                51.2792

 - Thermochemistry -
 -------------------
 Temperature   298.150 Kelvin.  Pressure   1.00000 Atm.
 Atom     1 has atomic number  6 and mass  12.00000

 Molecular mass:   212.95560 amu.
 Principal axes and moments of inertia in atomic units:
                           1         2         3
     Eigenvalues --  1472.858722745.243773025.17469
           X            0.99834   0.04658  -0.03388
           Y           -0.04416   0.99664   0.06901
           Z            0.03698  -0.06740   0.99704
 This molecule is an asymmetric top.
 Rotational symmetry number  1.
 Warning -- assumption of classical behavior for rotation
           may cause significant error
 Rotational temperatures (Kelvin)      0.05881     0.03155     0.02863
 Rotational constants (GHZ):           1.22533     0.65741     0.59657
    1 imaginary frequencies ignored.
 Zero-point vibrational energy     364803.4 (Joules/Mol)
                                   87.19011 (Kcal/Mol)
 Warning -- explicit consideration of  16 degrees of freedom as
           vibrations may cause significant error
 Vibrational temperatures:     77.09   106.14   157.65   228.60   270.92
          (Kelvin)            272.13   329.82   353.30   369.92   404.80
                              476.53   506.39   533.16   760.48   790.52
                              862.80   915.02  1090.01  1448.55  1455.95
                             1464.19  1498.80  1528.33  1568.48  1602.83
                             1756.98  1783.88  1942.35  1960.30  2046.76
                             2087.41  2115.94  2123.57  2148.48  2149.58
                             2169.25  2368.36  2409.93  4303.20  4418.19
                             4426.44  4533.14  4540.39  4549.83  4575.11
                             5074.68  5195.38

 Zero-point correction=                           0.138946 (Hartree/Particle)
 Thermal correction to Energy=                    0.149998
 Thermal correction to Enthalpy=                  0.150942
 Thermal correction to Gibbs Free Energy=         0.100942
 Sum of electronic and zero-point Energies=          -3360.192166
 Sum of electronic and thermal Energies=             -3360.181114
 Sum of electronic and thermal Enthalpies=           -3360.180170
 Sum of electronic and thermal Free Energies=        -3360.230170

                     E (Thermal)             CV                S
                      KCal/Mol        Cal/Mol-Kelvin    Cal/Mol-Kelvin
 Total                   94.125             37.808            105.233
 Electronic               0.000              0.000              0.000
 Translational            0.889              2.981             41.971
 Rotational               0.889              2.981             30.882
 Vibrational             92.347             31.847             32.380
 Vibration     1          0.596              1.976              4.681
 Vibration     2          0.599              1.966              4.050
 Vibration     3          0.606              1.942              3.277
 Vibration     4          0.621              1.893              2.563
 Vibration     5          0.633              1.856              2.245
 Vibration     6          0.633              1.855              2.236
 Vibration     7          0.652              1.796              1.885
 Vibration     8          0.660              1.770              1.762
 Vibration     9          0.667              1.751              1.681
 Vibration    10          0.681              1.708              1.525
 Vibration    11          0.714              1.613              1.254
 Vibration    12          0.729              1.571              1.157
 Vibration    13          0.743              1.533              1.077
 Vibration    14          0.884              1.187              0.590
 Vibration    15          0.905              1.141              0.545
 Vibration    16          0.958              1.032              0.450

 Optimization completed.
    -- Stationary point found.
 Normal termination of Gaussian 16 at Mon Feb 15 20:26:20 2021.
