 Gaussian 16, Revision A.03,
 Gaussian 16:  ES64L-G16RevA.03 25-Dec-2016

 ----------------------------------------------------------------------
 # wB97XD def2tzvp, opt=(ts, noeigen, calcfc, maxcycles=70, maxstep=1),
  freq=noraman, scrf=(iefpcm, solvent=water)
 ----------------------------------------------------------------------

 ------------------------
 0_iteration/TS-517-0.out
 ------------------------
 Symbolic Z-matrix:
 Charge =  0 Multiplicity = 1

 SCF Done:  E(RwB97XD) =  -920.724584535     A.U. after   15 cycles
 SCF Done:  E(RwB97XD) =  -920.724570982     A.U. after   10 cycles
 SCF Done:  E(RwB97XD) =  -920.724562779     A.U. after   10 cycles
 SCF Done:  E(RwB97XD) =  -920.724560458     A.U. after   10 cycles
 SCF Done:  E(RwB97XD) =  -920.724566282     A.U. after   10 cycles
 SCF Done:  E(RwB97XD) =  -920.724587278     A.U. after   10 cycles
 SCF Done:  E(RwB97XD) =  -920.724623831     A.U. after   10 cycles
 SCF Done:  E(RwB97XD) =  -920.724675033     A.U. after    9 cycles
 SCF Done:  E(RwB97XD) =  -920.724736598     A.U. after    9 cycles
 SCF Done:  E(RwB97XD) =  -920.724811264     A.U. after    9 cycles
 SCF Done:  E(RwB97XD) =  -920.728449855     A.U. after   10 cycles
 SCF Done:  E(RwB97XD) =  -920.728540184     A.U. after   10 cycles
 SCF Done:  E(RwB97XD) =  -920.728610299     A.U. after   10 cycles
 SCF Done:  E(RwB97XD) =  -920.728659839     A.U. after   10 cycles
 SCF Done:  E(RwB97XD) =  -920.728690259     A.U. after   10 cycles
 SCF Done:  E(RwB97XD) =  -920.728704414     A.U. after   10 cycles
 SCF Done:  E(RwB97XD) =  -920.728706904     A.U. after    9 cycles
 SCF Done:  E(RwB97XD) =  -920.728706973     A.U. after    8 cycles
 SCF Done:  E(RwB97XD) =  -920.728707017     A.U. after    8 cycles
 Optimization completed.
    -- Stationary point found.
 Normal termination of Gaussian 16 at Tue Feb 16 00:29:54 2021.

 ---------------------------------------------------------------------
 #N Geom=AllCheck Guess=TCheck SCRF=Check GenChk RwB97XD/def2TZVP Freq
 ---------------------------------------------------------------------

 Structure from the checkpoint file:  "/beegfs/scratch/user/q/tla25/Gau-5875.chk"
 ------------------------
 0_iteration/TS-517-0.out
 ------------------------
 Charge =  0 Multiplicity = 1

                         Standard orientation:
 ---------------------------------------------------------------------
 Center     Atomic      Atomic             Coordinates (Angstroms)
 Number     Number       Type             X           Y           Z
 ---------------------------------------------------------------------
      1          6           0       -0.022389    0.438378   -0.394808
      2          6           0       -1.195722   -0.377086   -0.236980
      3          8           0       -1.135642   -1.626692   -0.245715
      4          6           0        1.259662   -0.101805   -0.633081
      5          6           0        1.537351   -0.620903    2.137518
      6          1           0        0.668640    0.038423    2.130411
      7          1           0        1.424344   -1.343754    2.946116
      8          1           0        2.433067   -0.028225    2.312477
      9          7           0        1.625239   -1.272150    0.838109
     10          1           0        2.488979   -1.789012    0.725268
     11          1           0        0.836118   -1.897857    0.689383
     12          6           0        2.448360    0.825349   -0.580886
     13          1           0        2.394578    1.524682   -1.417361
     14          1           0        2.477090    1.408570    0.337144
     15          1           0        3.373320    0.256861   -0.673337
     16          6           0        1.399656   -1.137302   -1.733459
     17          1           0        0.569487   -1.836360   -1.736554
     18          1           0        1.414948   -0.604311   -2.686575
     19          1           0        2.340464   -1.683148   -1.646045
     20         17           0       -0.152435    2.128259    0.144655
     21          7           0       -2.396213    0.228113   -0.038209
     22          6           0       -3.609242   -0.524231    0.163660
     23          1           0       -2.444886    1.229076   -0.069427
     24          1           0       -3.510481   -1.215388    1.002847
     25          1           0       -4.416080    0.172667    0.382100
     26          1           0       -3.882299   -1.105237   -0.720952
 ---------------------------------------------------------------------

 SCF Done:  E(RwB97XD) =  -920.728707017     A.U. after    1 cycles

 The electronic state is 1-A.
 Alpha  occ. eigenvalues -- -101.68174 -19.19468 -14.47271 -14.43880 -10.37107
 Alpha  occ. eigenvalues --  -10.34975 -10.31224 -10.30425 -10.29254 -10.27884
 Alpha  occ. eigenvalues --  -10.27262  -9.56707  -7.31303  -7.30529  -7.30487
 Alpha  occ. eigenvalues --   -1.11969  -1.03149  -1.00717  -0.95402  -0.89460
 Alpha  occ. eigenvalues --   -0.81385  -0.79751  -0.77786  -0.76323  -0.67677
 Alpha  occ. eigenvalues --   -0.64281  -0.62371  -0.58338  -0.56634  -0.55371
 Alpha  occ. eigenvalues --   -0.54904  -0.53604  -0.52408  -0.50928  -0.49517
 Alpha  occ. eigenvalues --   -0.47584  -0.47430  -0.47191  -0.46454  -0.46147
 Alpha  occ. eigenvalues --   -0.45045  -0.43621  -0.41297  -0.40037  -0.39198
 Alpha  occ. eigenvalues --   -0.33330  -0.32867  -0.25635
 Alpha virt. eigenvalues --    0.06658   0.10242   0.12014   0.12926   0.14252
 Alpha virt. eigenvalues --    0.14518   0.15496   0.16173   0.17067   0.17965
 Alpha virt. eigenvalues --    0.18277   0.19238   0.19895   0.21127   0.21377

 Mulliken charges:
               1
     1  C   -0.303592
     2  C    0.400119
     3  O   -0.604657
     4  C    0.188668
     5  C   -0.302449
     6  H    0.150907
     7  H    0.151149
     8  H    0.155475
     9  N   -0.324374
    10  H    0.277583
    11  H    0.273776
    12  C   -0.381714
    13  H    0.151118
    14  H    0.143499
    15  H    0.139247
    16  C   -0.365618
    17  H    0.152618
    18  H    0.134546
    19  H    0.126793
    20  Cl  -0.211679
    21  N   -0.333930
    22  C   -0.242832
    23  H    0.243965
    24  H    0.122632
    25  H    0.137705
    26  H    0.121046
 Sum of Mulliken charges =  -0.00000

 Dipole moment (field-independent basis, Debye):
    X=              4.4970    Y=             -1.0325    Z=              2.3552  Tot=              5.1804
 Quadrupole moment (field-independent basis, Debye-Ang):
   XX=            -58.3881   YY=            -80.5503   ZZ=            -72.1236
   XY=            -10.5168   XZ=              1.3753   YZ=             -3.4745

  Exact polarizability: 191.618  -7.657 163.984   1.557  -1.679 140.141
 Approx polarizability: 143.290  -6.540 140.827   0.799  -0.951 116.898

 ******    1 imaginary frequencies (negative Signs) ******

                      1                      2                      3
                      A                      A                      A
 Frequencies --   -389.7099                41.1990                71.5607
 Red. masses --      5.2712                 2.5152                 2.6284
 Frc consts  --      0.4717                 0.0025                 0.0079
 IR Inten    --    703.3683                21.8577                 2.4544

                      4                      5                      6
                      A                      A                      A
 Frequencies --     88.7967                99.9952               131.8813
 Red. masses --      4.0674                 2.7016                 1.8974
 Frc consts  --      0.0189                 0.0159                 0.0194
 IR Inten    --     21.9240                13.0756                20.1388

                      7                      8                      9
                      A                      A                      A
 Frequencies --    136.9554               182.6314               203.5854
 Red. masses --      1.9142                 2.5825                 1.5575
 Frc consts  --      0.0212                 0.0507                 0.0380
 IR Inten    --     20.3931                15.0935                 7.3139

                     10                     11                     12
                      A                      A                      A
 Frequencies --    221.4879               233.7182               247.2203
 Red. masses --      1.2345                 1.6691                 3.3961
 Frc consts  --      0.0357                 0.0537                 0.1223
 IR Inten    --      1.5640                 2.6836                 4.9861

                     13                     14                     15
                      A                      A                      A
 Frequencies --    288.4598               303.3579               312.8864
 Red. masses --      2.4636                 1.4593                 2.5739
 Frc consts  --      0.1208                 0.0791                 0.1485
 IR Inten    --     18.3742                 0.9140                 1.1872

                     16                     17                     18
                      A                      A                      A
 Frequencies --    338.6891               363.1254               379.0132
 Red. masses --      4.1025                 2.2954                 1.2612
 Frc consts  --      0.2773                 0.1783                 0.1067
 IR Inten    --     27.4808                 8.9458                86.8525

                     19                     20                     21
                      A                      A                      A
 Frequencies --    415.7405               454.6082               509.9402
 Red. masses --      3.5246                 8.3283                 3.4200
 Frc consts  --      0.3589                 1.0141                 0.5240
 IR Inten    --     14.2773                17.6196                51.3173

                     22                     23                     24
                      A                      A                      A
 Frequencies --    535.1014               702.7859               769.5896
 Red. masses --      3.0452                 1.4017                 4.6198
 Frc consts  --      0.5137                 0.4079                 1.6121
 IR Inten    --     37.5626                92.9605                21.5476

                     25                     26                     27
                      A                      A                      A
 Frequencies --    782.1656               897.5052               958.8096
 Red. masses --      7.4835                 3.1720                 1.3687
 Frc consts  --      2.6974                 1.5054                 0.7414
 IR Inten    --     27.5630                12.5100                 4.6448

                     28                     29                     30
                      A                      A                      A
 Frequencies --    986.8097              1003.8015              1030.6150
 Red. masses --      2.8248                 1.1284                 1.4160
 Frc consts  --      1.6207                 0.6699                 0.8862
 IR Inten    --     25.9883                82.7668                 8.8209

                     31                     32                     33
                      A                      A                      A
 Frequencies --   1060.2095              1072.3592              1078.4157
 Red. masses --      1.4472                 1.7319                 2.0538
 Frc consts  --      0.9585                 1.1735                 1.4073
 IR Inten    --    123.9097                90.1808                35.7050

                     34                     35                     36
                      A                      A                      A
 Frequencies --   1119.6311              1158.5283              1174.8763
 Red. masses --      2.0728                 1.2854                 1.8230
 Frc consts  --      1.5309                 1.0165                 1.4826
 IR Inten    --     16.1914                 1.9807                50.0275

                     37                     38                     39
                      A                      A                      A
 Frequencies --   1194.0177              1217.7988              1257.7954
 Red. masses --      2.7864                 1.4350                 3.1739
 Frc consts  --      2.3405                 1.2539                 2.9584
 IR Inten    --      6.7767                34.6677                53.0020

                     40                     41                     42
                      A                      A                      A
 Frequencies --   1318.9884              1359.0327              1397.2090
 Red. masses --      2.3864                 1.3024                 1.7506
 Frc consts  --      2.4461                 1.4173                 2.0136
 IR Inten    --    323.5186                18.7386               279.9634

                     43                     44                     45
                      A                      A                      A
 Frequencies --   1407.0644              1425.7916              1455.5695
 Red. masses --      1.4836                 1.4423                 1.2512
 Frc consts  --      1.7306                 1.7275                 1.5619
 IR Inten    --    130.5940               167.0681                38.8676

                     46                     47                     48
                      A                      A                      A
 Frequencies --   1456.4363              1475.8940              1477.0695
 Red. masses --      1.1929                 1.0495                 1.0524
 Frc consts  --      1.4909                 1.3469                 1.3528
 IR Inten    --     10.6813                24.7719                 7.2149

                     49                     50                     51
                      A                      A                      A
 Frequencies --   1488.5380              1494.1728              1503.3777
 Red. masses --      1.0514                 1.0502                 1.1131
 Frc consts  --      1.3726                 1.3814                 1.4823
 IR Inten    --      5.3533                16.4056                46.7464

                     52                     53                     54
                      A                      A                      A
 Frequencies --   1509.5281              1510.6758              1512.2595
 Red. masses --      1.0712                 1.1607                 1.0573
 Frc consts  --      1.4382                 1.5607                 1.4246
 IR Inten    --      0.7713                55.7053                23.5067

                     55                     56                     57
                      A                      A                      A
 Frequencies --   1555.0651              1604.4202              1651.9653
 Red. masses --      2.1488                 4.2651                 1.1592
 Frc consts  --      3.0616                 6.4686                 1.8639
 IR Inten    --    746.6318               426.1901                11.2234

                     58                     59                     60
                      A                      A                      A
 Frequencies --   3043.0741              3057.8357              3062.7857
 Red. masses --      1.0376                 1.0388                 1.0335
 Frc consts  --      5.6612                 5.7230                 5.7123
 IR Inten    --     96.0729                40.5213                45.0553

                     61                     62                     63
                      A                      A                      A
 Frequencies --   3067.4168              3099.1935              3122.3068
 Red. masses --      1.0374                 1.1021                 1.1016
 Frc consts  --      5.7511                 6.2372                 6.3275
 IR Inten    --     26.9270                50.1570                28.6729

                     64                     65                     66
                      A                      A                      A
 Frequencies --   3135.4364              3138.2366              3153.7549
 Red. masses --      1.1044                 1.1010                 1.1010
 Frc consts  --      6.3972                 6.3887                 6.4518
 IR Inten    --     15.2788                35.5107                27.0555

                     67                     68                     69
                      A                      A                      A
 Frequencies --   3160.0776              3164.5453              3183.8707
 Red. masses --      1.1044                 1.1027                 1.1003
 Frc consts  --      6.4979                 6.5065                 6.5715
 IR Inten    --     24.2258                17.1926                 4.2524

                     70                     71                     72
                      A                      A                      A
 Frequencies --   3469.0694              3592.2680              3691.4494
 Red. masses --      1.0578                 1.0901                 1.0777
 Frc consts  --      7.5005                 8.2882                 8.6525
 IR Inten    --     56.2566                75.5890                76.3976

 - Thermochemistry -
 -------------------
 Temperature   298.150 Kelvin.  Pressure   1.00000 Atm.
 Atom     1 has atomic number  6 and mass  12.00000

 Molecular mass:   178.08729 amu.
 Principal axes and moments of inertia in atomic units:
                           1         2         3
     Eigenvalues --  1551.948892521.602452993.84955
           X            0.99998  -0.00382  -0.00492
           Y            0.00376   0.99992  -0.01221
           Z            0.00497   0.01219   0.99991
 This molecule is an asymmetric top.
 Rotational symmetry number  1.
 Warning -- assumption of classical behavior for rotation
           may cause significant error
 Rotational temperatures (Kelvin)      0.05581     0.03435     0.02893
 Rotational constants (GHZ):           1.16289     0.71571     0.60282
    1 imaginary frequencies ignored.
 Zero-point vibrational energy     584794.7 (Joules/Mol)
                                  139.76930 (Kcal/Mol)
 Warning -- explicit consideration of  21 degrees of freedom as
           vibrations may cause significant error
 Vibrational temperatures:     59.28   102.96   127.76   143.87   189.75
          (Kelvin)            197.05   262.77   292.91   318.67   336.27
                              355.69   415.03   436.46   450.17   487.30
                              522.46   545.32   598.16   654.08   733.69
                              769.89  1011.15  1107.27  1125.36  1291.31
                             1379.51  1419.80  1444.25  1482.83  1525.40
                             1542.89  1551.60  1610.90  1666.86  1690.38
                             1717.93  1752.14  1809.69  1897.73  1955.34
                             2010.27  2024.45  2051.40  2094.24  2095.49
                             2123.48  2125.17  2141.67  2149.78  2163.03
                             2171.87  2173.53  2175.80  2237.39  2308.40
                             2376.81  4378.30  4399.54  4406.67  4413.33
                             4459.05  4492.30  4511.19  4515.22  4537.55
                             4546.65  4553.07  4580.88  4991.22  5168.47
                             5311.17

 Zero-point correction=                           0.222737 (Hartree/Particle)
 Thermal correction to Energy=                    0.236776
 Thermal correction to Enthalpy=                  0.237720
 Thermal correction to Gibbs Free Energy=         0.182156
 Sum of electronic and zero-point Energies=           -920.505970
 Sum of electronic and thermal Energies=              -920.491931
 Sum of electronic and thermal Enthalpies=            -920.490987
 Sum of electronic and thermal Free Energies=         -920.546551

                     E (Thermal)             CV                S
                      KCal/Mol        Cal/Mol-Kelvin    Cal/Mol-Kelvin
 Total                  148.579             49.541            116.945
 Electronic               0.000              0.000              0.000
 Translational            0.889              2.981             41.438
 Rotational               0.889              2.981             30.839
 Vibrational            146.802             43.579             44.668
 Vibration     1          0.594              1.981              5.201
 Vibration     2          0.598              1.968              4.110
 Vibration     3          0.602              1.957              3.686
 Vibration     4          0.604              1.949              3.454
 Vibration     5          0.612              1.921              2.918
 Vibration     6          0.614              1.916              2.846
 Vibration     7          0.630              1.863              2.301
 Vibration     8          0.639              1.835              2.100
 Vibration     9          0.648              1.808              1.947
 Vibration    10          0.654              1.789              1.850
 Vibration    11          0.661              1.767              1.750
 Vibration    12          0.685              1.695              1.483
 Vibration    13          0.695              1.667              1.398
 Vibration    14          0.701              1.649              1.347
 Vibration    15          0.719              1.598              1.218
 Vibration    16          0.737              1.548              1.109
 Vibration    17          0.749              1.515              1.043
 Vibration    18          0.779              1.436              0.907
 Vibration    19          0.813              1.351              0.782
 Vibration    20          0.865              1.228              0.634
 Vibration    21          0.890              1.172              0.576

 Optimization completed.
    -- Stationary point found.
 Normal termination of Gaussian 16 at Tue Feb 16 00:57:55 2021.
