 Gaussian 16, Revision A.03,
 Gaussian 16:  ES64L-G16RevA.03 25-Dec-2016

 ----------------------------------------------------------------------
 # wB97XD def2tzvp, opt=(ts, noeigen, calcfc, maxcycles=70, maxstep=8),
  freq=noraman, scrf=(iefpcm, solvent=water)
 ----------------------------------------------------------------------

 -----------------------
 1_iteration/TS-59-1.out
 -----------------------
 Symbolic Z-matrix:
 Charge =  0 Multiplicity = 1

 SCF Done:  E(RwB97XD) =  -613.542913707     A.U. after   15 cycles
 SCF Done:  E(RwB97XD) =  -613.542913654     A.U. after    7 cycles
 Optimization completed.
    -- Stationary point found.
 Normal termination of Gaussian 16 at Sun Mar 28 11:28:06 2021.

 ---------------------------------------------------------------------
 #N Geom=AllCheck Guess=TCheck SCRF=Check GenChk RwB97XD/def2TZVP Freq
 ---------------------------------------------------------------------

 Structure from the checkpoint file:  "/beegfs/scratch/user/q/tla25/Gau-13560.chk"
 -----------------------
 1_iteration/TS-59-1.out
 -----------------------
 Charge =  0 Multiplicity = 1

                         Standard orientation:
 ---------------------------------------------------------------------
 Center     Atomic      Atomic             Coordinates (Angstroms)
 Number     Number       Type             X           Y           Z
 ---------------------------------------------------------------------
      1          6           0       -1.419536   -0.697995    0.040135
      2          6           0       -2.739701   -0.266397    0.347982
      3          8           0       -3.013272    0.880296    0.782193
      4          6           0       -0.412069    0.254193    0.327058
      5          6           0        0.232096    2.861476   -0.521858
      6          1           0       -0.079059    3.733814   -1.096978
      7          1           0        0.169149    3.096076    0.540505
      8          1           0        1.264075    2.617178   -0.766748
      9          7           0       -0.614073    1.704661   -0.795371
     10          1           0       -1.593803    1.883013   -0.583603
     11          1           0       -0.539159    1.382881   -1.752648
     12          6           0        1.037601   -0.073992    0.222679
     13          6           0        1.634220   -0.429601   -0.985183
     14          6           0        2.987423   -0.721996   -1.047527
     15          6           0        3.766122   -0.668982    0.100516
     16          6           0        3.183800   -0.312486    1.307780
     17          6           0        1.831352   -0.008586    1.363911
     18          1           0        1.038131   -0.476264   -1.888572
     19          1           0        3.435290   -0.992499   -1.995407
     20          1           0        4.822883   -0.899015    0.052183
     21          1           0        3.784324   -0.261706    2.207237
     22          1           0        1.383301    0.281966    2.306958
     23          1           0       -0.625567    0.867440    1.199216
     24          6           0       -1.178506   -2.000733   -0.678652
     25          1           0       -1.487028   -1.990508   -1.732355
     26          1           0       -0.124451   -2.275610   -0.661423
     27          1           0       -1.712364   -2.827417   -0.198887
     28          7           0       -3.787733   -1.151901    0.164714
     29          1           0       -3.657035   -1.936654   -0.449200
     30          1           0       -4.696682   -0.723776    0.115731
 ---------------------------------------------------------------------

 SCF Done:  E(RwB97XD) =  -613.542913654     A.U. after    1 cycles

 The electronic state is 1-A.
 Alpha  occ. eigenvalues --  -19.18531 -14.48096 -14.42476 -10.35646 -10.33073
 Alpha  occ. eigenvalues --  -10.31669 -10.30233 -10.29295 -10.29251 -10.29222
 Alpha  occ. eigenvalues --  -10.29176 -10.29105 -10.26669 -10.24261  -1.10454
 Alpha  occ. eigenvalues --   -1.03767  -0.97667  -0.97105  -0.89912  -0.85435
 Alpha  occ. eigenvalues --   -0.84751  -0.79497  -0.77502  -0.72962  -0.70803
 Alpha  occ. eigenvalues --   -0.68201  -0.63860  -0.62777  -0.60647  -0.59543
 Alpha  occ. eigenvalues --   -0.56130  -0.56011  -0.55272  -0.53706  -0.52545
 Alpha  occ. eigenvalues --   -0.51241  -0.50367  -0.49877  -0.49029  -0.47897
 Alpha  occ. eigenvalues --   -0.46746  -0.46146  -0.45475  -0.44167  -0.43533
 Alpha  occ. eigenvalues --   -0.42293  -0.41963  -0.34402  -0.34059  -0.33496
 Alpha  occ. eigenvalues --   -0.32470  -0.24855
 Alpha virt. eigenvalues --    0.03598   0.05049   0.09444   0.10387   0.12738
 Alpha virt. eigenvalues --    0.13390   0.13697   0.14614   0.15801   0.17032
 Alpha virt. eigenvalues --    0.17523   0.17795   0.17962   0.18662   0.19736

 Mulliken charges:
               1
     1  C   -0.224755
     2  C    0.313881
     3  O   -0.615335
     4  C   -0.065325
     5  C   -0.287663
     6  H    0.155915
     7  H    0.149732
     8  H    0.155173
     9  N   -0.280018
    10  H    0.279934
    11  H    0.272860
    12  C    0.259012
    13  C   -0.318693
    14  C   -0.122901
    15  C   -0.150027
    16  C   -0.142774
    17  C   -0.230814
    18  H    0.168384
    19  H    0.144142
    20  H    0.145401
    21  H    0.143435
    22  H    0.142856
    23  H    0.147608
    24  C   -0.436521
    25  H    0.122039
    26  H    0.141319
    27  H    0.122312
    28  N   -0.507130
    29  H    0.264484
    30  H    0.253470
 Sum of Mulliken charges =  -0.00000

 Dipole moment (field-independent basis, Debye):
    X=              4.5199    Y=              1.9046    Z=             -5.1882  Tot=              7.1396
 Quadrupole moment (field-independent basis, Debye-Ang):
   XX=            -87.3417   YY=            -79.4585   ZZ=            -79.5890
   XY=              5.6283   XZ=             11.8897   YZ=             -1.7095

  Exact polarizability: 267.356   7.202 185.451  -4.722   8.182 187.360
 Approx polarizability: 195.271  -0.204 151.191  -2.777   8.047 163.137

 ******    1 imaginary frequencies (negative Signs) ******

                      1                      2                      3
                      A                      A                      A
 Frequencies --   -393.2239                41.7623                57.1245
 Red. masses --      5.7890                 3.8555                 4.0526
 Frc consts  --      0.5274                 0.0040                 0.0078
 IR Inten    --   1022.8531                 3.1434                25.3262

                      4                      5                      6
                      A                      A                      A
 Frequencies --     78.2009                88.3282               107.6783
 Red. masses --      3.3299                 3.3594                 3.5327
 Frc consts  --      0.0120                 0.0154                 0.0241
 IR Inten    --      0.2774                 7.5775                 9.8212

                      7                      8                      9
                      A                      A                      A
 Frequencies --    131.1337               152.3143               174.0902
 Red. masses --      1.9311                 1.6253                 1.3257
 Frc consts  --      0.0196                 0.0222                 0.0237
 IR Inten    --     42.3550                 1.3760                 3.6195

                     10                     11                     12
                      A                      A                      A
 Frequencies --    206.8583               228.4942               250.2834
 Red. masses --      1.9765                 3.5903                 3.8794
 Frc consts  --      0.0498                 0.1104                 0.1432
 IR Inten    --     19.9570                33.6477                 1.3221

                     13                     14                     15
                      A                      A                      A
 Frequencies --    296.8437               349.7604               361.2904
 Red. masses --      3.4752                 3.5229                 2.4738
 Frc consts  --      0.1804                 0.2539                 0.1903
 IR Inten    --      3.1981                 7.6175                 9.3252

                     16                     17                     18
                      A                      A                      A
 Frequencies --    412.3318               424.3494               445.4947
 Red. masses --      1.6747                 2.7142                 2.0426
 Frc consts  --      0.1678                 0.2880                 0.2388
 IR Inten    --    367.6725                19.8373                 1.1363

                     19                     20                     21
                      A                      A                      A
 Frequencies --    466.0832               556.5307               566.8393
 Red. masses --      1.2335                 4.1820                 3.2961
 Frc consts  --      0.1579                 0.7632                 0.6240
 IR Inten    --    136.1898                46.7667                67.0918

                     22                     23                     24
                      A                      A                      A
 Frequencies --    591.7419               635.5172               642.3669
 Red. masses --      3.7000                 4.4434                 3.2266
 Frc consts  --      0.7633                 1.0574                 0.7845
 IR Inten    --     53.7735                14.9813                 6.7453

                     25                     26                     27
                      A                      A                      A
 Frequencies --    713.9133               730.9701               782.0836
 Red. masses --      2.1217                 1.4724                 4.4652
 Frc consts  --      0.6371                 0.4635                 1.6092
 IR Inten    --     40.3267               127.9860                38.7334

                     28                     29                     30
                      A                      A                      A
 Frequencies --    797.1018               836.3932               874.3788
 Red. masses --      2.6086                 2.9792                 3.3719
 Frc consts  --      0.9765                 1.2279                 1.5189
 IR Inten    --     24.3658                41.6258                 9.2439

                     31                     32                     33
                      A                      A                      A
 Frequencies --    880.9374               961.5229               995.1764
 Red. masses --      1.2478                 1.4346                 1.4918
 Frc consts  --      0.5705                 0.7815                 0.8705
 IR Inten    --      0.3984                 6.2304               118.2470

                     34                     35                     36
                      A                      A                      A
 Frequencies --   1014.2267              1024.6585              1027.2846
 Red. masses --      1.3705                 1.3502                 4.1254
 Frc consts  --      0.8306                 0.8352                 2.5650
 IR Inten    --      1.3380                11.5917                 1.3360

                     37                     38                     39
                      A                      A                      A
 Frequencies --   1031.3183              1057.1895              1062.8913
 Red. masses --      1.3140                 1.3570                 1.4010
 Frc consts  --      0.8234                 0.8936                 0.9325
 IR Inten    --      0.1662                63.8416                25.3829

                     40                     41                     42
                      A                      A                      A
 Frequencies --   1064.4036              1077.2751              1100.2556
 Red. masses --      1.9843                 2.3793                 2.0534
 Frc consts  --      1.3246                 1.6269                 1.4646
 IR Inten    --      5.5773               204.8830                79.8043

                     43                     44                     45
                      A                      A                      A
 Frequencies --   1116.4898              1166.6933              1184.0653
 Red. masses --      1.6028                 1.9932                 1.1370
 Frc consts  --      1.1772                 1.5985                 0.9392
 IR Inten    --     15.9842                13.8507                 0.2779

                     46                     47                     48
                      A                      A                      A
 Frequencies --   1211.7325              1217.1699              1228.1464
 Red. masses --      1.1767                 1.3438                 1.7312
 Frc consts  --      1.0180                 1.1729                 1.5385
 IR Inten    --     12.8436                61.4233                43.0157

                     49                     50                     51
                      A                      A                      A
 Frequencies --   1262.9155              1324.3464              1344.4014
 Red. masses --      1.4571                 3.3748                 1.4219
 Frc consts  --      1.3692                 3.4874                 1.5142
 IR Inten    --    153.3612                 0.9759                34.7749

                     52                     53                     54
                      A                      A                      A
 Frequencies --   1346.8534              1367.3498              1399.5401
 Red. masses --      1.9253                 1.3752                 4.6347
 Frc consts  --      2.0578                 1.5149                 5.3486
 IR Inten    --     70.5501                21.4407               245.5187

                     55                     56                     57
                      A                      A                      A
 Frequencies --   1425.7504              1451.1241              1463.5418
 Red. masses --      1.3369                 2.2482                 1.2812
 Frc consts  --      1.6012                 2.7893                 1.6169
 IR Inten    --     70.5522               452.6428                79.6466

                     58                     59                     60
                      A                      A                      A
 Frequencies --   1490.8931              1491.8279              1500.9976
 Red. masses --      1.0470                 1.1314                 1.6569
 Frc consts  --      1.3711                 1.4836                 2.1994
 IR Inten    --     28.5138                15.5793                18.6890

                     61                     62                     63
                      A                      A                      A
 Frequencies --   1503.8484              1509.6801              1550.8207
 Red. masses --      1.0513                 1.2519                 2.4906
 Frc consts  --      1.4009                 1.6811                 3.5292
 IR Inten    --     46.4860               246.8360                 6.5022

                     64                     65                     66
                      A                      A                      A
 Frequencies --   1595.2785              1626.9883              1650.6409
 Red. masses --      4.0283                 1.3357                 1.1176
 Frc consts  --      6.0401                 2.0832                 1.7941
 IR Inten    --    585.9757               266.9562                58.8807

                     67                     68                     69
                      A                      A                      A
 Frequencies --   1655.0059              1679.2416              2994.5367
 Red. masses --      5.4418                 5.8623                 1.0528
 Frc consts  --      8.7819                 9.7397                 5.5624
 IR Inten    --      6.0624                 0.1618               132.9587

                     70                     71                     72
                      A                      A                      A
 Frequencies --   3051.9340              3066.2315              3125.4413
 Red. masses --      1.0901                 1.0332                 1.0887
 Frc consts  --      5.9823                 5.7234                 6.2657
 IR Inten    --     62.3510                49.5602                22.9526

                     73                     74                     75
                      A                      A                      A
 Frequencies --   3130.5119              3143.8541              3162.0485
 Red. masses --      1.0928                 1.1051                 1.1053
 Frc consts  --      6.3096                 6.4356                 6.5116
 IR Inten    --     28.5115                18.3852                16.2373

                     76                     77                     78
                      A                      A                      A
 Frequencies --   3190.9436              3194.2747              3203.1824
 Red. masses --      1.0869                 1.0879                 1.0911
 Frc consts  --      6.5206                 6.5401                 6.5957
 IR Inten    --      6.6467                 3.2254                11.0819

                     79                     80                     81
                      A                      A                      A
 Frequencies --   3211.7703              3222.2090              3469.0562
 Red. masses --      1.0950                 1.0989                 1.0587
 Frc consts  --      6.6550                 6.7221                 7.5067
 IR Inten    --     38.3017                16.9592                62.3426

                     82                     83                     84
                      A                      A                      A
 Frequencies --   3590.8101              3611.0438              3724.0271
 Red. masses --      1.0902                 1.0469                 1.1009
 Frc consts  --      8.2823                 8.0428                 8.9951
 IR Inten    --     58.6893                43.5578                45.1632

 - Thermochemistry -
 -------------------
 Temperature   298.150 Kelvin.  Pressure   1.00000 Atm.
 Atom     1 has atomic number  6 and mass  12.00000

 Molecular mass:   192.12626 amu.
 Principal axes and moments of inertia in atomic units:
                           1         2         3
     Eigenvalues --  1529.875894268.316114888.66800
           X            0.99990   0.01147   0.00790
           Y           -0.01157   0.99984   0.01335
           Z           -0.00774  -0.01344   0.99988
 This molecule is an asymmetric top.
 Rotational symmetry number  1.
 Warning -- assumption of classical behavior for rotation
           may cause significant error
 Rotational temperatures (Kelvin)      0.05661     0.02029     0.01772
 Rotational constants (GHZ):           1.17967     0.42282     0.36917
    1 imaginary frequencies ignored.
 Zero-point vibrational energy     676814.9 (Joules/Mol)
                                  161.76265 (Kcal/Mol)
 Warning -- explicit consideration of  21 degrees of freedom as
           vibrations may cause significant error
 Vibrational temperatures:     60.09    82.19   112.51   127.08   154.93
          (Kelvin)            188.67   219.15   250.48   297.62   328.75
                              360.10   427.09   503.23   519.82   593.25
                              610.54   640.97   670.59   800.72   815.56
                              851.38   914.37   924.22  1027.16  1051.70
                             1125.24  1146.85  1203.38  1258.04  1267.47
                             1383.42  1431.84  1459.25  1474.26  1478.03
                             1483.84  1521.06  1529.26  1531.44  1549.96
                             1583.02  1606.38  1678.61  1703.61  1743.41
                             1751.24  1767.03  1817.05  1905.44  1934.29
                             1937.82  1967.31  2013.63  2051.34  2087.84
                             2105.71  2145.06  2146.41  2159.60  2163.70
                             2172.09  2231.29  2295.25  2340.87  2374.90
                             2381.18  2416.05  4308.47  4391.05  4411.62
                             4496.81  4504.11  4523.30  4549.48  4591.06
                             4595.85  4608.67  4621.02  4636.04  4991.20
                             5166.37  5195.49  5358.04

 Zero-point correction=                           0.257785 (Hartree/Particle)
 Thermal correction to Energy=                    0.272198
 Thermal correction to Enthalpy=                  0.273142
 Thermal correction to Gibbs Free Energy=         0.216080
 Sum of electronic and zero-point Energies=           -613.285128
 Sum of electronic and thermal Energies=              -613.270716
 Sum of electronic and thermal Enthalpies=            -613.269772
 Sum of electronic and thermal Free Energies=         -613.326834

                     E (Thermal)             CV                S
                      KCal/Mol        Cal/Mol-Kelvin    Cal/Mol-Kelvin
 Total                  170.807             53.717            120.098
 Electronic               0.000              0.000              0.000
 Translational            0.889              2.981             41.664
 Rotational               0.889              2.981             31.835
 Vibrational            169.029             47.755             46.598
 Vibration     1          0.594              1.980              5.174
 Vibration     2          0.596              1.975              4.554
 Vibration     3          0.599              1.964              3.936
 Vibration     4          0.601              1.957              3.697
 Vibration     5          0.606              1.943              3.310
 Vibration     6          0.612              1.922              2.929
 Vibration     7          0.619              1.900              2.643
 Vibration     8          0.627              1.874              2.391
 Vibration     9          0.641              1.830              2.071
 Vibration    10          0.651              1.798              1.891
 Vibration    11          0.663              1.762              1.729
 Vibration    12          0.690              1.680              1.435
 Vibration    13          0.727              1.576              1.167
 Vibration    14          0.735              1.552              1.117
 Vibration    15          0.776              1.443              0.918
 Vibration    16          0.786              1.417              0.877
 Vibration    17          0.805              1.371              0.810
 Vibration    18          0.823              1.325              0.749
 Vibration    19          0.912              1.125              0.531
 Vibration    20          0.923              1.103              0.510
 Vibration    21          0.949              1.049              0.464

 Optimization completed.
    -- Stationary point found.
 Normal termination of Gaussian 16 at Sun Mar 28 12:15:08 2021.
