 Gaussian 16, Revision A.03,
 Gaussian 16:  ES64L-G16RevA.03 25-Dec-2016

 ----------------------------------------------------------------------
 # wB97XD def2tzvp, opt=(ts, noeigen, calcfc, maxcycles=70, maxstep=3),
  freq=noraman, scrf=(iefpcm, solvent=water)
 ----------------------------------------------------------------------

 ------------------------
 0_iteration/TS-594-0.out
 ------------------------
 Symbolic Z-matrix:
 Charge =  0 Multiplicity = 1

 SCF Done:  E(RwB97XD) =  -1285.61963158     A.U. after   15 cycles
 SCF Done:  E(RwB97XD) =  -1285.61913522     A.U. after   12 cycles
 SCF Done:  E(RwB97XD) =  -1285.61868733     A.U. after   13 cycles
 SCF Done:  E(RwB97XD) =  -1285.61833871     A.U. after   13 cycles
 SCF Done:  E(RwB97XD) =  -1285.61814247     A.U. after   13 cycles
 SCF Done:  E(RwB97XD) =  -1285.61832073     A.U. after   13 cycles
 SCF Done:  E(RwB97XD) =  -1285.61929957     A.U. after   14 cycles
 SCF Done:  E(RwB97XD) =  -1285.62020579     A.U. after   13 cycles
 SCF Done:  E(RwB97XD) =  -1285.62112375     A.U. after   13 cycles
 SCF Done:  E(RwB97XD) =  -1285.62205706     A.U. after   12 cycles
 SCF Done:  E(RwB97XD) =  -1285.64081047     A.U. after   11 cycles
 SCF Done:  E(RwB97XD) =  -1285.64080743     A.U. after   11 cycles
 SCF Done:  E(RwB97XD) =  -1285.64081479     A.U. after   10 cycles
 SCF Done:  E(RwB97XD) =  -1285.64081765     A.U. after   10 cycles
 SCF Done:  E(RwB97XD) =  -1285.64081925     A.U. after   11 cycles
 SCF Done:  E(RwB97XD) =  -1285.64081905     A.U. after   11 cycles
 SCF Done:  E(RwB97XD) =  -1285.64081867     A.U. after    7 cycles
 SCF Done:  E(RwB97XD) =  -1285.64081836     A.U. after    8 cycles
 SCF Done:  E(RwB97XD) =  -1285.64081818     A.U. after    6 cycles
 Optimization completed.
    -- Stationary point found.
 Normal termination of Gaussian 16 at Tue Apr 13 07:45:19 2021.

 ---------------------------------------------------------------------
 #N Geom=AllCheck Guess=TCheck SCRF=Check GenChk RwB97XD/def2TZVP Freq
 ---------------------------------------------------------------------

 Structure from the checkpoint file:  "/beegfs/scratch/user/q/tla25/Gau-41026.chk"
 ------------------------
 0_iteration/TS-594-0.out
 ------------------------
 Charge =  0 Multiplicity = 1

                         Standard orientation:
 ---------------------------------------------------------------------
 Center     Atomic      Atomic             Coordinates (Angstroms)
 Number     Number       Type             X           Y           Z
 ---------------------------------------------------------------------
      1          6           0        0.630305   -0.118837   -0.298257
      2          6           0        1.476321    0.947858    0.156602
      3          8           0        2.703204    0.834924    0.189203
      4          6           0       -0.762849   -0.181174   -0.428750
      5          6           0       -0.822507   -1.155107    2.216326
      6          1           0       -0.880976   -2.188530    1.881963
      7          1           0        0.217276   -0.830067    2.186739
      8          1           0       -1.191094   -1.085456    3.239025
      9          7           0       -1.597294   -0.308946    1.315522
     10          1           0       -2.544395   -0.650478    1.193785
     11          1           0       -1.661670    0.638888    1.668344
     12          6           0       -1.413043   -1.378164   -1.071931
     13          1           0       -2.494899   -1.267063   -1.076904
     14          1           0       -1.067562   -1.460754   -2.102560
     15          1           0       -1.142872   -2.293572   -0.550026
     16         17           0       -1.607900    1.304727   -0.951298
     17         17           0        1.496433   -1.623768   -0.617348
     18          6           0        0.883589    2.259358    0.635696
     19          1           0       -0.054754    2.153576    1.174968
     20          1           0        1.619449    2.728689    1.285665
     21          1           0        0.700963    2.918082   -0.214416
 ---------------------------------------------------------------------

 SCF Done:  E(RwB97XD) =  -1285.64081818     A.U. after    1 cycles

 The electronic state is 1-A.
 Alpha  occ. eigenvalues -- -101.70417-101.68507 -19.20937 -14.49479 -10.41570
 Alpha  occ. eigenvalues --  -10.36340 -10.32120 -10.31553 -10.29542 -10.27718
 Alpha  occ. eigenvalues --   -9.59026  -9.57038  -7.33670  -7.32811  -7.32764
 Alpha  occ. eigenvalues --   -7.31673  -7.30826  -7.30810  -1.12042  -1.05265
 Alpha  occ. eigenvalues --   -0.99015  -0.94588  -0.85772  -0.84715  -0.79513
 Alpha  occ. eigenvalues --   -0.78853  -0.69587  -0.64018  -0.60819  -0.58830
 Alpha  occ. eigenvalues --   -0.57206  -0.55715  -0.54987  -0.52220  -0.50762
 Alpha  occ. eigenvalues --   -0.50506  -0.49757  -0.48346  -0.47305  -0.46164
 Alpha  occ. eigenvalues --   -0.45322  -0.44569  -0.41198  -0.40398  -0.39210
 Alpha  occ. eigenvalues --   -0.38319  -0.32884  -0.28137
 Alpha virt. eigenvalues --    0.03138   0.06518   0.09636   0.11919   0.13447
 Alpha virt. eigenvalues --    0.14323   0.14570   0.15895   0.16976   0.18318
 Alpha virt. eigenvalues --    0.18781   0.19775   0.20238   0.21043   0.21968

 Mulliken charges:
               1
     1  C   -0.125704
     2  C    0.179731
     3  O   -0.491037
     4  C    0.148557
     5  C   -0.298528
     6  H    0.161888
     7  H    0.159800
     8  H    0.164182
     9  N   -0.322052
    10  H    0.292084
    11  H    0.282775
    12  C   -0.381160
    13  H    0.153300
    14  H    0.163573
    15  H    0.151726
    16  Cl  -0.098421
    17  Cl  -0.174512
    18  C   -0.349890
    19  H    0.103402
    20  H    0.130572
    21  H    0.149716
 Sum of Mulliken charges =  -0.00000

 Dipole moment (field-independent basis, Debye):
    X=            -10.9407    Y=             -1.3717    Z=              4.4963  Tot=             11.9078
 Quadrupole moment (field-independent basis, Debye-Ang):
   XX=            -86.0244   YY=            -71.9727   ZZ=            -66.8377
   XY=              2.6975   XZ=             -5.7497   YZ=             -0.6158

  Exact polarizability: 185.744   3.096 154.609  -3.216   0.297 131.611
 Approx polarizability: 151.057  -1.410 127.932  -2.300  -0.243 112.429

 ******    1 imaginary frequencies (negative Signs) ******

                      1                      2                      3
                      A                      A                      A
 Frequencies --   -359.3734                30.7717                71.4783
 Red. masses --      5.5894                 2.1228                 3.8058
 Frc consts  --      0.4253                 0.0012                 0.0115
 IR Inten    --    824.7484                 3.5010                 4.0634

                      4                      5                      6
                      A                      A                      A
 Frequencies --     78.6876               130.5864               173.7858
 Red. masses --      6.6245                 3.3680                 1.1416
 Frc consts  --      0.0242                 0.0338                 0.0203
 IR Inten    --      9.9531                 3.0709                 1.2869

                      7                      8                      9
                      A                      A                      A
 Frequencies --    191.7263               204.4992               221.9687
 Red. masses --      1.1335                 6.7344                 3.3292
 Frc consts  --      0.0245                 0.1659                 0.0966
 IR Inten    --      0.0242                 9.2773                 0.8966

                     10                     11                     12
                      A                      A                      A
 Frequencies --    261.3042               281.0563               298.7146
 Red. masses --      6.1127                 1.8952                 3.6263
 Frc consts  --      0.2459                 0.0882                 0.1906
 IR Inten    --      1.7478                 7.7961                12.3440

                     13                     14                     15
                      A                      A                      A
 Frequencies --    323.3696               332.6446               371.7104
 Red. masses --      3.7129                 1.9029                 2.7366
 Frc consts  --      0.2287                 0.1241                 0.2228
 IR Inten    --     28.4745                 2.1456                 2.5839

                     16                     17                     18
                      A                      A                      A
 Frequencies --    407.7294               489.3840               538.0727
 Red. masses --      5.1508                 3.9854                 4.9759
 Frc consts  --      0.5045                 0.5624                 0.8488
 IR Inten    --      9.1709                30.4003                80.5646

                     19                     20                     21
                      A                      A                      A
 Frequencies --    607.6845               644.0714               671.3510
 Red. masses --      3.1741                 3.2058                 1.4335
 Frc consts  --      0.6906                 0.7835                 0.3807
 IR Inten    --     18.8703                40.7346                40.3648

                     22                     23                     24
                      A                      A                      A
 Frequencies --    749.0528               911.9131               996.6072
 Red. masses --      4.2311                 4.1310                 1.1596
 Frc consts  --      1.3987                 2.0240                 0.6786
 IR Inten    --    220.9474                44.6450                14.8895

                     25                     26                     27
                      A                      A                      A
 Frequencies --   1007.5003              1034.7041              1041.7285
 Red. masses --      1.5918                 1.1205                 1.7602
 Frc consts  --      0.9520                 0.7068                 1.1254
 IR Inten    --    104.2014                63.6828                45.3464

                     28                     29                     30
                      A                      A                      A
 Frequencies --   1060.3357              1075.5095              1083.7092
 Red. masses --      1.8280                 2.1603                 2.7270
 Frc consts  --      1.2109                 1.4723                 1.8870
 IR Inten    --     86.1554                 7.2471                 1.6204

                     31                     32                     33
                      A                      A                      A
 Frequencies --   1126.3896              1226.6266              1318.6527
 Red. masses --      2.8160                 1.3950                 4.2838
 Frc consts  --      2.1050                 1.2367                 4.3887
 IR Inten    --     44.9621                30.6367               141.7611

                     34                     35                     36
                      A                      A                      A
 Frequencies --   1339.8928              1391.6569              1407.4952
 Red. masses --      1.3330                 1.3788                 2.1648
 Frc consts  --      1.4100                 1.5733                 2.5268
 IR Inten    --      3.9599                86.3921               708.7967

                     37                     38                     39
                      A                      A                      A
 Frequencies --   1427.1545              1456.4754              1463.6107
 Red. masses --      1.5963                 1.1810                 1.1297
 Frc consts  --      1.9156                 1.4760                 1.4258
 IR Inten    --    375.3175                48.0802                13.0813

                     40                     41                     42
                      A                      A                      A
 Frequencies --   1478.5008              1481.0360              1491.8588
 Red. masses --      1.0786                 1.0539                 1.0754
 Frc consts  --      1.3892                 1.3620                 1.4102
 IR Inten    --     18.5962                 0.2291                40.2174

                     43                     44                     45
                      A                      A                      A
 Frequencies --   1493.2515              1503.2155              1641.1843
 Red. masses --      1.0543                 1.0465                 1.1023
 Frc consts  --      1.3851                 1.3933                 1.7493
 IR Inten    --     11.1941                27.1760               114.6300

                     46                     47                     48
                      A                      A                      A
 Frequencies --   1653.1175              3073.0704              3075.0179
 Red. masses --      8.9358                 1.0330                 1.0372
 Frc consts  --     14.3877                 5.7477                 5.7784
 IR Inten    --    633.8946                24.6883                 9.8595

                     49                     50                     51
                      A                      A                      A
 Frequencies --   3080.2842              3151.2758              3151.7973
 Red. masses --      1.0360                 1.0997                 1.1048
 Frc consts  --      5.7915                 6.4342                 6.4664
 IR Inten    --      6.2036                16.2040                 5.4669

                     52                     53                     54
                      A                      A                      A
 Frequencies --   3159.2366              3171.4886              3172.1439
 Red. masses --      1.1018                 1.1059                 1.1032
 Frc consts  --      6.4790                 6.5538                 6.5403
 IR Inten    --      8.8048                13.3870                28.2804

                     55                     56                     57
                      A                      A                      A
 Frequencies --   3176.2760              3522.2381              3602.5668
 Red. masses --      1.1044                 1.0511                 1.0961
 Frc consts  --      6.5645                 7.6827                 8.3813
 IR Inten    --     11.8190                55.5898                53.5513

 - Thermochemistry -
 -------------------
 Temperature   298.150 Kelvin.  Pressure   1.00000 Atm.
 Atom     1 has atomic number  6 and mass  12.00000

 Molecular mass:   183.02177 amu.
 Principal axes and moments of inertia in atomic units:
                           1         2         3
     Eigenvalues --  1754.922242179.804662631.28518
           X            0.98250   0.18549  -0.01718
           Y           -0.18528   0.98260   0.01333
           Z            0.01936  -0.00992   0.99976
 This molecule is an asymmetric top.
 Rotational symmetry number  1.
 Warning -- assumption of classical behavior for rotation
           may cause significant error
 Rotational temperatures (Kelvin)      0.04935     0.03973     0.03292
 Rotational constants (GHZ):           1.02839     0.82794     0.68588
    1 imaginary frequencies ignored.
 Zero-point vibrational energy     439790.2 (Joules/Mol)
                                  105.11237 (Kcal/Mol)
 Warning -- explicit consideration of  18 degrees of freedom as
           vibrations may cause significant error
 Vibrational temperatures:     44.27   102.84   113.21   187.88   250.04
          (Kelvin)            275.85   294.23   319.36   375.96   404.38
                              429.78   465.26   478.60   534.81   586.63
                              704.11   774.17   874.32   926.68   965.92
                             1077.72  1312.04  1433.90  1449.57  1488.71
                             1498.81  1525.59  1547.42  1559.22  1620.62
                             1764.84  1897.25  1927.81  2002.28  2025.07
                             2053.36  2095.54  2105.81  2127.23  2130.88
                             2146.45  2148.46  2162.79  2361.30  2378.47
                             4421.46  4424.26  4431.84  4533.98  4534.73
                             4545.44  4563.06  4564.01  4569.95  5067.71
                             5183.29

 Zero-point correction=                           0.167507 (Hartree/Particle)
 Thermal correction to Energy=                    0.179802
 Thermal correction to Enthalpy=                  0.180746
 Thermal correction to Gibbs Free Energy=         0.128291
 Sum of electronic and zero-point Energies=          -1285.473311
 Sum of electronic and thermal Energies=             -1285.461016
 Sum of electronic and thermal Enthalpies=           -1285.460072
 Sum of electronic and thermal Free Energies=        -1285.512527

                     E (Thermal)             CV                S
                      KCal/Mol        Cal/Mol-Kelvin    Cal/Mol-Kelvin
 Total                  112.827             43.030            110.401
 Electronic               0.000              0.000              0.000
 Translational            0.889              2.981             41.520
 Rotational               0.889              2.981             30.688
 Vibrational            111.050             37.068             38.194
 Vibration     1          0.594              1.984              5.779
 Vibration     2          0.598              1.968              4.112
 Vibration     3          0.600              1.963              3.923
 Vibration     4          0.612              1.923              2.937
 Vibration     5          0.627              1.875              2.394
 Vibration     6          0.634              1.851              2.211
 Vibration     7          0.640              1.833              2.092
 Vibration     8          0.648              1.808              1.943
 Vibration     9          0.669              1.744              1.653
 Vibration    10          0.681              1.709              1.527
 Vibration    11          0.692              1.676              1.424
 Vibration    12          0.708              1.629              1.293
 Vibration    13          0.715              1.610              1.247
 Vibration    14          0.743              1.530              1.073
 Vibration    15          0.772              1.453              0.935
 Vibration    16          0.845              1.274              0.685
 Vibration    17          0.893              1.166              0.569
 Vibration    18          0.966              1.016              0.437

 Optimization completed.
    -- Stationary point found.
 Normal termination of Gaussian 16 at Tue Apr 13 07:52:04 2021.
