 Gaussian 16, Revision A.03,
 Gaussian 16:  ES64L-G16RevA.03 25-Dec-2016

 ----------------------------------------------------------------------
 # wB97XD def2tzvp, opt=(ts, noeigen, calcfc, maxcycles=70, maxstep=8),
  freq=noraman, scrf=(iefpcm, solvent=water)
 ----------------------------------------------------------------------

 ------------------------
 1_iteration/TS-529-1.out
 ------------------------
 Symbolic Z-matrix:
 Charge =  0 Multiplicity = 1

 SCF Done:  E(RwB97XD) =  -2900.71856592     A.U. after   16 cycles
 SCF Done:  E(RwB97XD) =  -2900.71856600     A.U. after    6 cycles
 Optimization completed.
    -- Stationary point found.
 Normal termination of Gaussian 16 at Tue Feb 16 14:34:21 2021.

 ---------------------------------------------------------------------
 #N Geom=AllCheck Guess=TCheck SCRF=Check GenChk RwB97XD/def2TZVP Freq
 ---------------------------------------------------------------------

 Structure from the checkpoint file:  "/beegfs/scratch/user/q/tla25/Gau-85841.chk"
 ------------------------
 1_iteration/TS-529-1.out
 ------------------------
 Charge =  0 Multiplicity = 1

                         Standard orientation:
 ---------------------------------------------------------------------
 Center     Atomic      Atomic             Coordinates (Angstroms)
 Number     Number       Type             X           Y           Z
 ---------------------------------------------------------------------
      1          6           0        1.243849   -0.328993    0.673694
      2          6           0        1.728272   -1.370582   -0.147703
      3          8           0        2.843078   -1.894140   -0.067840
      4          6           0        0.012239    0.304128    0.555993
      5          6           0        1.230410    2.564719   -0.642993
      6          1           0        1.479054    3.117989   -1.548137
      7          1           0        0.975473    3.268555    0.146216
      8          1           0        2.096783    1.976659   -0.335774
      9          7           0        0.114183    1.652516   -0.860169
     10          1           0       -0.766285    2.144327   -0.967218
     11          1           0        0.258359    1.089681   -1.690717
     12          6           0       -0.468463    1.175411    1.681370
     13          1           0        0.345707    1.816302    2.021099
     14          1           0       -1.317858    1.792202    1.394885
     15          1           0       -0.769662    0.539238    2.514293
     16         35           0       -1.464703   -0.701845   -0.234181
     17          1           0        1.916463    0.074472    1.423333
     18          1           0        1.024837   -1.737453   -0.919897
 ---------------------------------------------------------------------

 SCF Done:  E(RwB97XD) =  -2900.71856600     A.U. after    1 cycles

 The electronic state is 1-A.
 Alpha  occ. eigenvalues -- -483.13226 -62.68088 -56.47195 -56.46852 -56.46840
 Alpha  occ. eigenvalues --  -19.20788 -14.48688 -10.40118 -10.34502 -10.31779
 Alpha  occ. eigenvalues --  -10.29322 -10.25692  -8.82204  -6.64331  -6.63244
 Alpha  occ. eigenvalues --   -6.63204  -2.74720  -2.74415  -2.74383  -2.73504
 Alpha  occ. eigenvalues --   -2.73503  -1.10878  -1.04230  -0.94390  -0.85295
 Alpha  occ. eigenvalues --   -0.82124  -0.78990  -0.69531  -0.63385  -0.63052
 Alpha  occ. eigenvalues --   -0.57996  -0.56698  -0.54904  -0.53529  -0.50164
 Alpha  occ. eigenvalues --   -0.49344  -0.48130  -0.47683  -0.46305  -0.44163
 Alpha  occ. eigenvalues --   -0.42934  -0.38097  -0.37237  -0.32124  -0.28847
 Alpha virt. eigenvalues --    0.03422   0.05395   0.10140   0.12787   0.14463
 Alpha virt. eigenvalues --    0.14914   0.16429   0.16966   0.17852   0.19017
 Alpha virt. eigenvalues --    0.19948   0.20681   0.21332   0.23332   0.23701

 Mulliken charges:
               1
     1  C   -0.365851
     2  C    0.131648
     3  O   -0.511550
     4  C    0.148712
     5  C   -0.294550
     6  H    0.158903
     7  H    0.160947
     8  H    0.150897
     9  N   -0.337380
    10  H    0.290558
    11  H    0.283853
    12  C   -0.383768
    13  H    0.156021
    14  H    0.152880
    15  H    0.159911
    16  Br  -0.113283
    17  H    0.142982
    18  H    0.069072
 Sum of Mulliken charges =  -0.00000

 Dipole moment (field-independent basis, Debye):
    X=             -5.2372    Y=              9.6288    Z=             -1.6002  Tot=             11.0772
 Quadrupole moment (field-independent basis, Debye-Ang):
   XX=            -81.2065   YY=            -59.5629   ZZ=            -56.1430
   XY=             13.5666   XZ=             -0.6609   YZ=             -1.7018

  Exact polarizability: 154.975 -18.381 150.137   6.418   0.360 112.781
 Approx polarizability: 123.440 -12.287 117.117   5.873   1.241  96.253

 ******    1 imaginary frequencies (negative Signs) ******

                      1                      2                      3
                      A                      A                      A
 Frequencies --   -361.8717                73.4572               109.1793
 Red. masses --      5.4240                 3.7570                 2.2167
 Frc consts  --      0.4185                 0.0119                 0.0156
 IR Inten    --    827.9015                 2.7212                 7.0605

                      4                      5                      6
                      A                      A                      A
 Frequencies --    147.0551               176.8175               190.6500
 Red. masses --      6.1203                 1.8087                 2.0528
 Frc consts  --      0.0780                 0.0333                 0.0440
 IR Inten    --      7.7293                 2.3963                 2.0051

                      7                      8                      9
                      A                      A                      A
 Frequencies --    211.8805               256.3755               271.1848
 Red. masses --      1.7636                 1.2678                 2.9005
 Frc consts  --      0.0466                 0.0491                 0.1257
 IR Inten    --     10.8350                 3.1287                20.0426

                     10                     11                     12
                      A                      A                      A
 Frequencies --    287.7461               325.7053               372.9006
 Red. masses --      2.4603                 2.5713                 6.4560
 Frc consts  --      0.1200                 0.1607                 0.5289
 IR Inten    --     11.3710                 8.7822                22.5459

                     13                     14                     15
                      A                      A                      A
 Frequencies --    455.0606               539.8645               618.8328
 Red. masses --      2.8405                 4.2926                 3.0316
 Frc consts  --      0.3466                 0.7371                 0.6840
 IR Inten    --     21.3832                35.3771                72.1698

                     16                     17                     18
                      A                      A                      A
 Frequencies --    697.6501               764.9157               996.0065
 Red. masses --      1.3878                 1.3559                 1.1218
 Frc consts  --      0.3980                 0.4674                 0.6557
 IR Inten    --     78.2319               112.7836                12.3520

                     19                     20                     21
                      A                      A                      A
 Frequencies --   1022.8812              1033.1355              1040.6435
 Red. masses --      1.5570                 1.1780                 1.6530
 Frc consts  --      0.9598                 0.7408                 1.0547
 IR Inten    --     62.7297                64.4510                34.7936

                     22                     23                     24
                      A                      A                      A
 Frequencies --   1058.6131              1081.9805              1111.1968
 Red. masses --      1.5433                 3.6598                 3.0158
 Frc consts  --      1.0190                 2.5243                 2.1940
 IR Inten    --     75.6155                 7.3222               112.2270

                     25                     26                     27
                      A                      A                      A
 Frequencies --   1220.8073              1226.7121              1269.3747
 Red. masses --      1.4815                 1.8736                 1.8899
 Frc consts  --      1.3009                 1.6611                 1.7942
 IR Inten    --     53.3349               271.1275               260.6222

                     28                     29                     30
                      A                      A                      A
 Frequencies --   1343.7661              1384.7218              1420.8116
 Red. masses --      1.3189                 1.4636                 1.2543
 Frc consts  --      1.4032                 1.6534                 1.4919
 IR Inten    --      4.0866               376.0361                25.5756

                     31                     32                     33
                      A                      A                      A
 Frequencies --   1454.3857              1478.5276              1482.7133
 Red. masses --      1.1793                 1.0541                 1.0894
 Frc consts  --      1.4698                 1.3576                 1.4110
 IR Inten    --      7.3585                15.3683                14.6823

                     34                     35                     36
                      A                      A                      A
 Frequencies --   1494.2963              1505.6482              1519.9135
 Red. masses --      1.0440                 1.0388                 2.9340
 Frc consts  --      1.3735                 1.3875                 3.9935
 IR Inten    --      8.5365                24.1679               396.3754

                     37                     38                     39
                      A                      A                      A
 Frequencies --   1647.7425              1668.3194              2929.3620
 Red. masses --      1.0902                 6.5125                 1.0812
 Frc consts  --      1.7439                10.6797                 5.4664
 IR Inten    --     71.8381              1185.2847               114.5266

                     40                     41                     42
                      A                      A                      A
 Frequencies --   3064.9801              3069.8336              3140.2211
 Red. masses --      1.0338                 1.0357                 1.1042
 Frc consts  --      5.7219                 5.7507                 6.4156
 IR Inten    --     37.1581                10.0469                 7.4952

                     43                     44                     45
                      A                      A                      A
 Frequencies --   3146.1006              3163.0610              3168.0580
 Red. masses --      1.1021                 1.1039                 1.1050
 Frc consts  --      6.4272                 6.5073                 6.5340
 IR Inten    --     10.2692                19.3165                11.7407

                     46                     47                     48
                      A                      A                      A
 Frequencies --   3177.5626              3519.2812              3604.6567
 Red. masses --      1.0878                 1.0506                 1.0969
 Frc consts  --      6.4711                 7.6665                 8.3975
 IR Inten    --     11.8155                46.9070                48.0981

 - Thermochemistry -
 -------------------
 Temperature   298.150 Kelvin.  Pressure   1.00000 Atm.
 Atom     1 has atomic number  6 and mass  12.00000

 Molecular mass:   178.99458 amu.
 Principal axes and moments of inertia in atomic units:
                           1         2         3
     Eigenvalues --  1347.954641686.589572430.68336
           X            0.99976  -0.00432  -0.02128
           Y            0.00425   0.99999  -0.00325
           Z            0.02129   0.00316   0.99977
 This molecule is an asymmetric top.
 Rotational symmetry number  1.
 Warning -- assumption of classical behavior for rotation
           may cause significant error
 Rotational temperatures (Kelvin)      0.06426     0.05135     0.03563
 Rotational constants (GHZ):           1.33887     1.07005     0.74248
    1 imaginary frequencies ignored.
 Zero-point vibrational energy     388454.9 (Joules/Mol)
                                   92.84295 (Kcal/Mol)
 Warning -- explicit consideration of  14 degrees of freedom as
           vibrations may cause significant error
 Vibrational temperatures:    105.69   157.08   211.58   254.40   274.30
          (Kelvin)            304.85   368.87   390.17   414.00   468.62
                              536.52   654.73   776.74   890.36  1003.76
                             1100.54  1433.03  1471.70  1486.45  1497.25
                             1523.11  1556.73  1598.76  1756.47  1764.97
                             1826.35  1933.38  1992.31  2044.23  2092.54
                             2127.27  2133.29  2149.96  2166.29  2186.82
                             2370.73  2400.34  4214.70  4409.82  4416.81
                             4518.08  4526.54  4550.94  4558.13  4571.80
                             5063.46  5186.30

 Zero-point correction=                           0.147955 (Hartree/Particle)
 Thermal correction to Energy=                    0.157878
 Thermal correction to Enthalpy=                  0.158823
 Thermal correction to Gibbs Free Energy=         0.112059
 Sum of electronic and zero-point Energies=          -2900.570611
 Sum of electronic and thermal Energies=             -2900.560688
 Sum of electronic and thermal Enthalpies=           -2900.559743
 Sum of electronic and thermal Free Energies=        -2900.606507

                     E (Thermal)             CV                S
                      KCal/Mol        Cal/Mol-Kelvin    Cal/Mol-Kelvin
 Total                   99.070             34.428             98.423
 Electronic               0.000              0.000              0.000
 Translational            0.889              2.981             41.453
 Rotational               0.889              2.981             30.092
 Vibrational             97.293             28.466             26.878
 Vibration     1          0.599              1.967              4.059
 Vibration     2          0.606              1.942              3.283
 Vibration     3          0.617              1.906              2.710
 Vibration     4          0.628              1.871              2.362
 Vibration     5          0.634              1.853              2.221
 Vibration     6          0.643              1.823              2.027
 Vibration     7          0.666              1.752              1.686
 Vibration     8          0.675              1.726              1.589
 Vibration     9          0.685              1.696              1.487
 Vibration    10          0.710              1.624              1.281
 Vibration    11          0.744              1.528              1.068
 Vibration    12          0.813              1.350              0.781
 Vibration    13          0.895              1.162              0.566
 Vibration    14          0.979              0.992              0.418

 Optimization completed.
    -- Stationary point found.
 Normal termination of Gaussian 16 at Tue Feb 16 14:42:47 2021.
