 Gaussian 16, Revision A.03,
 Gaussian 16:  ES64L-G16RevA.03 25-Dec-2016

 ----------------------------------------------------------------------
 # wB97XD def2tzvp, opt=(ts, noeigen, calcfc, maxcycles=70, maxstep=8),
  freq=noraman, scrf=(iefpcm, solvent=water)
 ----------------------------------------------------------------------

 ------------------------
 1_iteration/TS-536-1.out
 ------------------------
 Symbolic Z-matrix:
 Charge =  0 Multiplicity = 1

 SCF Done:  E(RwB97XD) =  -3131.77485998     A.U. after   15 cycles
 SCF Done:  E(RwB97XD) =  -3131.77584218     A.U. after   13 cycles
 SCF Done:  E(RwB97XD) =  -3131.77626676     A.U. after   13 cycles
 SCF Done:  E(RwB97XD) =  -3131.77630297     A.U. after   11 cycles
 SCF Done:  E(RwB97XD) =  -3131.77631188     A.U. after   10 cycles
 SCF Done:  E(RwB97XD) =  -3131.77631368     A.U. after   10 cycles
 SCF Done:  E(RwB97XD) =  -3131.77631192     A.U. after    9 cycles
 Optimization completed.
    -- Stationary point found.
 Normal termination of Gaussian 16 at Tue Feb 16 17:31:19 2021.

 ---------------------------------------------------------------------
 #N Geom=AllCheck Guess=TCheck SCRF=Check GenChk RwB97XD/def2TZVP Freq
 ---------------------------------------------------------------------

 Structure from the checkpoint file:  "/beegfs/scratch/user/q/tla25/Gau-119301.chk"
 ------------------------
 1_iteration/TS-536-1.out
 ------------------------
 Charge =  0 Multiplicity = 1

                         Standard orientation:
 ---------------------------------------------------------------------
 Center     Atomic      Atomic             Coordinates (Angstroms)
 Number     Number       Type             X           Y           Z
 ---------------------------------------------------------------------
      1          6           0       -0.067816   -0.369258    0.755739
      2          6           0        0.769741    0.281465   -0.198469
      3          8           0        0.338813    1.000833   -1.109133
      4          6           0       -1.444152   -0.431554    0.696793
      5          6           0       -3.436989    1.954795    0.850621
      6          1           0       -3.527380    3.042900    0.884649
      7          1           0       -3.884659    1.595209   -0.074957
      8          1           0       -3.984272    1.532409    1.692086
      9          7           0       -2.048406    1.517897    0.907577
     10          1           0       -1.488388    1.896971    0.150769
     11          1           0       -1.604623    1.765185    1.783446
     12          6           0       -2.219614   -1.064729    1.810592
     13          1           0       -1.802772   -0.757353    2.769932
     14          1           0       -3.272479   -0.794068    1.772412
     15          1           0       -2.145791   -2.150463    1.729478
     16         35           0       -2.304984   -0.744892   -1.019350
     17          1           0        0.370089   -0.691016    1.691997
     18          6           0        2.258505    0.121722   -0.047932
     19          6           0        3.094762    1.105936   -0.569122
     20          6           0        4.471185    0.991744   -0.463228
     21          6           0        5.030535   -0.118617    0.155701
     22          6           0        4.206450   -1.110354    0.668192
     23          6           0        2.828240   -0.988328    0.570969
     24          1           0        2.649329    1.963327   -1.056816
     25          1           0        5.110354    1.768344   -0.864216
     26          1           0        6.106352   -0.211870    0.235335
     27          1           0        4.637548   -1.983169    1.142039
     28          1           0        2.194370   -1.774057    0.961966
 ---------------------------------------------------------------------

 SCF Done:  E(RwB97XD) =  -3131.77631192     A.U. after    1 cycles

 The electronic state is 1-A.
 Alpha  occ. eigenvalues -- -483.12624 -62.67473 -56.46582 -56.46244 -56.46221
 Alpha  occ. eigenvalues --  -19.21383 -14.46594 -10.39483 -10.35998 -10.31234
 Alpha  occ. eigenvalues --  -10.29603 -10.29376 -10.29335 -10.29168 -10.29158
 Alpha  occ. eigenvalues --  -10.29141 -10.29072 -10.26025  -8.81582  -6.63712
 Alpha  occ. eigenvalues --   -6.62636  -6.62563  -2.74103  -2.73806  -2.73749
 Alpha  occ. eigenvalues --   -2.72878  -2.72877  -1.12058  -1.02304  -0.96738
 Alpha  occ. eigenvalues --   -0.94021  -0.87038  -0.85297  -0.84658  -0.81541
 Alpha  occ. eigenvalues --   -0.78153  -0.73123  -0.70567  -0.67162  -0.62357
 Alpha  occ. eigenvalues --   -0.61977  -0.60175  -0.56634  -0.56160  -0.55080
 Alpha  occ. eigenvalues --   -0.54675  -0.53638  -0.52517  -0.51177  -0.50452
 Alpha  occ. eigenvalues --   -0.49855  -0.48570  -0.48025  -0.47163  -0.45343
 Alpha  occ. eigenvalues --   -0.44328  -0.43915  -0.42565  -0.41821  -0.37335
 Alpha  occ. eigenvalues --   -0.36540  -0.34021  -0.33780  -0.32604  -0.28786
 Alpha virt. eigenvalues --    0.00523   0.04796   0.05266   0.07584   0.10382
 Alpha virt. eigenvalues --    0.13333   0.13884   0.14700   0.15129   0.16312
 Alpha virt. eigenvalues --    0.16643   0.17917   0.18565   0.19015   0.19604

 Mulliken charges:
               1
     1  C   -0.474948
     2  C    0.354900
     3  O   -0.516826
     4  C    0.201694
     5  C   -0.271621
     6  H    0.147068
     7  H    0.143007
     8  H    0.148290
     9  N   -0.387904
    10  H    0.271522
    11  H    0.271096
    12  C   -0.374096
    13  H    0.148524
    14  H    0.152976
    15  H    0.158644
    16  Br  -0.116319
    17  H    0.161104
    18  C    0.136987
    19  C   -0.228997
    20  C   -0.131456
    21  C   -0.134322
    22  C   -0.147086
    23  C   -0.241571
    24  H    0.140147
    25  H    0.143506
    26  H    0.146390
    27  H    0.143706
    28  H    0.155587
 Sum of Mulliken charges =  -0.00000

 Dipole moment (field-independent basis, Debye):
    X=             -2.7104    Y=              1.4912    Z=              6.4494  Tot=              7.1529
 Quadrupole moment (field-independent basis, Debye-Ang):
   XX=            -78.2386   YY=            -88.9037   ZZ=            -95.0102
   XY=             -8.0940   XZ=             -6.7977   YZ=              0.6270

  Exact polarizability: 315.647  -9.185 211.608  -4.736 -20.540 189.343
 Approx polarizability: 220.568  -5.255 179.684   1.218 -20.166 166.132

 ******    1 imaginary frequencies (negative Signs) ******

                      1                      2                      3
                      A                      A                      A
 Frequencies --   -367.6005                38.5431                42.0956
 Red. masses --      5.5264                 5.9263                 4.0177
 Frc consts  --      0.4400                 0.0052                 0.0042
 IR Inten    --    819.0263                 3.6558                 1.1317

                      4                      5                      6
                      A                      A                      A
 Frequencies --     65.1390                96.2570               109.8521
 Red. masses --      3.4212                 2.3869                 6.7556
 Frc consts  --      0.0086                 0.0130                 0.0480
 IR Inten    --     10.3964                 3.0327                12.6103

                      7                      8                      9
                      A                      A                      A
 Frequencies --    126.7625               146.4834               175.0299
 Red. masses --      3.1401                 2.7342                 2.2010
 Frc consts  --      0.0297                 0.0346                 0.0397
 IR Inten    --      5.7181                10.3978                 1.1043

                     10                     11                     12
                      A                      A                      A
 Frequencies --    213.7987               230.2005               246.0455
 Red. masses --      2.7898                 1.4498                 1.6718
 Frc consts  --      0.0751                 0.0453                 0.0596
 IR Inten    --     23.4192                 2.9318                 0.5405

                     13                     14                     15
                      A                      A                      A
 Frequencies --    277.6398               304.8404               326.3190
 Red. masses --      3.0681                 3.9008                 5.6296
 Frc consts  --      0.1393                 0.2136                 0.3532
 IR Inten    --      3.9181                16.3953                13.3792

                     16                     17                     18
                      A                      A                      A
 Frequencies --    387.7188               421.5581               423.9290
 Red. masses --      4.2979                 3.2351                 4.2516
 Frc consts  --      0.3807                 0.3387                 0.4502
 IR Inten    --     23.0565                 1.7057                 7.6115

                     19                     20                     21
                      A                      A                      A
 Frequencies --    450.0082               491.2796               570.7272
 Red. masses --      3.6890                 4.3142                 2.7543
 Frc consts  --      0.4402                 0.6135                 0.5286
 IR Inten    --     67.5172                31.8227                19.0718

                     22                     23                     24
                      A                      A                      A
 Frequencies --    635.7961               640.8675               687.6635
 Red. masses --      6.0779                 1.3548                 4.0070
 Frc consts  --      1.4476                 0.3278                 1.1164
 IR Inten    --      1.1152                48.7479                36.4986

                     25                     26                     27
                      A                      A                      A
 Frequencies --    707.6177               722.9602               749.8075
 Red. masses --      1.9810                 1.6344                 1.9424
 Frc consts  --      0.5844                 0.5033                 0.6434
 IR Inten    --     35.1264                49.9414               216.3353

                     28                     29                     30
                      A                      A                      A
 Frequencies --    833.5793               874.6231               883.1511
 Red. masses --      3.0631                 6.2919                 1.2495
 Frc consts  --      1.2540                 2.8358                 0.5742
 IR Inten    --     28.0256                35.9198                 0.1529

                     31                     32                     33
                      A                      A                      A
 Frequencies --    970.9003               995.9501               998.4666
 Red. masses --      1.5113                 1.9257                 1.1006
 Frc consts  --      0.8394                 1.1254                 0.6465
 IR Inten    --     18.2515                64.9924               162.2863

                     34                     35                     36
                      A                      A                      A
 Frequencies --   1015.0138              1019.8231              1026.1560
 Red. masses --      1.1359                 1.3946                 5.5465
 Frc consts  --      0.6895                 0.8545                 3.4411
 IR Inten    --     63.1251                 2.1548                 1.2203

                     37                     38                     39
                      A                      A                      A
 Frequencies --   1034.7192              1047.3015              1060.1926
 Red. masses --      1.3197                 1.6025                 2.0875
 Frc consts  --      0.8325                 1.0356                 1.3824
 IR Inten    --      0.4429               101.2328                15.9886

                     40                     41                     42
                      A                      A                      A
 Frequencies --   1082.7769              1107.3234              1119.2883
 Red. masses --      3.6946                 1.6094                 2.1441
 Frc consts  --      2.5521                 1.1627                 1.5826
 IR Inten    --     89.6649                34.1695                78.1842

                     43                     44                     45
                      A                      A                      A
 Frequencies --   1131.5348              1183.5777              1192.5801
 Red. masses --      2.8241                 1.1346                 1.4116
 Frc consts  --      2.1304                 0.9364                 1.1829
 IR Inten    --     37.4500                 2.5064                32.6501

                     46                     47                     48
                      A                      A                      A
 Frequencies --   1205.5256              1254.9861              1324.1359
 Red. masses --      1.1366                 1.9614                 2.8330
 Frc consts  --      0.9732                 1.8201                 2.9265
 IR Inten    --     19.2711               542.2948                23.4903

                     49                     50                     51
                      A                      A                      A
 Frequencies --   1340.0734              1347.1135              1358.3791
 Red. masses --      1.6254                 2.5197                 1.5309
 Frc consts  --      1.7198                 2.6941                 1.6644
 IR Inten    --     15.8263                 3.9882                12.6863

                     52                     53                     54
                      A                      A                      A
 Frequencies --   1415.2787              1452.5740              1473.0629
 Red. masses --      1.2709                 1.2005                 1.0504
 Frc consts  --      1.4998                 1.4924                 1.3429
 IR Inten    --      8.9736                71.5173                 8.4901

                     55                     56                     57
                      A                      A                      A
 Frequencies --   1479.2031              1487.9875              1490.6334
 Red. masses --      1.1982                 1.8788                 1.0536
 Frc consts  --      1.5447                 2.4510                 1.3793
 IR Inten    --    167.8508                76.5258                11.0663

                     58                     59                     60
                      A                      A                      A
 Frequencies --   1504.2847              1514.0833              1541.6147
 Red. masses --      1.0709                 3.0009                 2.3498
 Frc consts  --      1.4278                 4.0532                 3.2903
 IR Inten    --     79.0206              1186.4590                75.6543

                     61                     62                     63
                      A                      A                      A
 Frequencies --   1636.9281              1651.6839              1666.7127
 Red. masses --      6.9791                 1.0892                 7.0825
 Frc consts  --     11.0181                 1.7507                11.5920
 IR Inten    --    238.7573                53.4543               148.1086

                     64                     65                     66
                      A                      A                      A
 Frequencies --   1674.1973              3053.8201              3067.1837
 Red. masses --      6.2200                 1.0377                 1.0364
 Frc consts  --     10.2720                 5.7017                 5.7446
 IR Inten    --     34.4513                71.1850                10.2308

                     67                     68                     69
                      A                      A                      A
 Frequencies --   3129.1323              3142.4091              3158.8144
 Red. masses --      1.0991                 1.1021                 1.1053
 Frc consts  --      6.3404                 6.4122                 6.4981
 IR Inten    --     18.5605                11.7067                18.4778

                     70                     71                     72
                      A                      A                      A
 Frequencies --   3165.4917              3194.6155              3200.1195
 Red. masses --      1.1027                 1.0859                 1.0885
 Frc consts  --      6.5099                 6.5295                 6.5677
 IR Inten    --     13.6022                 1.1014                 4.4930

                     73                     74                     75
                      A                      A                      A
 Frequencies --   3203.8985              3211.6034              3218.5181
 Red. masses --      1.0883                 1.0915                 1.0941
 Frc consts  --      6.5822                 6.6333                 6.6775
 IR Inten    --      4.6695                16.8708                25.5847

                     76                     77                     78
                      A                      A                      A
 Frequencies --   3223.9204              3511.6838              3603.0281
 Red. masses --      1.0980                 1.0526                 1.0951
 Frc consts  --      6.7242                 7.6482                 8.3761
 IR Inten    --     17.9794                22.8230                47.6216

 - Thermochemistry -
 -------------------
 Temperature   298.150 Kelvin.  Pressure   1.00000 Atm.
 Atom     1 has atomic number  6 and mass  12.00000

 Molecular mass:   255.02588 amu.
 Principal axes and moments of inertia in atomic units:
                           1         2         3
     Eigenvalues --  1661.714307562.362537713.91668
           X            0.99943  -0.02809  -0.01855
           Y            0.02118   0.95306  -0.30204
           Z            0.02617   0.30148   0.95311
 This molecule is an asymmetric top.
 Rotational symmetry number  1.
 Warning -- assumption of classical behavior for rotation
           may cause significant error
 Rotational temperatures (Kelvin)      0.05212     0.01145     0.01123
 Rotational constants (GHZ):           1.08607     0.23865     0.23396
    1 imaginary frequencies ignored.
 Zero-point vibrational energy     602730.0 (Joules/Mol)
                                  144.05594 (Kcal/Mol)
 Warning -- explicit consideration of  20 degrees of freedom as
           vibrations may cause significant error
 Vibrational temperatures:     55.45    60.57    93.72   138.49   158.05
          (Kelvin)            182.38   210.76   251.83   307.61   331.21
                              354.00   399.46   438.60   469.50   557.84
                              606.53   609.94   647.46   706.84   821.15
                              914.77   922.07   989.39  1018.10  1040.18
                             1078.81  1199.33  1258.39  1270.66  1396.91
                             1432.95  1436.57  1460.38  1467.30  1476.41
                             1488.73  1506.83  1525.38  1557.87  1593.19
                             1610.41  1628.03  1702.90  1715.86  1734.48
                             1805.65  1905.14  1928.07  1938.20  1954.40
                             2036.27  2089.93  2119.41  2128.24  2140.88
                             2144.69  2164.33  2178.43  2218.04  2355.17
                             2376.40  2398.03  2408.80  4393.77  4412.99
                             4502.12  4521.23  4544.83  4554.44  4596.34
                             4604.26  4609.70  4620.78  4630.73  4638.50
                             5052.53  5183.95

 Zero-point correction=                           0.229568 (Hartree/Particle)
 Thermal correction to Energy=                    0.244132
 Thermal correction to Enthalpy=                  0.245076
 Thermal correction to Gibbs Free Energy=         0.186364
 Sum of electronic and zero-point Energies=          -3131.546744
 Sum of electronic and thermal Energies=             -3131.532180
 Sum of electronic and thermal Enthalpies=           -3131.531236
 Sum of electronic and thermal Free Energies=        -3131.589948

                     E (Thermal)             CV                S
                      KCal/Mol        Cal/Mol-Kelvin    Cal/Mol-Kelvin
 Total                  153.195             53.204            123.570
 Electronic               0.000              0.000              0.000
 Translational            0.889              2.981             42.509
 Rotational               0.889              2.981             32.938
 Vibrational            151.417             47.243             48.123
 Vibration     1          0.594              1.981              5.333
 Vibration     2          0.595              1.980              5.158
 Vibration     3          0.597              1.971              4.295
 Vibration     4          0.603              1.952              3.529
 Vibration     5          0.606              1.941              3.272
 Vibration     6          0.611              1.926              2.995
 Vibration     7          0.617              1.906              2.717
 Vibration     8          0.627              1.873              2.381
 Vibration     9          0.644              1.820              2.011
 Vibration    10          0.652              1.795              1.877
 Vibration    11          0.661              1.769              1.759
 Vibration    12          0.679              1.715              1.548
 Vibration    13          0.696              1.665              1.390
 Vibration    14          0.710              1.623              1.278
 Vibration    15          0.756              1.496              1.009
 Vibration    16          0.784              1.423              0.887
 Vibration    17          0.786              1.418              0.879
 Vibration    18          0.809              1.361              0.796
 Vibration    19          0.847              1.269              0.680
 Vibration    20          0.927              1.095              0.503

 Optimization completed.
    -- Stationary point found.
 Normal termination of Gaussian 16 at Tue Feb 16 18:15:35 2021.
