 Gaussian 16, Revision A.03,
 Gaussian 16:  ES64L-G16RevA.03 25-Dec-2016

 ----------------------------------------------------------------------
 # wB97XD def2tzvp, opt=(ts, noeigen, calcfc, maxcycles=70, maxstep=8),
  freq=noraman, scrf=(iefpcm, solvent=water)
 ----------------------------------------------------------------------

 ------------------------
 1_iteration/TS-548-1.out
 ------------------------
 Symbolic Z-matrix:
 Charge =  0 Multiplicity = 1

 SCF Done:  E(RwB97XD) =  -5588.88610486     A.U. after   15 cycles
 SCF Done:  E(RwB97XD) =  -5588.88808882     A.U. after   13 cycles
 SCF Done:  E(RwB97XD) =  -5588.88897208     A.U. after   13 cycles
 SCF Done:  E(RwB97XD) =  -5588.88903691     A.U. after   12 cycles
 SCF Done:  E(RwB97XD) =  -5588.88903618     A.U. after   12 cycles
 SCF Done:  E(RwB97XD) =  -5588.88904529     A.U. after   10 cycles
 SCF Done:  E(RwB97XD) =  -5588.88904685     A.U. after   10 cycles
 SCF Done:  E(RwB97XD) =  -5588.88904864     A.U. after    9 cycles
 SCF Done:  E(RwB97XD) =  -5588.88899918     A.U. after   12 cycles
 SCF Done:  E(RwB97XD) =  -5588.88904807     A.U. after   11 cycles
 SCF Done:  E(RwB97XD) =  -5588.88904838     A.U. after    7 cycles
 SCF Done:  E(RwB97XD) =  -5588.88904843     A.U. after    7 cycles
 Optimization completed.
    -- Stationary point found.
 Normal termination of Gaussian 16 at Tue Feb 16 15:50:43 2021.

 ---------------------------------------------------------------------
 #N Geom=AllCheck Guess=TCheck SCRF=Check GenChk RwB97XD/def2TZVP Freq
 ---------------------------------------------------------------------

 Structure from the checkpoint file:  "/beegfs/scratch/user/q/tla25/Gau-3680.chk"
 ------------------------
 1_iteration/TS-548-1.out
 ------------------------
 Charge =  0 Multiplicity = 1

                         Standard orientation:
 ---------------------------------------------------------------------
 Center     Atomic      Atomic             Coordinates (Angstroms)
 Number     Number       Type             X           Y           Z
 ---------------------------------------------------------------------
      1          6           0        0.600649    0.128581   -0.207194
      2          6           0        0.391844    1.558377   -0.148506
      3          8           0        1.187047    2.414248   -0.482497
      4          6           0       -0.340703   -0.864730   -0.022015
      5          6           0        0.112800   -0.737200    2.818096
      6          1           0       -0.190639   -0.384533    3.804448
      7          1           0        0.534148   -1.736056    2.911879
      8          1           0        0.877677   -0.064784    2.425756
      9          7           0       -1.000050   -0.762126    1.881958
     10          1           0       -1.666631   -1.497281    2.084861
     11          1           0       -1.488469    0.125454    1.863094
     12          6           0        0.026158   -2.319109   -0.067694
     13          1           0        0.857951   -2.522140    0.604943
     14          1           0       -0.821446   -2.941123    0.208169
     15          1           0        0.335230   -2.583717   -1.080033
     16         35           0       -2.108368   -0.609346   -0.831465
     17         35           0        2.434203   -0.369984   -0.402192
     18          8           0       -0.806713    1.872939    0.382941
     19          6           0       -1.147632    3.255532    0.411199
     20          1           0       -2.151269    3.302113    0.825007
     21          1           0       -0.455054    3.810749    1.043111
     22          1           0       -1.136728    3.676550   -0.593809
 ---------------------------------------------------------------------

 SCF Done:  E(RwB97XD) =  -5588.88904843     A.U. after    1 cycles

 The electronic state is 1-A.
 Alpha  occ. eigenvalues -- -483.13049-483.12650 -62.67895 -62.67478 -56.47015
 Alpha  occ. eigenvalues --  -56.46659 -56.46642 -56.46597 -56.46238 -56.46234
 Alpha  occ. eigenvalues --  -19.29451 -19.22573 -14.47646 -10.41342 -10.40473
 Alpha  occ. eigenvalues --  -10.33193 -10.31912 -10.31554 -10.29483  -8.82000
 Alpha  occ. eigenvalues --   -8.81589  -6.64158  -6.63747  -6.63030  -6.62976
 Alpha  occ. eigenvalues --   -6.62597  -6.62585  -2.74539  -2.74229  -2.74186
 Alpha  occ. eigenvalues --   -2.74135  -2.73797  -2.73788  -2.73273  -2.73273
 Alpha  occ. eigenvalues --   -2.72858  -2.72857  -1.20989  -1.11405  -1.03396
 Alpha  occ. eigenvalues --   -0.95918  -0.89656  -0.84700  -0.83802  -0.78580
 Alpha  occ. eigenvalues --   -0.78158  -0.69636  -0.64205  -0.62839  -0.58925
 Alpha  occ. eigenvalues --   -0.57977  -0.57164  -0.56965  -0.54608  -0.52597
 Alpha  occ. eigenvalues --   -0.51753  -0.50218  -0.49088  -0.48195  -0.47681
 Alpha  occ. eigenvalues --   -0.44631  -0.44283  -0.42810  -0.40109  -0.39447
 Alpha  occ. eigenvalues --   -0.37794  -0.37060  -0.36597  -0.35784  -0.28343
 Alpha virt. eigenvalues --    0.01633   0.05051   0.09273   0.10143   0.13195
 Alpha virt. eigenvalues --    0.14109   0.15028   0.15422   0.16476   0.17093
 Alpha virt. eigenvalues --    0.18485   0.19484   0.20003   0.20112   0.20661

 Mulliken charges:
               1
     1  C   -0.304834
     2  C    0.427676
     3  O   -0.464345
     4  C    0.188167
     5  C   -0.295751
     6  H    0.155567
     7  H    0.158425
     8  H    0.150688
     9  N   -0.374122
    10  H    0.284687
    11  H    0.281362
    12  C   -0.373183
    13  H    0.154633
    14  H    0.156123
    15  H    0.166531
    16  Br  -0.109305
    17  Br  -0.116514
    18  O   -0.302836
    19  C   -0.195222
    20  H    0.143089
    21  H    0.133899
    22  H    0.135265
 Sum of Mulliken charges =  -0.00000

 Dipole moment (field-independent basis, Debye):
    X=             -5.4997    Y=             -3.9587    Z=              6.6858  Tot=              9.5193
 Quadrupole moment (field-independent basis, Debye-Ang):
   XX=            -96.5799   YY=            -86.4541   ZZ=            -81.5683
   XY=             -8.5002   XZ=             -2.9812   YZ=             -0.5853

  Exact polarizability: 209.769   9.407 182.762  -6.678  -9.953 164.866
 Approx polarizability: 168.839   6.924 146.800  -5.603  -7.577 136.590

 ******    1 imaginary frequencies (negative Signs) ******

                      1                      2                      3
                      A                      A                      A
 Frequencies --   -358.4264                50.7611                70.6568
 Red. masses --      5.5658                 3.1743                 3.6711
 Frc consts  --      0.4213                 0.0048                 0.0108
 IR Inten    --    635.9828                 0.1410                 4.4400

                      4                      5                      6
                      A                      A                      A
 Frequencies --     70.8387                92.6748               122.7872
 Red. masses --      5.7352                 4.3836                 2.8770
 Frc consts  --      0.0170                 0.0222                 0.0256
 IR Inten    --      4.0899                 5.1073                 3.3801

                      7                      8                      9
                      A                      A                      A
 Frequencies --    150.1769               158.4798               179.2522
 Red. masses --      5.8320                 1.5001                 1.4516
 Frc consts  --      0.0775                 0.0222                 0.0275
 IR Inten    --      1.0210                 5.7125                 4.4772

                     10                     11                     12
                      A                      A                      A
 Frequencies --    188.8746               194.6665               249.0594
 Red. masses --      2.1413                 3.5413                 3.2393
 Frc consts  --      0.0450                 0.0791                 0.1184
 IR Inten    --      3.0905                 0.7967                 5.4665

                     13                     14                     15
                      A                      A                      A
 Frequencies --    258.1439               266.5436               293.2026
 Red. masses --      3.6575                 2.6794                 2.4781
 Frc consts  --      0.1436                 0.1122                 0.1255
 IR Inten    --     19.1504                 5.5062                19.8983

                     16                     17                     18
                      A                      A                      A
 Frequencies --    310.0238               335.6716               376.2251
 Red. masses --      2.3868                 2.3778                 4.5199
 Frc consts  --      0.1352                 0.1579                 0.3769
 IR Inten    --      2.9803                 9.1608                17.0864

                     19                     20                     21
                      A                      A                      A
 Frequencies --    460.0632               514.2425               626.4865
 Red. masses --      4.9747                 5.2279                 1.5641
 Frc consts  --      0.6204                 0.8145                 0.3617
 IR Inten    --     44.0738                57.6644                43.3584

                     22                     23                     24
                      A                      A                      A
 Frequencies --    696.9531               775.4186               789.3793
 Red. masses --      2.9077                 6.1471                11.1764
 Frc consts  --      0.8322                 2.1777                 4.1032
 IR Inten    --    163.2084                28.2600                58.7137

                     25                     26                     27
                      A                      A                      A
 Frequencies --    922.9934               982.6744              1014.3925
 Red. masses --      4.9579                 1.0930                 1.1658
 Frc consts  --      2.4885                 0.6218                 0.7068
 IR Inten    --     29.3422                62.3292                85.6921

                     28                     29                     30
                      A                      A                      A
 Frequencies --   1048.3719              1063.0136              1086.2632
 Red. masses --      1.6609                 1.8823                 3.6328
 Frc consts  --      1.0755                 1.2532                 2.5256
 IR Inten    --     84.7201                28.3364                 4.6795

                     31                     32                     33
                      A                      A                      A
 Frequencies --   1095.6197              1130.6752              1181.9123
 Red. masses --      3.8127                 4.1596                 1.2814
 Frc consts  --      2.6965                 3.1331                 1.0547
 IR Inten    --     97.4851               179.2154                 1.5519

                     34                     35                     36
                      A                      A                      A
 Frequencies --   1200.4861              1219.0566              1297.1302
 Red. masses --      1.4170                 1.5513                 6.5153
 Frc consts  --      1.2032                 1.3583                 6.4588
 IR Inten    --     26.0549                60.0073               625.0056

                     37                     38                     39
                      A                      A                      A
 Frequencies --   1342.9171              1416.4529              1445.6646
 Red. masses --      1.3310                 1.2471                 1.7596
 Frc consts  --      1.4143                 1.4742                 2.1667
 IR Inten    --      0.7577                43.6375               369.1033

                     40                     41                     42
                      A                      A                      A
 Frequencies --   1462.6248              1478.1913              1481.1688
 Red. masses --      1.3563                 1.1330                 1.0868
 Frc consts  --      1.7095                 1.4587                 1.4048
 IR Inten    --    132.0563                32.2070                34.4246

                     43                     44                     45
                      A                      A                      A
 Frequencies --   1482.6482              1490.5301              1493.5096
 Red. masses --      1.0595                 1.1743                 1.1339
 Frc consts  --      1.3722                 1.5371                 1.4901
 IR Inten    --     16.1888                51.7323                34.9500

                     46                     47                     48
                      A                      A                      A
 Frequencies --   1497.6404              1505.5835              1640.8766
 Red. masses --      1.2493                 1.0385                 1.0942
 Frc consts  --      1.6510                 1.3870                 1.7358
 IR Inten    --    166.4102                 7.6474                77.1821

                     49                     50                     51
                      A                      A                      A
 Frequencies --   1723.9179              3060.6111              3068.3911
 Red. masses --     11.3785                 1.0338                 1.0305
 Frc consts  --     19.9237                 5.7055                 5.7162
 IR Inten    --    926.8848                39.8031                53.3167

                     52                     53                     54
                      A                      A                      A
 Frequencies --   3073.9137              3131.0983              3147.7310
 Red. masses --      1.0369                 1.1042                 1.1072
 Frc consts  --      5.7724                 6.3783                 6.4633
 IR Inten    --      4.9112                15.0618                30.4945

                     55                     56                     57
                      A                      A                      A
 Frequencies --   3149.7444              3162.2401              3174.6807
 Red. masses --      1.1009                 1.1045                 1.1037
 Frc consts  --      6.4350                 6.5072                 6.5541
 IR Inten    --      7.4700                18.2086                12.4075

                     58                     59                     60
                      A                      A                      A
 Frequencies --   3180.0043              3526.4184              3614.8035
 Red. masses --      1.1060                 1.0501                 1.0972
 Frc consts  --      6.5894                 7.6940                 8.4472
 IR Inten    --     18.8403                42.1356                66.3649

 - Thermochemistry -
 -------------------
 Temperature   298.150 Kelvin.  Pressure   1.00000 Atm.
 Atom     1 has atomic number  6 and mass  12.00000

 Molecular mass:   286.91565 amu.
 Principal axes and moments of inertia in atomic units:
                           1         2         3
     Eigenvalues --  2711.364804151.196555012.32907
           X            0.99902  -0.04033  -0.01840
           Y            0.03961   0.99849  -0.03816
           Z            0.01991   0.03739   0.99910
 This molecule is an asymmetric top.
 Rotational symmetry number  1.
 Warning -- assumption of classical behavior for rotation
           may cause significant error
 Rotational temperatures (Kelvin)      0.03194     0.02086     0.01728
 Rotational constants (GHZ):           0.66562     0.43475     0.36006
    1 imaginary frequencies ignored.
 Zero-point vibrational energy     449942.6 (Joules/Mol)
                                  107.53887 (Kcal/Mol)
 Warning -- explicit consideration of  19 degrees of freedom as
           vibrations may cause significant error
 Vibrational temperatures:     73.03   101.66   101.92   133.34   176.66
          (Kelvin)            216.07   228.02   257.90   271.75   280.08
                              358.34   371.41   383.50   421.85   446.06
                              482.96   541.30   661.93   739.88   901.37
                             1002.76  1115.65  1135.74  1327.98  1413.85
                             1459.48  1508.37  1529.44  1562.89  1576.35
                             1626.79  1700.51  1727.23  1753.95  1866.28
                             1932.16  2037.96  2079.99  2104.39  2126.79
                             2131.07  2133.20  2144.54  2148.83  2154.77
                             2166.20  2360.86  2480.33  4403.54  4414.73
                             4422.68  4504.95  4528.88  4531.78  4549.76
                             4567.66  4575.32  5073.73  5200.90

 Zero-point correction=                           0.171374 (Hartree/Particle)
 Thermal correction to Energy=                    0.185335
 Thermal correction to Enthalpy=                  0.186280
 Thermal correction to Gibbs Free Energy=         0.128970
 Sum of electronic and zero-point Energies=          -5588.717674
 Sum of electronic and thermal Energies=             -5588.703713
 Sum of electronic and thermal Enthalpies=           -5588.702769
 Sum of electronic and thermal Free Energies=        -5588.760079

                     E (Thermal)             CV                S
                      KCal/Mol        Cal/Mol-Kelvin    Cal/Mol-Kelvin
 Total                  116.300             47.058            120.618
 Electronic               0.000              0.000              0.000
 Translational            0.889              2.981             42.860
 Rotational               0.889              2.981             32.401
 Vibrational            114.522             41.096             45.358
 Vibration     1          0.595              1.977              4.788
 Vibration     2          0.598              1.968              4.135
 Vibration     3          0.598              1.968              4.130
 Vibration     4          0.602              1.954              3.603
 Vibration     5          0.610              1.930              3.056
 Vibration     6          0.618              1.902              2.670
 Vibration     7          0.621              1.893              2.568
 Vibration     8          0.629              1.868              2.336
 Vibration     9          0.633              1.855              2.239
 Vibration    10          0.635              1.847              2.183
 Vibration    11          0.662              1.764              1.737
 Vibration    12          0.667              1.749              1.674
 Vibration    13          0.672              1.734              1.619
 Vibration    14          0.688              1.686              1.455
 Vibration    15          0.699              1.655              1.362
 Vibration    16          0.717              1.604              1.233
 Vibration    17          0.747              1.521              1.054
 Vibration    18          0.818              1.339              0.766
 Vibration    19          0.869              1.218              0.623

 Optimization completed.
    -- Stationary point found.
 Normal termination of Gaussian 16 at Tue Feb 16 16:16:52 2021.
