 Gaussian 16, Revision A.03,
 Gaussian 16:  ES64L-G16RevA.03 25-Dec-2016

 ----------------------------------------------------------------------
 # wB97XD def2tzvp, opt=(ts, noeigen, calcfc, maxcycles=70, maxstep=1),
  freq=noraman, scrf=(iefpcm, solvent=water)
 ----------------------------------------------------------------------

 ------------------------
 0_iteration/TS-574-0.out
 ------------------------
 Symbolic Z-matrix:
 Charge =  0 Multiplicity = 1

 SCF Done:  E(RwB97XD) =  -920.697772786     A.U. after   15 cycles
 SCF Done:  E(RwB97XD) =  -920.697650058     A.U. after   10 cycles
 SCF Done:  E(RwB97XD) =  -920.697536155     A.U. after   10 cycles
 SCF Done:  E(RwB97XD) =  -920.697426469     A.U. after   10 cycles
 SCF Done:  E(RwB97XD) =  -920.697322578     A.U. after   10 cycles
 SCF Done:  E(RwB97XD) =  -920.697223990     A.U. after   10 cycles
 SCF Done:  E(RwB97XD) =  -920.697132101     A.U. after   10 cycles
 SCF Done:  E(RwB97XD) =  -920.697046271     A.U. after   10 cycles
 SCF Done:  E(RwB97XD) =  -920.696968610     A.U. after   10 cycles
 SCF Done:  E(RwB97XD) =  -920.696896734     A.U. after   10 cycles
 SCF Done:  E(RwB97XD) =  -920.699699247     A.U. after   10 cycles
 SCF Done:  E(RwB97XD) =  -920.699753539     A.U. after   10 cycles
 SCF Done:  E(RwB97XD) =  -920.699794874     A.U. after   10 cycles
 SCF Done:  E(RwB97XD) =  -920.699825383     A.U. after   10 cycles
 SCF Done:  E(RwB97XD) =  -920.699845503     A.U. after   10 cycles
 SCF Done:  E(RwB97XD) =  -920.699856274     A.U. after   10 cycles
 SCF Done:  E(RwB97XD) =  -920.699857678     A.U. after    9 cycles
 SCF Done:  E(RwB97XD) =  -920.699857755     A.U. after    7 cycles
 SCF Done:  E(RwB97XD) =  -920.699857757     A.U. after    6 cycles
 Optimization completed.
    -- Stationary point found.
 Normal termination of Gaussian 16 at Tue Feb 16 01:07:14 2021.

 ---------------------------------------------------------------------
 #N Geom=AllCheck Guess=TCheck SCRF=Check GenChk RwB97XD/def2TZVP Freq
 ---------------------------------------------------------------------

 Structure from the checkpoint file:  "/beegfs/scratch/user/q/tla25/Gau-32007.chk"
 ------------------------
 0_iteration/TS-574-0.out
 ------------------------
 Charge =  0 Multiplicity = 1

                         Standard orientation:
 ---------------------------------------------------------------------
 Center     Atomic      Atomic             Coordinates (Angstroms)
 Number     Number       Type             X           Y           Z
 ---------------------------------------------------------------------
      1          6           0       -0.151819    0.326195    1.111914
      2          6           0        1.141795    0.733751    0.601599
      3          8           0        1.564201    1.885941    0.784944
      4          6           0       -1.205305   -0.270762    0.411849
      5          6           0       -1.893301    2.093316   -0.777930
      6          1           0       -1.143398    2.444980   -0.070021
      7          1           0       -1.856695    2.699266   -1.681447
      8          1           0       -2.881830    2.169254   -0.331796
      9          7           0       -1.603662    0.692143   -1.080238
     10          1           0       -2.354333    0.249844   -1.601120
     11          1           0       -0.757777    0.608661   -1.635091
     12          6           0       -2.538548   -0.341314    1.118527
     13          1           0       -2.769950    0.619911    1.576488
     14          1           0       -3.343927   -0.616517    0.439199
     15          1           0       -2.483583   -1.092771    1.905102
     16         17           0       -0.952797   -1.839268   -0.493914
     17          1           0       -0.504052    0.991956    1.891932
     18          7           0        1.908029   -0.153602   -0.134738
     19          6           0        2.091241   -1.522529    0.313515
     20          6           0        3.070482    0.383933   -0.810625
     21          1           0        1.305715   -1.795990    1.010042
     22          1           0        2.073021   -2.216798   -0.528502
     23          1           0        3.059458   -1.620660    0.820399
     24          1           0        2.826566    1.332499   -1.282668
     25          1           0        3.911709    0.546021   -0.125620
     26          1           0        3.385178   -0.324951   -1.578161
 ---------------------------------------------------------------------

 SCF Done:  E(RwB97XD) =  -920.699857757     A.U. after    1 cycles

 The electronic state is 1-A.
 Alpha  occ. eigenvalues -- -101.68631 -19.19471 -14.50223 -14.44287 -10.40004
 Alpha  occ. eigenvalues --  -10.36698 -10.31995 -10.29905 -10.29747 -10.28783
 Alpha  occ. eigenvalues --  -10.23939  -9.57260  -7.31852  -7.31068  -7.31026
 Alpha  occ. eigenvalues --   -1.11935  -1.05918  -1.01697  -0.95869  -0.86637
 Alpha  occ. eigenvalues --   -0.82060  -0.79989  -0.79615  -0.76042  -0.67278
 Alpha  occ. eigenvalues --   -0.64293  -0.61702  -0.59106  -0.58157  -0.55843
 Alpha  occ. eigenvalues --   -0.55482  -0.54583  -0.51687  -0.50670  -0.49977
 Alpha  occ. eigenvalues --   -0.48578  -0.47702  -0.47569  -0.46629  -0.45809
 Alpha  occ. eigenvalues --   -0.45076  -0.44353  -0.43091  -0.38948  -0.38688
 Alpha  occ. eigenvalues --   -0.33901  -0.30988  -0.26689
 Alpha virt. eigenvalues --    0.07390   0.08119   0.09687   0.12548   0.13367
 Alpha virt. eigenvalues --    0.14308   0.14765   0.16529   0.17058   0.17389
 Alpha virt. eigenvalues --    0.18214   0.18801   0.19421   0.19895   0.20692

 Mulliken charges:
               1
     1  C   -0.500697
     2  C    0.287883
     3  O   -0.539152
     4  C    0.177122
     5  C   -0.304263
     6  H    0.157720
     7  H    0.163460
     8  H    0.164705
     9  N   -0.269354
    10  H    0.291918
    11  H    0.288637
    12  C   -0.382675
    13  H    0.150625
    14  H    0.147834
    15  H    0.153045
    16  Cl  -0.169953
    17  H    0.120632
    18  N   -0.157185
    19  C   -0.274334
    20  C   -0.288363
    21  H    0.144239
    22  H    0.133826
    23  H    0.119911
    24  H    0.133171
    25  H    0.119237
    26  H    0.132012
 Sum of Mulliken charges =  -0.00000

 Dipole moment (field-independent basis, Debye):
    X=             -6.2359    Y=             -0.7640    Z=             -5.1068  Tot=              8.0962
 Quadrupole moment (field-independent basis, Debye-Ang):
   XX=            -64.0020   YY=            -83.1383   ZZ=            -72.5839
   XY=            -14.0740   XZ=             -0.6198   YZ=             -7.4552

  Exact polarizability: 183.064   0.829 171.145   6.101   6.520 147.618
 Approx polarizability: 137.365   1.968 141.779   4.196   7.360 126.548

 ******    1 imaginary frequencies (negative Signs) ******

                      1                      2                      3
                      A                      A                      A
 Frequencies --   -358.1637                38.7246                78.0904
 Red. masses --      5.7217                 4.6491                 4.2795
 Frc consts  --      0.4325                 0.0041                 0.0154
 IR Inten    --    640.6557                 6.4527                11.7150

                      4                      5                      6
                      A                      A                      A
 Frequencies --     84.5133               112.3493               160.9426
 Red. masses --      3.7974                 1.9470                 2.0144
 Frc consts  --      0.0160                 0.0145                 0.0307
 IR Inten    --      4.9905                19.8171                 8.8789

                      7                      8                      9
                      A                      A                      A
 Frequencies --    184.0256               195.8088               206.9958
 Red. masses --      1.2461                 2.4621                 1.3048
 Frc consts  --      0.0249                 0.0556                 0.0329
 IR Inten    --      4.8692                 1.4506                 6.3279

                     10                     11                     12
                      A                      A                      A
 Frequencies --    214.6760               225.1909               252.9071
 Red. masses --      2.0795                 2.1639                 1.2481
 Frc consts  --      0.0565                 0.0647                 0.0470
 IR Inten    --     17.2761                 4.3325                 4.1442

                     13                     14                     15
                      A                      A                      A
 Frequencies --    281.8053               306.3959               346.2301
 Red. masses --      1.7906                 2.8166                 3.4080
 Frc consts  --      0.0838                 0.1558                 0.2407
 IR Inten    --     15.0325                15.6566                30.3670

                     16                     17                     18
                      A                      A                      A
 Frequencies --    357.0390               379.2801               425.4839
 Red. masses --      3.3708                 3.4468                 2.9201
 Frc consts  --      0.2532                 0.2921                 0.3115
 IR Inten    --     17.1622                18.0863                17.7242

                     19                     20                     21
                      A                      A                      A
 Frequencies --    437.0691               533.7860               595.1593
 Red. masses --      3.8818                 2.1425                 4.9405
 Frc consts  --      0.4369                 0.3597                 1.0311
 IR Inten    --     21.7559               113.8244               129.9321

                     22                     23                     24
                      A                      A                      A
 Frequencies --    655.8676               709.8375               747.4777
 Red. masses --      2.1955                 3.1568                 1.6796
 Frc consts  --      0.5564                 0.9372                 0.5529
 IR Inten    --     73.6340                71.9698                74.7434

                     25                     26                     27
                      A                      A                      A
 Frequencies --    777.8158               833.7661               995.3125
 Red. masses --      2.5388                 6.3738                 1.9975
 Frc consts  --      0.9050                 2.6106                 1.1659
 IR Inten    --     31.4917                38.9680                48.4105

                     28                     29                     30
                      A                      A                      A
 Frequencies --   1016.4648              1053.5933              1055.1828
 Red. masses --      1.2758                 1.5623                 1.4022
 Frc consts  --      0.7766                 1.0218                 0.9199
 IR Inten    --     19.6191                28.8317                24.2866

                     31                     32                     33
                      A                      A                      A
 Frequencies --   1067.2965              1080.5472              1081.6250
 Red. masses --      1.6487                 1.4791                 2.4323
 Frc consts  --      1.1065                 1.0175                 1.6766
 IR Inten    --    162.5910                16.8121                 6.3364

                     34                     35                     36
                      A                      A                      A
 Frequencies --   1129.8356              1130.6845              1172.1602
 Red. masses --      1.7728                 1.4569                 1.4091
 Frc consts  --      1.3334                 1.0974                 1.1407
 IR Inten    --     40.8783                43.8797                32.7568

                     37                     38                     39
                      A                      A                      A
 Frequencies --   1225.8252              1255.9877              1285.0276
 Red. masses --      3.1432                 1.3714                 1.5423
 Frc consts  --      2.7828                 1.2746                 1.5005
 IR Inten    --    199.2818                73.8545               352.7963

                     40                     41                     42
                      A                      A                      A
 Frequencies --   1294.1230              1345.4043              1401.0548
 Red. masses --      3.9266                 1.2922                 2.7492
 Frc consts  --      3.8745                 1.3781                 3.1796
 IR Inten    --     58.4696                 2.4154               454.7533

                     43                     44                     45
                      A                      A                      A
 Frequencies --   1418.6780              1442.2622              1450.4228
 Red. masses --      1.2548                 1.1726                 1.3997
 Frc consts  --      1.4879                 1.4371                 1.7348
 IR Inten    --     34.1432                10.6180               111.2372

                     46                     47                     48
                      A                      A                      A
 Frequencies --   1463.3306              1470.3426              1476.6563
 Red. masses --      1.4928                 1.2533                 1.0927
 Frc consts  --      1.8834                 1.5965                 1.4038
 IR Inten    --     71.2328               158.7950                 5.3435

                     49                     50                     51
                      A                      A                      A
 Frequencies --   1482.0194              1482.8846              1492.6673
 Red. masses --      1.0491                 1.0746                 1.1964
 Frc consts  --      1.3576                 1.3922                 1.5705
 IR Inten    --      3.3319                58.3288                40.0016

                     52                     53                     54
                      A                      A                      A
 Frequencies --   1499.2118              1500.6885              1504.4493
 Red. masses --      1.0435                 1.0948                 1.0386
 Frc consts  --      1.3819                 1.4526                 1.3851
 IR Inten    --     12.2079                46.6496                10.1403

                     55                     56                     57
                      A                      A                      A
 Frequencies --   1524.8895              1619.0558              1643.1174
 Red. masses --      1.2562                 7.4564                 1.0879
 Frc consts  --      1.7210                11.5160                 1.7306
 IR Inten    --    198.7091               846.1789                53.8085

                     58                     59                     60
                      A                      A                      A
 Frequencies --   3006.9581              3012.4100              3073.5877
 Red. masses --      1.0512                 1.0509                 1.0354
 Frc consts  --      5.5999                 5.6190                 5.7632
 IR Inten    --    107.3619               140.0817                11.3989

                     61                     62                     63
                      A                      A                      A
 Frequencies --   3077.3819              3089.6376              3097.4191
 Red. masses --      1.0329                 1.0890                 1.0884
 Frc consts  --      5.7633                 6.1248                 6.1524
 IR Inten    --     34.5366                74.8864                31.0217

                     64                     65                     66
                      A                      A                      A
 Frequencies --   3156.0655              3157.6030              3160.8508
 Red. masses --      1.1025                 1.1039                 1.1054
 Frc consts  --      6.4700                 6.4847                 6.5069
 IR Inten    --     10.1622                19.2503                 1.8846

                     67                     68                     69
                      A                      A                      A
 Frequencies --   3161.0245              3176.6096              3178.5292
 Red. masses --      1.1006                 1.0856                 1.1061
 Frc consts  --      6.4797                 6.4544                 6.5841
 IR Inten    --     22.1253                19.0206                 9.1038

                     70                     71                     72
                      A                      A                      A
 Frequencies --   3187.9750              3507.3837              3587.7953
 Red. masses --      1.0969                 1.0511                 1.0968
 Frc consts  --      6.5681                 7.6187                 8.3182
 IR Inten    --     10.2732                42.4534                61.7160

 - Thermochemistry -
 -------------------
 Temperature   298.150 Kelvin.  Pressure   1.00000 Atm.
 Atom     1 has atomic number  6 and mass  12.00000

 Molecular mass:   178.08729 amu.
 Principal axes and moments of inertia in atomic units:
                           1         2         3
     Eigenvalues --  1495.476942448.411123149.57328
           X            0.99652  -0.08137  -0.01816
           Y            0.08036   0.99549  -0.05051
           Z            0.02219   0.04887   0.99856
 This molecule is an asymmetric top.
 Rotational symmetry number  1.
 Warning -- assumption of classical behavior for rotation
           may cause significant error
 Rotational temperatures (Kelvin)      0.05792     0.03538     0.02750
 Rotational constants (GHZ):           1.20680     0.73711     0.57301
    1 imaginary frequencies ignored.
 Zero-point vibrational energy     585172.9 (Joules/Mol)
                                  139.85968 (Kcal/Mol)
 Warning -- explicit consideration of  20 degrees of freedom as
           vibrations may cause significant error
 Vibrational temperatures:     55.72   112.35   121.60   161.65   231.56
          (Kelvin)            264.77   281.73   297.82   308.87   324.00
                              363.88   405.46   440.84   498.15   513.70
                              545.70   612.18   628.84   768.00   856.30
                              943.65  1021.30  1075.45  1119.10  1199.60
                             1432.03  1462.47  1515.89  1518.17  1535.60
                             1554.67  1556.22  1625.58  1626.80  1686.48
                             1763.69  1807.09  1848.87  1861.95  1935.74
                             2015.81  2041.16  2075.09  2086.83  2105.41
                             2115.50  2124.58  2132.30  2133.54  2147.62
                             2157.03  2159.16  2164.57  2193.98  2329.46
                             2364.08  4326.34  4334.19  4422.21  4427.67
                             4445.30  4456.50  4540.87  4543.09  4547.76
                             4548.01  4570.43  4573.19  4586.78  5046.34
                             5162.04

 Zero-point correction=                           0.222881 (Hartree/Particle)
 Thermal correction to Energy=                    0.236435
 Thermal correction to Enthalpy=                  0.237379
 Thermal correction to Gibbs Free Energy=         0.182925
 Sum of electronic and zero-point Energies=           -920.476977
 Sum of electronic and thermal Energies=              -920.463422
 Sum of electronic and thermal Enthalpies=            -920.462478
 Sum of electronic and thermal Free Energies=         -920.516933

                     E (Thermal)             CV                S
                      KCal/Mol        Cal/Mol-Kelvin    Cal/Mol-Kelvin
 Total                  148.365             48.487            114.609
 Electronic               0.000              0.000              0.000
 Translational            0.889              2.981             41.438
 Rotational               0.889              2.981             30.823
 Vibrational            146.588             42.525             42.348
 Vibration     1          0.594              1.981              5.323
 Vibration     2          0.599              1.964              3.938
 Vibration     3          0.601              1.960              3.783
 Vibration     4          0.607              1.939              3.228
 Vibration     5          0.622              1.890              2.539
 Vibration     6          0.631              1.862              2.287
 Vibration     7          0.636              1.846              2.172
 Vibration     8          0.641              1.830              2.070
 Vibration     9          0.645              1.819              2.004
 Vibration    10          0.650              1.803              1.917
 Vibration    11          0.664              1.758              1.710
 Vibration    12          0.681              1.707              1.523
 Vibration    13          0.697              1.662              1.382
 Vibration    14          0.724              1.583              1.183
 Vibration    15          0.732              1.561              1.135
 Vibration    16          0.749              1.514              1.042
 Vibration    17          0.787              1.415              0.874
 Vibration    18          0.797              1.389              0.836
 Vibration    19          0.889              1.175              0.579
 Vibration    20          0.953              1.042              0.458

 Optimization completed.
    -- Stationary point found.
 Normal termination of Gaussian 16 at Tue Feb 16 01:35:04 2021.
