 Gaussian 16, Revision A.03,
 Gaussian 16:  ES64L-G16RevA.03 25-Dec-2016

 ----------------------------------------------------------------------
 # wB97XD def2tzvp, opt=(ts, noeigen, calcfc, maxcycles=70, maxstep=8),
  freq=noraman, scrf=(iefpcm, solvent=water)
 ----------------------------------------------------------------------

 ------------------------
 1_iteration/TS-542-1.out
 ------------------------
 Symbolic Z-matrix:
 Charge =  0 Multiplicity = 1

 SCF Done:  E(RwB97XD) =  -3074.02792126     A.U. after   15 cycles
 SCF Done:  E(RwB97XD) =  -3074.02847915     A.U. after   12 cycles
 SCF Done:  E(RwB97XD) =  -3074.02863397     A.U. after   11 cycles
 SCF Done:  E(RwB97XD) =  -3074.02864209     A.U. after   10 cycles
 SCF Done:  E(RwB97XD) =  -3074.02864323     A.U. after    9 cycles
 SCF Done:  E(RwB97XD) =  -3074.02864313     A.U. after    7 cycles
 SCF Done:  E(RwB97XD) =  -3074.02864319     A.U. after    6 cycles
 Optimization completed.
    -- Stationary point found.
 Normal termination of Gaussian 16 at Tue Feb 16 18:18:34 2021.

 ---------------------------------------------------------------------
 #N Geom=AllCheck Guess=TCheck SCRF=Check GenChk RwB97XD/def2TZVP Freq
 ---------------------------------------------------------------------

 Structure from the checkpoint file:  "/beegfs/scratch/user/q/tla25/Gau-1747.chk"
 ------------------------
 1_iteration/TS-542-1.out
 ------------------------
 Charge =  0 Multiplicity = 1

                         Standard orientation:
 ---------------------------------------------------------------------
 Center     Atomic      Atomic             Coordinates (Angstroms)
 Number     Number       Type             X           Y           Z
 ---------------------------------------------------------------------
      1          6           0        0.375909    0.612921    0.611572
      2          6           0        1.296056    0.138709   -0.413330
      3          8           0        0.939838   -0.020564   -1.598060
      4          6           0       -0.968396    0.335336    0.491640
      5          6           0       -1.493279    2.533095   -1.193211
      6          1           0       -1.501608    2.929103   -2.209652
      7          1           0       -2.301480    2.991713   -0.626511
      8          1           0       -0.538788    2.788027   -0.728414
      9          7           0       -1.628769    1.086472   -1.172807
     10          1           0       -2.554922    0.765187   -1.425149
     11          1           0       -0.915559    0.640771   -1.751457
     12          6           0       -1.963103    0.857824    1.484183
     13          1           0       -1.864896    1.939283    1.582466
     14          1           0       -2.983026    0.626037    1.186344
     15          1           0       -1.777368    0.411690    2.462621
     16         35           0       -1.478568   -1.548423   -0.003333
     17          6           0        0.840211    1.592528    1.672722
     18          1           0        0.243391    2.507889    1.675097
     19          1           0        0.806050    1.186664    2.689428
     20          1           0        1.868688    1.895783    1.480131
     21          7           0        2.601693   -0.082170   -0.076192
     22          6           0        3.020628   -0.478968    1.251954
     23          6           0        3.568768   -0.326083   -1.123233
     24          1           0        2.159961   -0.579327    1.906827
     25          1           0        3.521435   -1.450112    1.200112
     26          1           0        3.717792    0.241588    1.688138
     27          1           0        3.302354    0.236981   -2.013618
     28          1           0        4.553188   -0.006461   -0.777538
     29          1           0        3.624728   -1.387802   -1.388470
 ---------------------------------------------------------------------

 SCF Done:  E(RwB97XD) =  -3074.02864319     A.U. after    1 cycles

 The electronic state is 1-A.
 Alpha  occ. eigenvalues -- -483.11231 -62.66089 -56.45177 -56.44862 -56.44854
 Alpha  occ. eigenvalues --  -19.20086 -14.46640 -14.45083 -10.38197 -10.37108
 Alpha  occ. eigenvalues --  -10.31102 -10.30581 -10.30150 -10.28628 -10.27303
 Alpha  occ. eigenvalues --  -10.25512  -8.80193  -6.62252  -6.61263  -6.61233
 Alpha  occ. eigenvalues --   -2.72643  -2.72374  -2.72350  -2.71549  -2.71549
 Alpha  occ. eigenvalues --   -1.12562  -1.02875  -1.02228  -0.92910  -0.85793
 Alpha  occ. eigenvalues --   -0.82697  -0.80876  -0.78448  -0.78000  -0.75219
 Alpha  occ. eigenvalues --   -0.66189  -0.62472  -0.60726  -0.57823  -0.56753
 Alpha  occ. eigenvalues --   -0.56045  -0.55350  -0.54101  -0.51930  -0.51167
 Alpha  occ. eigenvalues --   -0.49407  -0.48716  -0.48385  -0.47957  -0.47458
 Alpha  occ. eigenvalues --   -0.46385  -0.45915  -0.44889  -0.44492  -0.42400
 Alpha  occ. eigenvalues --   -0.41663  -0.36390  -0.35926  -0.33748  -0.31493
 Alpha  occ. eigenvalues --   -0.25892
 Alpha virt. eigenvalues --    0.04879   0.06534   0.10065   0.12202   0.13311
 Alpha virt. eigenvalues --    0.14682   0.15644   0.15821   0.16353   0.17111
 Alpha virt. eigenvalues --    0.18165   0.18461   0.18990   0.19280   0.20044

 Mulliken charges:
               1
     1  C   -0.353666
     2  C    0.364609
     3  O   -0.579925
     4  C    0.195245
     5  C   -0.312463
     6  H    0.151661
     7  H    0.155426
     8  H    0.151445
     9  N   -0.315389
    10  H    0.273521
    11  H    0.273631
    12  C   -0.368588
    13  H    0.141145
    14  H    0.153672
    15  H    0.155624
    16  Br  -0.211984
    17  C   -0.400882
    18  H    0.128693
    19  H    0.131530
    20  H    0.141995
    21  N   -0.121659
    22  C   -0.297369
    23  C   -0.292750
    24  H    0.155321
    25  H    0.138433
    26  H    0.139304
    27  H    0.137050
    28  H    0.136671
    29  H    0.129700
 Sum of Mulliken charges =  -0.00000

 Dipole moment (field-independent basis, Debye):
    X=             -1.2484    Y=              4.5825    Z=              1.6869  Tot=              5.0402
 Quadrupole moment (field-independent basis, Debye-Ang):
   XX=            -72.1665   YY=            -85.1813   ZZ=            -87.9013
   XY=             -9.3132   XZ=              6.3706   YZ=             -2.7962

  Exact polarizability: 228.502  -3.768 190.273  12.272   1.757 180.955
 Approx polarizability: 170.734  -0.928 153.582   9.679   2.564 152.577

 ******    1 imaginary frequencies (negative Signs) ******

                      1                      2                      3
                      A                      A                      A
 Frequencies --   -427.8886                51.2571                85.2950
 Red. masses --      5.5305                 4.1675                 3.2663
 Frc consts  --      0.5966                 0.0065                 0.0140
 IR Inten    --    688.3092                 3.1286                 4.5166

                      4                      5                      6
                      A                      A                      A
 Frequencies --     97.2223               115.4590               130.9768
 Red. masses --      2.8755                 1.8318                 1.6929
 Frc consts  --      0.0160                 0.0144                 0.0171
 IR Inten    --      0.5390                 1.4847                18.6797

                      7                      8                      9
                      A                      A                      A
 Frequencies --    143.7124               157.5785               164.0823
 Red. masses --      4.5559                 1.3456                 2.2739
 Frc consts  --      0.0554                 0.0197                 0.0361
 IR Inten    --      6.3789                 0.5230                 4.1920

                     10                     11                     12
                      A                      A                      A
 Frequencies --    186.6921               199.5164               209.8343
 Red. masses --      1.2039                 2.7618                 1.1714
 Frc consts  --      0.0247                 0.0648                 0.0304
 IR Inten    --      1.8750                18.0933                 1.3901

                     13                     14                     15
                      A                      A                      A
 Frequencies --    231.2277               250.2146               263.1227
 Red. masses --      1.7409                 1.8335                 3.1895
 Frc consts  --      0.0548                 0.0676                 0.1301
 IR Inten    --     10.0822                 4.3498                30.9710

                     16                     17                     18
                      A                      A                      A
 Frequencies --    273.0802               286.3896               334.8402
 Red. masses --      1.9647                 2.6878                 3.7920
 Frc consts  --      0.0863                 0.1299                 0.2505
 IR Inten    --      2.2536                40.0440                29.4650

                     19                     20                     21
                      A                      A                      A
 Frequencies --    360.6433               366.7650               407.0530
 Red. masses --      2.3014                 2.9107                 2.5393
 Frc consts  --      0.1764                 0.2307                 0.2479
 IR Inten    --     10.7930                35.5040                12.2285

                     22                     23                     24
                      A                      A                      A
 Frequencies --    427.2278               509.1475               586.3144
 Red. masses --      5.0495                 3.5269                 3.2250
 Frc consts  --      0.5430                 0.5387                 0.6532
 IR Inten    --     20.6954                46.4732                71.0949

                     25                     26                     27
                      A                      A                      A
 Frequencies --    641.0943               718.4665               741.6122
 Red. masses --      3.4650                 1.5546                 3.9799
 Frc consts  --      0.8391                 0.4728                 1.2897
 IR Inten    --     96.0128                80.4485                62.1420

                     28                     29                     30
                      A                      A                      A
 Frequencies --    794.1420               915.7565               983.9488
 Red. masses --      7.4195                 3.1002                 1.0841
 Frc consts  --      2.7569                 1.5318                 0.6184
 IR Inten    --     46.4602               103.3665                84.7609

                     31                     32                     33
                      A                      A                      A
 Frequencies --   1003.3055              1046.1883              1060.8359
 Red. masses --      1.7505                 1.3585                 1.4412
 Frc consts  --      1.0382                 0.8761                 0.9556
 IR Inten    --     35.5904                70.9529                61.1956

                     34                     35                     36
                      A                      A                      A
 Frequencies --   1069.2719              1087.4427              1089.1142
 Red. masses --      1.4100                 1.4093                 1.5758
 Frc consts  --      0.9499                 0.9819                 1.1013
 IR Inten    --     11.6819                47.2467                39.9371

                     37                     38                     39
                      A                      A                      A
 Frequencies --   1092.4886              1098.7058              1133.4972
 Red. masses --      2.9945                 1.7868                 1.2324
 Frc consts  --      2.1058                 1.2708                 0.9329
 IR Inten    --    169.2859               177.9046                 0.6689

                     40                     41                     42
                      A                      A                      A
 Frequencies --   1169.2436              1178.5184              1205.0755
 Red. masses --      1.4364                 2.8208                 1.4586
 Frc consts  --      1.1570                 2.3083                 1.2480
 IR Inten    --      2.4807               183.6075                42.6983

                     43                     44                     45
                      A                      A                      A
 Frequencies --   1276.3798              1319.4381              1356.1737
 Red. masses --      4.7728                 4.9517                 1.2902
 Frc consts  --      4.5812                 5.0791                 1.3981
 IR Inten    --     55.9975                46.2699                15.0188

                     46                     47                     48
                      A                      A                      A
 Frequencies --   1403.5274              1415.2294              1430.1704
 Red. masses --      1.3095                 1.5307                 1.6150
 Frc consts  --      1.5198                 1.8063                 1.9463
 IR Inten    --     39.8774               248.5958               425.6477

                     49                     50                     51
                      A                      A                      A
 Frequencies --   1446.3491              1451.6781              1469.1666
 Red. masses --      1.1823                 1.2303                 1.3623
 Frc consts  --      1.4572                 1.5276                 1.7325
 IR Inten    --     36.9835                15.0189               162.6977

                     52                     53                     54
                      A                      A                      A
 Frequencies --   1473.2020              1476.6119              1482.9394
 Red. masses --      1.1664                 1.0584                 1.0697
 Frc consts  --      1.4915                 1.3597                 1.3859
 IR Inten    --     56.8644                14.8529                 5.7764

                     55                     56                     57
                      A                      A                      A
 Frequencies --   1489.1916              1490.6226              1493.3904
 Red. masses --      1.0913                 1.3179                 1.0439
 Frc consts  --      1.4259                 1.7253                 1.3717
 IR Inten    --     62.5999                35.7511                10.1716

                     58                     59                     60
                      A                      A                      A
 Frequencies --   1496.3499              1503.5393              1506.4177
 Red. masses --      1.0762                 1.0544                 1.0686
 Frc consts  --      1.4197                 1.4044                 1.4287
 IR Inten    --     41.6859                13.2940                73.5008

                     61                     62                     63
                      A                      A                      A
 Frequencies --   1517.2030              1538.8196              1606.5597
 Red. masses --      1.3042                 1.5710                 3.2468
 Frc consts  --      1.7689                 2.1918                 4.9373
 IR Inten    --    196.7426               122.2455               682.5882

                     64                     65                     66
                      A                      A                      A
 Frequencies --   1644.3063              3021.0171              3023.0589
 Red. masses --      1.3505                 1.0458                 1.0471
 Frc consts  --      2.1513                 5.6232                 5.6378
 IR Inten    --     62.5243               136.1452                68.8916

                     67                     68                     69
                      A                      A                      A
 Frequencies --   3033.0756              3056.4499              3066.8083
 Red. masses --      1.0399                 1.0338                 1.0377
 Frc consts  --      5.6364                 5.6899                 5.7503
 IR Inten    --    134.2152                55.0408                13.5678

                     70                     71                     72
                      A                      A                      A
 Frequencies --   3076.5692              3084.4479              3099.9029
 Red. masses --      1.0945                 1.1032                 1.0926
 Frc consts  --      6.1037                 6.1838                 6.1860
 IR Inten    --     51.9812                67.9419                34.9686

                     73                     74                     75
                      A                      A                      A
 Frequencies --   3125.7886              3134.0615              3138.4015
 Red. masses --      1.1039                 1.0968                 1.1012
 Frc consts  --      6.3548                 6.3473                 6.3904
 IR Inten    --     16.6462                28.9154                14.0216

                     76                     77                     78
                      A                      A                      A
 Frequencies --   3156.9094              3164.3387              3170.0416
 Red. masses --      1.1044                 1.1025                 1.0996
 Frc consts  --      6.4848                 6.5045                 6.5103
 IR Inten    --     23.2437                11.5996                14.3537

                     79                     80                     81
                      A                      A                      A
 Frequencies --   3177.4985              3415.2085              3592.0647
 Red. masses --      1.0970                 1.0620                 1.0878
 Frc consts  --      6.5256                 7.2982                 8.2695
 IR Inten    --     12.0887               145.1371                92.0690

 - Thermochemistry -
 -------------------
 Temperature   298.150 Kelvin.  Pressure   1.00000 Atm.
 Atom     1 has atomic number  6 and mass  12.00000

 Molecular mass:   236.05242 amu.
 Principal axes and moments of inertia in atomic units:
                           1         2         3
     Eigenvalues --  2140.724073705.884284214.56927
           X            0.99496  -0.10004   0.00719
           Y            0.09996   0.99492   0.01158
           Z           -0.00831  -0.01080   0.99991
 This molecule is an asymmetric top.
 Rotational symmetry number  1.
 Warning -- assumption of classical behavior for rotation
           may cause significant error
 Rotational temperatures (Kelvin)      0.04046     0.02337     0.02055
 Rotational constants (GHZ):           0.84305     0.48699     0.42821
    1 imaginary frequencies ignored.
 Zero-point vibrational energy     656087.5 (Joules/Mol)
                                  156.80868 (Kcal/Mol)
 Warning -- explicit consideration of  23 degrees of freedom as
           vibrations may cause significant error
 Vibrational temperatures:     73.75   122.72   139.88   166.12   188.45
          (Kelvin)            206.77   226.72   236.08   268.61   287.06
                              301.90   332.69   360.00   378.57   392.90
                              412.05   481.76   518.89   527.69   585.66
                              614.69   732.55   843.58   922.39  1033.71
                             1067.01  1142.59  1317.57  1415.68  1443.53
                             1505.23  1526.31  1538.44  1564.59  1566.99
                             1571.85  1580.79  1630.85  1682.28  1695.63
                             1733.83  1836.43  1898.38  1951.23  2019.36
                             2036.20  2057.70  2080.97  2088.64  2113.80
                             2119.61  2124.52  2133.62  2142.61  2144.67
                             2148.66  2152.91  2163.26  2167.40  2182.92
                             2214.02  2311.48  2365.79  4346.57  4349.51
                             4363.92  4397.55  4412.45  4426.50  4437.83
                             4460.07  4497.31  4509.22  4515.46  4542.09
                             4552.78  4560.98  4571.71  4913.72  5168.18

 Zero-point correction=                           0.249891 (Hartree/Particle)
 Thermal correction to Energy=                    0.265381
 Thermal correction to Enthalpy=                  0.266326
 Thermal correction to Gibbs Free Energy=         0.207548
 Sum of electronic and zero-point Energies=          -3073.778753
 Sum of electronic and thermal Energies=             -3073.763262
 Sum of electronic and thermal Enthalpies=           -3073.762318
 Sum of electronic and thermal Free Energies=        -3073.821095

                     E (Thermal)             CV                S
                      KCal/Mol        Cal/Mol-Kelvin    Cal/Mol-Kelvin
 Total                  166.529             54.813            123.707
 Electronic               0.000              0.000              0.000
 Translational            0.889              2.981             42.278
 Rotational               0.889              2.981             31.881
 Vibrational            164.752             48.851             49.548
 Vibration     1          0.596              1.977              4.768
 Vibration     2          0.601              1.959              3.765
 Vibration     3          0.603              1.951              3.509
 Vibration     4          0.608              1.937              3.175
 Vibration     5          0.612              1.922              2.932
 Vibration     6          0.616              1.909              2.754
 Vibration     7          0.621              1.894              2.579
 Vibration     8          0.623              1.887              2.502
 Vibration     9          0.632              1.858              2.260
 Vibration    10          0.638              1.841              2.138
 Vibration    11          0.642              1.826              2.045
 Vibration    12          0.653              1.793              1.869
 Vibration    13          0.663              1.762              1.729
 Vibration    14          0.670              1.740              1.641
 Vibration    15          0.676              1.723              1.577
 Vibration    16          0.684              1.699              1.495
 Vibration    17          0.716              1.606              1.237
 Vibration    18          0.735              1.553              1.119
 Vibration    19          0.740              1.541              1.093
 Vibration    20          0.772              1.455              0.937
 Vibration    21          0.789              1.411              0.868
 Vibration    22          0.864              1.230              0.636
 Vibration    23          0.943              1.061              0.474

 Optimization completed.
    -- Stationary point found.
 Normal termination of Gaussian 16 at Tue Feb 16 19:01:46 2021.
