 Gaussian 16, Revision A.03,
 Gaussian 16:  ES64L-G16RevA.03 25-Dec-2016

 ----------------------------------------------------------------------
 # wB97XD def2tzvp, opt=(ts, noeigen, calcfc, maxcycles=70, maxstep=8),
  freq=noraman, scrf=(iefpcm, solvent=water)
 ----------------------------------------------------------------------

 -----------------------
 1_iteration/TS-58-1.out
 -----------------------
 Symbolic Z-matrix:
 Charge =  0 Multiplicity = 1

 SCF Done:  E(RwB97XD) =  -597.477255978     A.U. after   15 cycles
 SCF Done:  E(RwB97XD) =  -597.477256579     A.U. after    8 cycles
 SCF Done:  E(RwB97XD) =  -597.477256966     A.U. after    7 cycles
 Optimization completed on the basis of negligible forces.
    -- Stationary point found.
 Normal termination of Gaussian 16 at Sun Jan 31 02:48:52 2021.

 ---------------------------------------------------------------------
 #N Geom=AllCheck Guess=TCheck SCRF=Check GenChk RwB97XD/def2TZVP Freq
 ---------------------------------------------------------------------

 Structure from the checkpoint file:  "/beegfs/scratch/user/q/tla25/Gau-63495.chk"
 -----------------------
 1_iteration/TS-58-1.out
 -----------------------
 Charge =  0 Multiplicity = 1

                         Standard orientation:
 ---------------------------------------------------------------------
 Center     Atomic      Atomic             Coordinates (Angstroms)
 Number     Number       Type             X           Y           Z
 ---------------------------------------------------------------------
      1          6           0       -1.227858   -0.623646   -0.310153
      2          6           0       -2.515969   -0.862439    0.237653
      3          8           0       -3.365353   -1.588497   -0.323895
      4          6           0       -0.307720    0.256802    0.307916
      5          6           0       -1.824492    2.464635   -0.314588
      6          1           0       -1.946073    3.394217   -0.868505
      7          1           0       -2.481352    1.702790   -0.734194
      8          1           0       -2.088006    2.624479    0.728833
      9          7           0       -0.452498    1.974517   -0.391409
     10          1           0       -0.137185    1.931491   -1.353659
     11          1           0        0.193259    2.570383    0.114848
     12          6           0        1.172055    0.050627    0.204476
     13          6           0        1.875451    0.081624   -0.998115
     14          6           0        3.244278   -0.138290   -1.023902
     15          6           0        3.933847   -0.397972    0.151534
     16          6           0        3.245711   -0.426809    1.355644
     17          6           0        1.878807   -0.196648    1.379569
     18          1           0        1.359883    0.278648   -1.929268
     19          1           0        3.773009   -0.107596   -1.968169
     20          1           0        5.002072   -0.571919    0.129359
     21          1           0        3.773993   -0.621981    2.280311
     22          1           0        1.349061   -0.213918    2.324995
     23          1           0       -0.572147    0.551836    1.314966
     24          6           0       -0.899204   -1.269826   -1.631373
     25          1           0       -0.870028   -0.552436   -2.461053
     26          1           0        0.069159   -1.776628   -1.618171
     27          1           0       -1.665148   -2.005066   -1.870346
     28          6           0       -2.962066   -0.262915    1.566228
     29          1           0       -3.433950   -1.055930    2.147320
     30          1           0       -2.187220    0.194837    2.176000
     31          1           0       -3.726060    0.492291    1.368419
 ---------------------------------------------------------------------

 SCF Done:  E(RwB97XD) =  -597.477256966     A.U. after    1 cycles

 The electronic state is 1-A.
 Alpha  occ. eigenvalues --  -19.18217 -14.49366 -10.33827 -10.33419 -10.31848
 Alpha  occ. eigenvalues --  -10.30545 -10.29448 -10.29361 -10.29303 -10.29252
 Alpha  occ. eigenvalues --  -10.29160 -10.26570 -10.25849 -10.24946  -1.08713
 Alpha  occ. eigenvalues --   -1.04805  -0.97287  -0.90520  -0.85568  -0.85218
 Alpha  occ. eigenvalues --   -0.81546  -0.79520  -0.77622  -0.71639  -0.70870
 Alpha  occ. eigenvalues --   -0.67570  -0.64173  -0.61400  -0.58758  -0.57107
 Alpha  occ. eigenvalues --   -0.56183  -0.55328  -0.54958  -0.53013  -0.51670
 Alpha  occ. eigenvalues --   -0.51223  -0.50167  -0.49078  -0.48243  -0.47720
 Alpha  occ. eigenvalues --   -0.47113  -0.46334  -0.44599  -0.43577  -0.43371
 Alpha  occ. eigenvalues --   -0.42485  -0.41679  -0.40741  -0.34109  -0.33664
 Alpha  occ. eigenvalues --   -0.30571  -0.25866
 Alpha virt. eigenvalues --    0.03311   0.04971   0.08467   0.09913   0.12120
 Alpha virt. eigenvalues --    0.13155   0.13773   0.14660   0.15412   0.16691
 Alpha virt. eigenvalues --    0.16912   0.17772   0.18147   0.18723   0.19251

 Mulliken charges:
               1
     1  C   -0.189333
     2  C    0.215504
     3  O   -0.577880
     4  C   -0.076272
     5  C   -0.313123
     6  H    0.164268
     7  H    0.164296
     8  H    0.160224
     9  N   -0.272104
    10  H    0.283004
    11  H    0.290885
    12  C    0.308031
    13  C   -0.333320
    14  C   -0.135104
    15  C   -0.162048
    16  C   -0.129679
    17  C   -0.250155
    18  H    0.172424
    19  H    0.144697
    20  H    0.145329
    21  H    0.144459
    22  H    0.142912
    23  H    0.155697
    24  C   -0.408489
    25  H    0.111776
    26  H    0.130980
    27  H    0.126569
    28  C   -0.391907
    29  H    0.129784
    30  H    0.111386
    31  H    0.137191
 Sum of Mulliken charges =  -0.00000

 Dipole moment (field-independent basis, Debye):
    X=              7.1771    Y=             10.1791    Z=              0.8632  Tot=             12.4848
 Quadrupole moment (field-independent basis, Debye-Ang):
   XX=           -104.3662   YY=            -82.9165   ZZ=            -77.8954
   XY=            -19.6470   XZ=             -4.8422   YZ=             -5.1047

  Exact polarizability: 275.256  16.753 183.543  -5.108  -1.859 203.466
 Approx polarizability: 204.798  10.852 151.545  -0.898  -1.593 172.966

 ******    1 imaginary frequencies (negative Signs) ******

                      1                      2                      3
                      A                      A                      A
 Frequencies --   -353.1708                31.7850                51.7599
 Red. masses --      6.1230                 1.8714                 3.0736
 Frc consts  --      0.4500                 0.0011                 0.0049
 IR Inten    --    955.7016                 1.4797                 2.6524

                      4                      5                      6
                      A                      A                      A
 Frequencies --     69.4424                77.5733               101.9234
 Red. masses --      4.1288                 2.1204                 3.4448
 Frc consts  --      0.0117                 0.0075                 0.0211
 IR Inten    --      5.9244                 5.3180                 4.5293

                      7                      8                      9
                      A                      A                      A
 Frequencies --    104.0659               151.7644               165.0515
 Red. masses --      1.9437                 2.5585                 2.0630
 Frc consts  --      0.0124                 0.0347                 0.0331
 IR Inten    --      9.4244                 0.8350                10.9032

                     10                     11                     12
                      A                      A                      A
 Frequencies --    206.6193               216.6064               264.4892
 Red. masses --      1.2126                 1.2104                 4.1729
 Frc consts  --      0.0305                 0.0335                 0.1720
 IR Inten    --      0.5374                 4.6288                 5.5558

                     13                     14                     15
                      A                      A                      A
 Frequencies --    277.7341               297.8964               329.9121
 Red. masses --      3.1030                 3.1554                 3.6690
 Frc consts  --      0.1410                 0.1650                 0.2353
 IR Inten    --      4.9398                20.1444                 8.1746

                     16                     17                     18
                      A                      A                      A
 Frequencies --    369.1669               426.4083               467.7324
 Red. masses --      3.4730                 2.8725                 2.9899
 Frc consts  --      0.2789                 0.3077                 0.3854
 IR Inten    --     16.7120                 1.7541                 9.7698

                     19                     20                     21
                      A                      A                      A
 Frequencies --    471.9650               555.9172               589.6106
 Red. masses --      3.5961                 2.5467                 3.2331
 Frc consts  --      0.4720                 0.4637                 0.6622
 IR Inten    --     44.5041               136.6666                44.4854

                     22                     23                     24
                      A                      A                      A
 Frequencies --    633.3058               638.1898               650.8988
 Red. masses --      3.3553                 5.7535                 3.6404
 Frc consts  --      0.7929                 1.3806                 0.9087
 IR Inten    --     21.4258                 2.8620                20.1152

                     25                     26                     27
                      A                      A                      A
 Frequencies --    685.4991               729.4857               792.6574
 Red. masses --      2.0575                 1.5688                 2.0931
 Frc consts  --      0.5696                 0.4919                 0.7748
 IR Inten    --     36.0878                92.9705                16.9956

                     28                     29                     30
                      A                      A                      A
 Frequencies --    827.3575               864.8561               879.4382
 Red. masses --      2.3315                 4.1108                 1.2525
 Frc consts  --      0.9403                 1.8116                 0.5707
 IR Inten    --      3.3587                 2.3277                 0.2127

                     31                     32                     33
                      A                      A                      A
 Frequencies --    947.7452               960.8054              1001.8013
 Red. masses --      2.1649                 1.4440                 1.4778
 Frc consts  --      1.1457                 0.7854                 0.8738
 IR Inten    --     11.9145                 2.2219               189.2842

                     34                     35                     36
                      A                      A                      A
 Frequencies --   1013.3559              1022.5652              1026.2602
 Red. masses --      1.3497                 1.2383                 5.3921
 Frc consts  --      0.8166                 0.7629                 3.3459
 IR Inten    --      2.8405                47.2479                 0.2290

                     37                     38                     39
                      A                      A                      A
 Frequencies --   1031.7695              1042.7231              1048.7073
 Red. masses --      1.3050                 1.4150                 1.4011
 Frc consts  --      0.8185                 0.9065                 0.9079
 IR Inten    --      5.4371                60.6001                21.5814

                     40                     41                     42
                      A                      A                      A
 Frequencies --   1062.4542              1067.9519              1086.3866
 Red. masses --      1.5611                 1.7961                 4.5773
 Frc consts  --      1.0382                 1.2070                 3.1829
 IR Inten    --     16.1358                 4.0168                52.7820

                     43                     44                     45
                      A                      A                      A
 Frequencies --   1110.8170              1125.2372              1184.3031
 Red. masses --      1.8804                 1.6955                 1.1548
 Frc consts  --      1.3670                 1.2648                 0.9543
 IR Inten    --     19.4748                42.9123                 5.2723

                     46                     47                     48
                      A                      A                      A
 Frequencies --   1190.9442              1216.6058              1235.0021
 Red. masses --      1.1610                 1.1381                 1.4712
 Frc consts  --      0.9702                 0.9925                 1.3220
 IR Inten    --     53.9451                 0.3949                71.1458

                     49                     50                     51
                      A                      A                      A
 Frequencies --   1249.1743              1290.3706              1338.7767
 Red. masses --      2.0144                 2.1577                 3.4838
 Frc consts  --      1.8520                 2.1168                 3.6789
 IR Inten    --     13.8047                68.8300                97.8637

                     52                     53                     54
                      A                      A                      A
 Frequencies --   1347.9813              1369.1386              1385.7010
 Red. masses --      1.3358                 1.4026                 1.4036
 Frc consts  --      1.4301                 1.5491                 1.5879
 IR Inten    --      3.4397                38.6248                20.5595

                     55                     56                     57
                      A                      A                      A
 Frequencies --   1392.7813              1415.9062              1444.5221
 Red. masses --      1.2692                 3.1326                 1.6368
 Frc consts  --      1.4506                 3.7002                 2.0124
 IR Inten    --     53.2959                63.1804               411.9600

                     58                     59                     60
                      A                      A                      A
 Frequencies --   1459.7368              1469.3666              1488.9057
 Red. masses --      1.3247                 1.0773                 1.1753
 Frc consts  --      1.6631                 1.3704                 1.5350
 IR Inten    --    105.8332                 8.2243                53.7599

                     61                     62                     63
                      A                      A                      A
 Frequencies --   1494.9879              1498.3425              1499.5801
 Red. masses --      1.3040                 1.0488                 1.2159
 Frc consts  --      1.7171                 1.3873                 1.6109
 IR Inten    --     18.9117                 8.3997                 6.1940

                     64                     65                     66
                      A                      A                      A
 Frequencies --   1505.2350              1521.8898              1548.6513
 Red. masses --      1.0463                 1.6417                 2.3637
 Frc consts  --      1.3967                 2.2403                 3.3400
 IR Inten    --     36.5235               180.1286                29.5025

                     67                     68                     69
                      A                      A                      A
 Frequencies --   1576.7027              1645.1396              1654.4531
 Red. masses --      7.2021                 1.0937                 5.4877
 Frc consts  --     10.5489                 1.7440                 8.8501
 IR Inten    --   1149.1017                56.9080                 3.9315

                     70                     71                     72
                      A                      A                      A
 Frequencies --   1677.7192              3006.3949              3062.9553
 Red. masses --      5.8350                 1.0527                 1.0394
 Frc consts  --      9.6767                 5.6059                 5.7455
 IR Inten    --      1.7900                96.3699                25.3975

                     73                     74                     75
                      A                      A                      A
 Frequencies --   3072.1263              3072.5262              3128.5467
 Red. masses --      1.0771                 1.0421                 1.0996
 Frc consts  --      5.9894                 5.7961                 6.3411
 IR Inten    --     87.0073                 3.8624                26.5178

                     76                     77                     78
                      A                      A                      A
 Frequencies --   3147.0054              3154.1019              3160.8460
 Red. masses --      1.0951                 1.1049                 1.1005
 Frc consts  --      6.3902                 6.4762                 6.4779
 IR Inten    --     16.5185                 5.5854                29.7431

                     79                     80                     81
                      A                      A                      A
 Frequencies --   3169.5439              3190.9577              3198.8647
 Red. masses --      1.1062                 1.0878                 1.0872
 Frc consts  --      6.5477                 6.5257                 6.5547
 IR Inten    --     14.1846                 6.7672                 0.1214

                     82                     83                     84
                      A                      A                      A
 Frequencies --   3207.1717              3208.4063              3215.8473
 Red. masses --      1.0890                 1.0881                 1.0946
 Frc consts  --      6.5995                 6.5994                 6.6693
 IR Inten    --     11.3060                26.8466                36.9162

                     85                     86                     87
                      A                      A                      A
 Frequencies --   3224.5699              3523.4792              3604.0996
 Red. masses --      1.0987                 1.0510                 1.0959
 Frc consts  --      6.7309                 7.6876                 8.3875
 IR Inten    --     14.2012                48.6361                43.2281

 - Thermochemistry -
 -------------------
 Temperature   298.150 Kelvin.  Pressure   1.00000 Atm.
 Atom     1 has atomic number  6 and mass  12.00000

 Molecular mass:   191.13101 amu.
 Principal axes and moments of inertia in atomic units:
                           1         2         3
     Eigenvalues --  1555.497054526.297924747.28904
           X            0.99975  -0.02010  -0.00944
           Y            0.02022   0.99972   0.01240
           Z            0.00919  -0.01259   0.99988
 This molecule is an asymmetric top.
 Rotational symmetry number  1.
 Warning -- assumption of classical behavior for rotation
           may cause significant error
 Rotational temperatures (Kelvin)      0.05568     0.01914     0.01824
 Rotational constants (GHZ):           1.16023     0.39872     0.38016
    1 imaginary frequencies ignored.
 Zero-point vibrational energy     705360.4 (Joules/Mol)
                                  168.58519 (Kcal/Mol)
 Warning -- explicit consideration of  20 degrees of freedom as
           vibrations may cause significant error
 Vibrational temperatures:     45.73    74.47    99.91   111.61   146.65
          (Kelvin)            149.73   218.36   237.47   297.28   311.65
                              380.54   399.60   428.61   474.67   531.15
                              613.51   672.96   679.05   799.84   848.32
                              911.19   918.21   936.50   986.28  1049.57
                             1140.46  1190.38  1244.34  1265.32  1363.59
                             1382.38  1441.37  1457.99  1471.24  1476.56
                             1484.49  1500.25  1508.86  1528.63  1536.54
                             1563.07  1598.22  1618.97  1703.95  1713.50
                             1750.42  1776.89  1797.28  1856.56  1926.20
                             1939.44  1969.89  1993.71  2003.90  2037.17
                             2078.35  2100.24  2114.09  2142.20  2150.95
                             2155.78  2157.56  2165.70  2189.66  2228.16
                             2268.52  2366.99  2380.39  2413.86  4325.53
                             4406.91  4420.10  4420.68  4501.28  4527.84
                             4538.05  4547.75  4560.27  4591.08  4602.45
                             4614.40  4616.18  4626.89  4639.44  5069.50
                             5185.50

 Zero-point correction=                           0.268658 (Hartree/Particle)
 Thermal correction to Energy=                    0.283324
 Thermal correction to Enthalpy=                  0.284269
 Thermal correction to Gibbs Free Energy=         0.226064
 Sum of electronic and zero-point Energies=           -597.208599
 Sum of electronic and thermal Energies=              -597.193932
 Sum of electronic and thermal Enthalpies=            -597.192988
 Sum of electronic and thermal Free Energies=         -597.251193

                     E (Thermal)             CV                S
                      KCal/Mol        Cal/Mol-Kelvin    Cal/Mol-Kelvin
 Total                  177.789             54.039            122.502
 Electronic               0.000              0.000              0.000
 Translational            0.889              2.981             41.649
 Rotational               0.889              2.981             31.880
 Vibrational            176.011             48.078             48.972
 Vibration     1          0.594              1.983              5.715
 Vibration     2          0.596              1.977              4.749
 Vibration     3          0.598              1.969              4.169
 Vibration     4          0.599              1.964              3.951
 Vibration     5          0.604              1.948              3.417
 Vibration     6          0.605              1.946              3.377
 Vibration     7          0.619              1.901              2.650
 Vibration     8          0.623              1.885              2.491
 Vibration     9          0.641              1.830              2.073
 Vibration    10          0.645              1.816              1.987
 Vibration    11          0.671              1.738              1.632
 Vibration    12          0.679              1.715              1.548
 Vibration    13          0.691              1.678              1.429
 Vibration    14          0.713              1.616              1.261
 Vibration    15          0.741              1.536              1.083
 Vibration    16          0.788              1.413              0.870
 Vibration    17          0.825              1.322              0.744
 Vibration    18          0.829              1.312              0.732
 Vibration    19          0.911              1.127              0.532
 Vibration    20          0.947              1.054              0.468

 Optimization completed on the basis of negligible forces.
    -- Stationary point found.
 Normal termination of Gaussian 16 at Sun Jan 31 03:46:26 2021.
