 Gaussian 16, Revision A.03,
 Gaussian 16:  ES64L-G16RevA.03 25-Dec-2016

 ----------------------------------------------------------------------
 # wB97XD def2tzvp, opt=(ts, noeigen, calcfc, maxcycles=70, maxstep=8),
  freq=noraman, scrf=(iefpcm, solvent=water)
 ----------------------------------------------------------------------

 ------------------------
 1_iteration/TS-547-1.out
 ------------------------
 Symbolic Z-matrix:
 Charge =  0 Multiplicity = 1

 SCF Done:  E(RwB97XD) =  -5529.71769863     A.U. after   15 cycles
 SCF Done:  E(RwB97XD) =  -5529.71747310     A.U. after   12 cycles
 SCF Done:  E(RwB97XD) =  -5529.71732328     A.U. after   12 cycles
 SCF Done:  E(RwB97XD) =  -5529.71723684     A.U. after   12 cycles
 SCF Done:  E(RwB97XD) =  -5529.71719832     A.U. after   12 cycles
 SCF Done:  E(RwB97XD) =  -5529.71718205     A.U. after   12 cycles
 SCF Done:  E(RwB97XD) =  -5529.71718515     A.U. after   11 cycles
 SCF Done:  E(RwB97XD) =  -5529.71718640     A.U. after   10 cycles
 SCF Done:  E(RwB97XD) =  -5529.71718636     A.U. after    8 cycles
 SCF Done:  E(RwB97XD) =  -5529.71687787     A.U. after   13 cycles
 SCF Done:  E(RwB97XD) =  -5529.71717971     A.U. after   11 cycles
 SCF Done:  E(RwB97XD) =  -5529.71718424     A.U. after   11 cycles
 SCF Done:  E(RwB97XD) =  -5529.71718640     A.U. after   10 cycles
 SCF Done:  E(RwB97XD) =  -5529.71718634     A.U. after    9 cycles
 SCF Done:  E(RwB97XD) =  -5529.71717477     A.U. after   12 cycles
 SCF Done:  E(RwB97XD) =  -5529.71718650     A.U. after   12 cycles
 SCF Done:  E(RwB97XD) =  -5529.71718643     A.U. after    8 cycles
 SCF Done:  E(RwB97XD) =  -5529.71718643     A.U. after    8 cycles
 SCF Done:  E(RwB97XD) =  -5529.71718642     A.U. after    7 cycles
 Optimization completed.
    -- Stationary point found.
 Normal termination of Gaussian 16 at Tue Feb 16 23:14:20 2021.

 ---------------------------------------------------------------------
 #N Geom=AllCheck Guess=TCheck SCRF=Check GenChk RwB97XD/def2TZVP Freq
 ---------------------------------------------------------------------

 Structure from the checkpoint file:  "/beegfs/scratch/user/q/tla25/Gau-17489.chk"
 ------------------------
 1_iteration/TS-547-1.out
 ------------------------
 Charge =  0 Multiplicity = 1

                         Standard orientation:
 ---------------------------------------------------------------------
 Center     Atomic      Atomic             Coordinates (Angstroms)
 Number     Number       Type             X           Y           Z
 ---------------------------------------------------------------------
      1          6           0        0.727743    0.220412   -0.026104
      2          6           0        0.788274    1.565292    0.524268
      3          8           0       -0.202254    2.082862    1.058716
      4          6           0       -0.447600   -0.485895   -0.188768
      5          6           0       -2.495124   -1.332472    1.911264
      6          1           0       -2.437345   -2.386057    1.643196
      7          1           0       -2.771621   -1.252228    2.964552
      8          1           0       -3.266451   -0.856031    1.308374
      9          7           0       -1.214695   -0.691115    1.639063
     10          1           0       -1.203406    0.296928    1.880016
     11          1           0       -0.452056   -1.144269    2.128341
     12          6           0       -0.479157   -1.911490   -0.650723
     13          1           0        0.167536   -2.528195   -0.027935
     14          1           0       -1.491919   -2.304906   -0.612757
     15          1           0       -0.125625   -1.970815   -1.681146
     16         35           0       -1.960511    0.491060   -0.972695
     17         35           0        2.379164   -0.740578   -0.200808
     18          7           0        1.957440    2.243292    0.457552
     19          1           0        2.774915    1.867609    0.014841
     20          1           0        2.007123    3.147848    0.889463
 ---------------------------------------------------------------------

 SCF Done:  E(RwB97XD) =  -5529.71718642     A.U. after    1 cycles

 The electronic state is 1-A.
 Alpha  occ. eigenvalues -- -483.12942-483.12604 -62.67776 -62.67448 -56.46886
 Alpha  occ. eigenvalues --  -56.46565 -56.46544 -56.46533 -56.46214 -56.46196
 Alpha  occ. eigenvalues --  -19.20932 -14.47205 -14.44482 -10.40103 -10.39152
 Alpha  occ. eigenvalues --  -10.31433 -10.31234 -10.29337  -8.81890  -8.81551
 Alpha  occ. eigenvalues --   -6.64018  -6.63698  -6.62927  -6.62890  -6.62589
 Alpha  occ. eigenvalues --   -6.62529  -2.74409  -2.74097  -2.74081  -2.74066
 Alpha  occ. eigenvalues --   -2.73777  -2.73730  -2.73185  -2.73184  -2.72832
 Alpha  occ. eigenvalues --   -2.72832  -1.13583  -1.02930  -1.00271  -0.95224
 Alpha  occ. eigenvalues --   -0.89294  -0.83683  -0.80553  -0.78209  -0.71428
 Alpha  occ. eigenvalues --   -0.64719  -0.62335  -0.60498  -0.57834  -0.55670
 Alpha  occ. eigenvalues --   -0.55448  -0.53005  -0.51834  -0.50153  -0.49631
 Alpha  occ. eigenvalues --   -0.48252  -0.47433  -0.44156  -0.42772  -0.39753
 Alpha  occ. eigenvalues --   -0.38632  -0.37788  -0.36695  -0.35104  -0.33933
 Alpha  occ. eigenvalues --   -0.27571
 Alpha virt. eigenvalues --    0.02152   0.05756   0.09469   0.10307   0.13297
 Alpha virt. eigenvalues --    0.14351   0.15333   0.15872   0.17474   0.17832
 Alpha virt. eigenvalues --    0.18914   0.19479   0.19983   0.20641   0.21900

 Mulliken charges:
               1
     1  C   -0.229672
     2  C    0.353199
     3  O   -0.538020
     4  C    0.146519
     5  C   -0.280600
     6  H    0.153281
     7  H    0.150498
     8  H    0.146005
     9  N   -0.362616
    10  H    0.276945
    11  H    0.275474
    12  C   -0.379396
    13  H    0.153150
    14  H    0.158993
    15  H    0.164967
    16  Br  -0.125357
    17  Br  -0.145305
    18  N   -0.465095
    19  H    0.274495
    20  H    0.272537
 Sum of Mulliken charges =   0.00000

 Dipole moment (field-independent basis, Debye):
    X=             -0.0156    Y=             -4.2515    Z=              2.9593  Tot=              5.1801
 Quadrupole moment (field-independent basis, Debye-Ang):
   XX=            -79.6668   YY=            -82.1749   ZZ=            -81.4246
   XY=             12.6689   XZ=             -4.2472   YZ=             -4.8441

  Exact polarizability: 217.038   7.392 169.224  -8.427  -3.886 146.663
 Approx polarizability: 167.158  -1.420 139.032  -6.203  -1.859 124.684

 ******    1 imaginary frequencies (negative Signs) ******

                      1                      2                      3
                      A                      A                      A
 Frequencies --   -357.3211                58.1510                72.8964
 Red. masses --      6.4216                 4.7549                 5.5953
 Frc consts  --      0.4831                 0.0095                 0.0175
 IR Inten    --    686.8412                 3.5311                 1.0270

                      4                      5                      6
                      A                      A                      A
 Frequencies --     91.5274               101.8196               119.1420
 Red. masses --      2.6750                 1.1772                 3.3606
 Frc consts  --      0.0132                 0.0072                 0.0281
 IR Inten    --      0.9510               288.6684                39.5282

                      7                      8                      9
                      A                      A                      A
 Frequencies --    149.1305               158.8620               199.7679
 Red. masses --      8.9419                 2.0582                 3.1863
 Frc consts  --      0.1172                 0.0306                 0.0749
 IR Inten    --      2.9678                 5.0654                 3.5994

                     10                     11                     12
                      A                      A                      A
 Frequencies --    208.4090               235.6999               261.4883
 Red. masses --      3.1696                 4.8292                 2.9901
 Frc consts  --      0.0811                 0.1581                 0.1205
 IR Inten    --     37.1754                 0.6796                 5.5657

                     13                     14                     15
                      A                      A                      A
 Frequencies --    270.4981               327.1669               343.2279
 Red. masses --      1.4310                 1.8423                 3.2539
 Frc consts  --      0.0617                 0.1162                 0.2259
 IR Inten    --      0.8635                 5.0257                22.6727

                     16                     17                     18
                      A                      A                      A
 Frequencies --    392.6695               442.3427               470.0135
 Red. masses --      7.0474                 3.9132                 3.7071
 Frc consts  --      0.6402                 0.4511                 0.4825
 IR Inten    --     25.0939                79.4562                72.6267

                     19                     20                     21
                      A                      A                      A
 Frequencies --    551.9321               601.9372               677.8142
 Red. masses --      1.1463                 2.5036                 1.7505
 Frc consts  --      0.2057                 0.5345                 0.4738
 IR Inten    --     10.2876                68.2026                 3.6919

                     22                     23                     24
                      A                      A                      A
 Frequencies --    710.8625               779.9377               989.3589
 Red. masses --      2.7932                 9.0707                 2.5186
 Frc consts  --      0.8316                 3.2510                 1.4525
 IR Inten    --    160.9752                64.7772                19.8176

                     25                     26                     27
                      A                      A                      A
 Frequencies --   1015.0444              1022.1816              1041.4048
 Red. masses --      1.0895                 1.5192                 1.5981
 Frc consts  --      0.6614                 0.9352                 1.0212
 IR Inten    --     32.6738               226.1785                16.3465

                     28                     29                     30
                      A                      A                      A
 Frequencies --   1072.2892              1082.6906              1097.2054
 Red. masses --      1.8602                 2.8533                 2.1462
 Frc consts  --      1.2602                 1.9706                 1.5223
 IR Inten    --     50.9891                59.9575                56.9601

                     31                     32                     33
                      A                      A                      A
 Frequencies --   1132.8961              1203.5834              1341.7777
 Red. masses --      2.6467                 1.3954                 1.3199
 Frc consts  --      2.0014                 1.1910                 1.4001
 IR Inten    --     55.5767                27.7737                 4.1310

                     34                     35                     36
                      A                      A                      A
 Frequencies --   1390.5992              1415.6547              1447.6378
 Red. masses --      4.1060                 1.2710                 1.9182
 Frc consts  --      4.6782                 1.5008                 2.3684
 IR Inten    --    591.1715                40.3852               404.8222

                     37                     38                     39
                      A                      A                      A
 Frequencies --   1466.8101              1479.3246              1487.6806
 Red. masses --      1.3908                 1.1127                 1.2217
 Frc consts  --      1.7631                 1.4346                 1.5931
 IR Inten    --    204.6172                19.9325                99.8424

                     40                     41                     42
                      A                      A                      A
 Frequencies --   1493.6028              1507.7567              1603.7151
 Red. masses --      1.0953                 1.0417                 1.4852
 Frc consts  --      1.4397                 1.3953                 2.2505
 IR Inten    --     48.3070                19.4359               258.0312

                     43                     44                     45
                      A                      A                      A
 Frequencies --   1653.5945              1660.8741              3058.9289
 Red. masses --      1.3568                 2.4057                 1.0377
 Frc consts  --      2.1858                 3.9099                 5.7206
 IR Inten    --    289.3926               378.3869                64.2195

                     46                     47                     48
                      A                      A                      A
 Frequencies --   3072.3706              3135.5550              3148.6812
 Red. masses --      1.0367                 1.0992                 1.1018
 Frc consts  --      5.7659                 6.3675                 6.4360
 IR Inten    --      5.5584                17.3518                 7.9291

                     49                     50                     51
                      A                      A                      A
 Frequencies --   3165.6678              3171.6747              3487.1739
 Red. masses --      1.1052                 1.1028                 1.0556
 Frc consts  --      6.5255                 6.5363                 7.5632
 IR Inten    --     16.7865                 9.6673                54.7641

                     52                     53                     54
                      A                      A                      A
 Frequencies --   3589.2424              3634.5287              3763.4059
 Red. masses --      1.0925                 1.0452                 1.1058
 Frc consts  --      8.2923                 8.1349                 9.2280
 IR Inten    --     59.2641               106.5315               100.1844

 - Thermochemistry -
 -------------------
 Temperature   298.150 Kelvin.  Pressure   1.00000 Atm.
 Atom     1 has atomic number  6 and mass  12.00000

 Molecular mass:   271.91599 amu.
 Principal axes and moments of inertia in atomic units:
                           1         2         3
     Eigenvalues --  1975.119704199.060694661.03896
           X            0.99579   0.08167  -0.04158
           Y           -0.08250   0.99641  -0.01876
           Z            0.03990   0.02211   0.99896
 This molecule is an asymmetric top.
 Rotational symmetry number  1.
 Warning -- assumption of classical behavior for rotation
           may cause significant error
 Rotational temperatures (Kelvin)      0.04385     0.02063     0.01858
 Rotational constants (GHZ):           0.91374     0.42980     0.38720
    1 imaginary frequencies ignored.
 Zero-point vibrational energy     407078.5 (Joules/Mol)
                                   97.29409 (Kcal/Mol)
 Warning -- explicit consideration of  19 degrees of freedom as
           vibrations may cause significant error
 Vibrational temperatures:     83.67   104.88   131.69   146.50   171.42
          (Kelvin)            214.57   228.57   287.42   299.85   339.12
                              376.22   389.19   470.72   493.83   564.96
                              636.43   676.24   794.11   866.05   975.22
                             1022.77  1122.16  1423.47  1460.42  1470.69
                             1498.35  1542.78  1557.75  1578.63  1629.98
                             1731.69  1930.52  2000.76  2036.81  2082.83
                             2110.41  2128.42  2140.44  2148.96  2169.33
                             2307.39  2379.15  2389.63  4401.12  4420.46
                             4511.36  4530.25  4554.69  4563.33  5017.27
                             5164.12  5229.28  5414.70

 Zero-point correction=                           0.155048 (Hartree/Particle)
 Thermal correction to Energy=                    0.168058
 Thermal correction to Enthalpy=                  0.169002
 Thermal correction to Gibbs Free Energy=         0.114051
 Sum of electronic and zero-point Energies=          -5529.562138
 Sum of electronic and thermal Energies=             -5529.549129
 Sum of electronic and thermal Enthalpies=           -5529.548184
 Sum of electronic and thermal Free Energies=        -5529.603135

                     E (Thermal)             CV                S
                      KCal/Mol        Cal/Mol-Kelvin    Cal/Mol-Kelvin
 Total                  105.458             44.113            115.653
 Electronic               0.000              0.000              0.000
 Translational            0.889              2.981             42.700
 Rotational               0.889              2.981             32.025
 Vibrational            103.680             38.151             40.928
 Vibration     1          0.596              1.974              4.519
 Vibration     2          0.599              1.967              4.074
 Vibration     3          0.602              1.955              3.627
 Vibration     4          0.604              1.948              3.419
 Vibration     5          0.609              1.933              3.114
 Vibration     6          0.618              1.904              2.683
 Vibration     7          0.621              1.893              2.563
 Vibration     8          0.638              1.840              2.135
 Vibration     9          0.642              1.828              2.058
 Vibration    10          0.655              1.786              1.835
 Vibration    11          0.669              1.743              1.652
 Vibration    12          0.674              1.728              1.593
 Vibration    13          0.711              1.621              1.274
 Vibration    14          0.722              1.589              1.197
 Vibration    15          0.760              1.486              0.990
 Vibration    16          0.802              1.378              0.819
 Vibration    17          0.827              1.317              0.738
 Vibration    18          0.907              1.135              0.540
 Vibration    19          0.960              1.028              0.446

 Optimization completed.
    -- Stationary point found.
 Normal termination of Gaussian 16 at Tue Feb 16 23:33:43 2021.
