 Gaussian 16, Revision A.03,
 Gaussian 16:  ES64L-G16RevA.03 25-Dec-2016

 ----------------------------------------------------------------------
 # wB97XD def2tzvp, opt=(ts, noeigen, calcfc, maxcycles=70, maxstep=8),
  freq=noraman, scrf=(iefpcm, solvent=water)
 ----------------------------------------------------------------------

 ------------------------
 1_iteration/TS-500-1.out
 ------------------------
 Symbolic Z-matrix:
 Charge =  0 Multiplicity = 1

 SCF Done:  E(RwB97XD) =  -520.288904320     A.U. after   15 cycles
 SCF Done:  E(RwB97XD) =  -520.292978998     A.U. after   13 cycles
 SCF Done:  E(RwB97XD) =  -520.295012280     A.U. after   13 cycles
 SCF Done:  E(RwB97XD) =  -520.295126544     A.U. after   12 cycles
 SCF Done:  E(RwB97XD) =  -520.295136459     A.U. after   10 cycles
 SCF Done:  E(RwB97XD) =  -520.295135984     A.U. after   10 cycles
 SCF Done:  E(RwB97XD) =  -520.295075318     A.U. after   11 cycles
 SCF Done:  E(RwB97XD) =  -520.295022534     A.U. after   11 cycles
 SCF Done:  E(RwB97XD) =  -520.295117915     A.U. after   11 cycles
 SCF Done:  E(RwB97XD) =  -520.295053325     A.U. after   11 cycles
 SCF Done:  E(RwB97XD) =  -520.295029496     A.U. after   12 cycles
 SCF Done:  E(RwB97XD) =  -520.295133771     A.U. after   11 cycles
 SCF Done:  E(RwB97XD) =  -520.295137899     A.U. after   10 cycles
 SCF Done:  E(RwB97XD) =  -520.295138251     A.U. after    9 cycles
 SCF Done:  E(RwB97XD) =  -520.295099283     A.U. after   11 cycles
 SCF Done:  E(RwB97XD) =  -520.295138432     A.U. after   11 cycles
 SCF Done:  E(RwB97XD) =  -520.295138471     A.U. after    8 cycles
 Optimization completed.
    -- Stationary point found.
 Normal termination of Gaussian 16 at Sun Feb 14 00:28:46 2021.

 ---------------------------------------------------------------------
 #N Geom=AllCheck Guess=TCheck SCRF=Check GenChk RwB97XD/def2TZVP Freq
 ---------------------------------------------------------------------

 Structure from the checkpoint file:  "/beegfs/scratch/user/q/tla25/Gau-95011.chk"
 ------------------------
 1_iteration/TS-500-1.out
 ------------------------
 Charge =  0 Multiplicity = 1

                         Standard orientation:
 ---------------------------------------------------------------------
 Center     Atomic      Atomic             Coordinates (Angstroms)
 Number     Number       Type             X           Y           Z
 ---------------------------------------------------------------------
      1          6           0        0.298514    0.810937    0.072075
      2          6           0        1.298067   -0.189132    0.154187
      3          8           0        1.135547   -1.388306    0.424589
      4          6           0       -1.035632    0.478619    0.442867
      5          6           0       -2.863183   -1.492831   -0.874117
      6          1           0       -2.952857   -2.183275   -1.714854
      7          1           0       -2.989247   -2.052130    0.050481
      8          1           0       -3.653463   -0.747225   -0.946572
      9          7           0       -1.563649   -0.825609   -0.862509
     10          1           0       -0.797702   -1.476732   -0.707972
     11          1           0       -1.386951   -0.339097   -1.732843
     12          6           0       -2.086517    1.540515    0.223615
     13          1           0       -1.918173    2.356996    0.929537
     14          1           0       -2.051528    1.957900   -0.781741
     15          1           0       -3.084871    1.145145    0.408487
     16          6           0       -1.305623   -0.317900    1.700894
     17          1           0       -1.177613    0.358877    2.549245
     18          1           0       -2.332973   -0.682641    1.731381
     19          1           0       -0.616573   -1.148646    1.812250
     20          6           0        0.578719    2.104099   -0.660733
     21          1           0        0.149530    2.971299   -0.152083
     22          1           0        1.650090    2.273975   -0.734939
     23          1           0        0.182599    2.112507   -1.685026
     24          8           0        2.558250    0.250056   -0.152218
     25          6           0        3.581910   -0.727707   -0.165958
     26          1           0        4.491387   -0.203692   -0.453439
     27          1           0        3.716056   -1.179924    0.818006
     28          1           0        3.369920   -1.517677   -0.888299
 ---------------------------------------------------------------------

 SCF Done:  E(RwB97XD) =  -520.295138471     A.U. after    1 cycles

 The electronic state is 1-A.
 Alpha  occ. eigenvalues --  -19.26692 -19.19648 -14.47175 -10.37700 -10.34161
 Alpha  occ. eigenvalues --  -10.31952 -10.31433 -10.27572 -10.26741 -10.26112
 Alpha  occ. eigenvalues --  -10.24250  -1.17718  -1.07966  -1.02869  -0.91750
 Alpha  occ. eigenvalues --   -0.84565  -0.79919  -0.79022  -0.78433  -0.73418
 Alpha  occ. eigenvalues --   -0.66516  -0.62345  -0.61156  -0.58027  -0.55993
 Alpha  occ. eigenvalues --   -0.55048  -0.54822  -0.54439  -0.51761  -0.50852
 Alpha  occ. eigenvalues --   -0.49816  -0.48066  -0.47538  -0.46960  -0.45998
 Alpha  occ. eigenvalues --   -0.45514  -0.44937  -0.43265  -0.43018  -0.41278
 Alpha  occ. eigenvalues --   -0.39730  -0.36813  -0.33571  -0.25193
 Alpha virt. eigenvalues --    0.07098   0.09882   0.13128   0.13470   0.14347
 Alpha virt. eigenvalues --    0.15336   0.16766   0.17294   0.17394   0.17963
 Alpha virt. eigenvalues --    0.18513   0.19058   0.19934   0.20073   0.20898

 Mulliken charges:
               1
     1  C   -0.298706
     2  C    0.464672
     3  O   -0.583359
     4  C    0.187706
     5  C   -0.293312
     6  H    0.150936
     7  H    0.153618
     8  H    0.150130
     9  N   -0.329141
    10  H    0.271593
    11  H    0.274525
    12  C   -0.396540
    13  H    0.153803
    14  H    0.146149
    15  H    0.140189
    16  C   -0.401854
    17  H    0.132512
    18  H    0.125948
    19  H    0.154082
    20  C   -0.415862
    21  H    0.117391
    22  H    0.133116
    23  H    0.111905
    24  O   -0.326930
    25  C   -0.185352
    26  H    0.130573
    27  H    0.116622
    28  H    0.115586
 Sum of Mulliken charges =  -0.00000

 Dipole moment (field-independent basis, Debye):
    X=             -5.8907    Y=             -0.4015    Z=             -2.9380  Tot=              6.5949
 Quadrupole moment (field-independent basis, Debye-Ang):
   XX=            -57.8633   YY=            -71.9409   ZZ=            -66.1400
   XY=              2.3724   XZ=              1.8893   YZ=              3.8416

  Exact polarizability: 192.829   2.115 155.632   3.560   1.011 133.925
 Approx polarizability: 140.249   1.880 128.719   2.111   0.498 112.518

 ******    1 imaginary frequencies (negative Signs) ******

                      1                      2                      3
                      A                      A                      A
 Frequencies --   -376.8705                50.9621                68.6630
 Red. masses --      5.8083                 3.1315                 2.8931
 Frc consts  --      0.4861                 0.0048                 0.0080
 IR Inten    --    730.8657                 9.7074                 5.0159

                      4                      5                      6
                      A                      A                      A
 Frequencies --     97.4524               118.7085               135.2270
 Red. masses --      2.1544                 2.5527                 2.5043
 Frc consts  --      0.0121                 0.0212                 0.0270
 IR Inten    --     13.7152                14.5394                 3.9335

                      7                      8                      9
                      A                      A                      A
 Frequencies --    157.6580               174.5261               181.7748
 Red. masses --      1.1628                 1.1086                 1.2324
 Frc consts  --      0.0170                 0.0199                 0.0240
 IR Inten    --      0.0437                 0.1086                 1.0822

                     10                     11                     12
                      A                      A                      A
 Frequencies --    209.3794               233.5491               262.6792
 Red. masses --      3.1058                 1.6772                 1.7933
 Frc consts  --      0.0802                 0.0539                 0.0729
 IR Inten    --      5.8195                20.0576                 1.9104

                     13                     14                     15
                      A                      A                      A
 Frequencies --    286.1724               296.6167               314.3062
 Red. masses --      1.0973                 2.0319                 3.9522
 Frc consts  --      0.0529                 0.1053                 0.2300
 IR Inten    --      0.1273                 7.4585                39.4795

                     16                     17                     18
                      A                      A                      A
 Frequencies --    366.8683               375.7456               392.8470
 Red. masses --      2.5745                 2.8860                 3.5434
 Frc consts  --      0.2042                 0.2401                 0.3222
 IR Inten    --     11.1010                 3.3579                21.2832

                     19                     20                     21
                      A                      A                      A
 Frequencies --    427.7336               486.4244               544.2611
 Red. masses --      3.0209                 3.2375                 3.3871
 Frc consts  --      0.3256                 0.4513                 0.5911
 IR Inten    --      9.3394                87.0811                 7.5557

                     22                     23                     24
                      A                      A                      A
 Frequencies --    625.3730               686.7040               768.6049
 Red. masses --      3.9179                 1.2803                 4.2558
 Frc consts  --      0.9028                 0.3557                 1.4813
 IR Inten    --     36.0642                20.6491                83.7459

                     25                     26                     27
                      A                      A                      A
 Frequencies --    797.5643               878.5762               951.1822
 Red. masses --      9.5256                 3.3803                 1.3568
 Frc consts  --      3.5700                 1.5373                 0.7233
 IR Inten    --     54.1916                 9.9519                 0.1344

                     28                     29                     30
                      A                      A                      A
 Frequencies --   1006.4712              1014.0140              1032.9383
 Red. masses --      1.7298                 1.2560                 1.2493
 Frc consts  --      1.0324                 0.7609                 0.7853
 IR Inten    --     38.6705                 8.5276                84.8808

                     31                     32                     33
                      A                      A                      A
 Frequencies --   1049.7708              1052.2256              1059.4750
 Red. masses --      1.6526                 1.3878                 2.1614
 Frc consts  --      1.0730                 0.9053                 1.4295
 IR Inten    --     65.3045                34.1642               307.2553

                     34                     35                     36
                      A                      A                      A
 Frequencies --   1067.6599              1111.9001              1152.3202
 Red. masses --      1.3945                 1.9497                 4.8059
 Frc consts  --      0.9366                 1.4202                 3.7598
 IR Inten    --     27.6108                21.5541               530.9889

                     37                     38                     39
                      A                      A                      A
 Frequencies --   1179.4298              1181.9673              1213.0081
 Red. masses --      2.7330                 1.2957                 1.5285
 Frc consts  --      2.2399                 1.0665                 1.3251
 IR Inten    --     14.9537                 3.0107               125.0882

                     40                     41                     42
                      A                      A                      A
 Frequencies --   1217.5863              1264.5573              1348.7098
 Red. masses --      1.4225                 3.3635                 1.3465
 Frc consts  --      1.2425                 3.1690                 1.4431
 IR Inten    --     45.5551               176.2922                12.1703

                     43                     44                     45
                      A                      A                      A
 Frequencies --   1356.7542              1397.9820              1407.8978
 Red. masses --      3.5108                 1.8445                 1.4739
 Frc consts  --      3.8077                 2.1239                 1.7214
 IR Inten    --    178.0118               387.7205                34.7254

                     46                     47                     48
                      A                      A                      A
 Frequencies --   1424.9924              1429.1046              1463.1711
 Red. masses --      1.5064                 1.2284                 1.2360
 Frc consts  --      1.8023                 1.4781                 1.5590
 IR Inten    --    197.6338                25.9639                29.6002

                     49                     50                     51
                      A                      A                      A
 Frequencies --   1477.2441              1478.1411              1481.8072
 Red. masses --      1.0977                 1.0757                 1.0785
 Frc consts  --      1.4113                 1.3848                 1.3953
 IR Inten    --     47.1457                19.7225                15.1186

                     52                     53                     54
                      A                      A                      A
 Frequencies --   1484.8289              1491.4045              1497.3726
 Red. masses --      1.0962                 1.0597                 1.0561
 Frc consts  --      1.4239                 1.3888                 1.3952
 IR Inten    --     33.2992                12.5584                25.3694

                     55                     56                     57
                      A                      A                      A
 Frequencies --   1500.5805              1502.2013              1509.2172
 Red. masses --      1.0579                 1.0859                 1.0572
 Frc consts  --      1.4035                 1.4437                 1.4188
 IR Inten    --     25.4914                44.0396                 8.8433

                     58                     59                     60
                      A                      A                      A
 Frequencies --   1511.1159              1515.8940              1640.5276
 Red. masses --      1.0380                 1.1853                 8.0096
 Frc consts  --      1.3964                 1.6047                12.7007
 IR Inten    --     20.3002                83.7488               675.5547

                     61                     62                     63
                      A                      A                      A
 Frequencies --   1652.3900              2993.5254              3051.8587
 Red. masses --      1.1014                 1.0579                 1.0309
 Frc consts  --      1.7719                 5.5856                 5.6571
 IR Inten    --     46.0094               121.7884                82.7287

                     64                     65                     66
                      A                      A                      A
 Frequencies --   3059.4086              3061.8057              3063.6103
 Red. masses --      1.0393                 1.0374                 1.0411
 Frc consts  --      5.7316                 5.7302                 5.7573
 IR Inten    --     17.7869                34.1781                61.0677

                     67                     68                     69
                      A                      A                      A
 Frequencies --   3066.4455              3121.9857              3122.1377
 Red. masses --      1.0820                 1.1005                 1.1051
 Frc consts  --      5.9942                 6.3196                 6.3466
 IR Inten    --     75.0719                20.6799                58.6812

                     70                     71                     72
                      A                      A                      A
 Frequencies --   3132.0816              3137.6387              3152.6086
 Red. masses --      1.0992                 1.1010                 1.1034
 Frc consts  --      6.3530                 6.3865                 6.4616
 IR Inten    --     39.5952                17.0067                41.4864

                     73                     74                     75
                      A                      A                      A
 Frequencies --   3154.3228              3159.7019              3167.1813
 Red. masses --      1.1046                 1.0926                 1.1052
 Frc consts  --      6.4752                 6.4268                 6.5318
 IR Inten    --     35.8804                13.1970                17.4257

                     76                     77                     78
                      A                      A                      A
 Frequencies --   3192.1567              3478.9843              3591.1267
 Red. masses --      1.0992                 1.0587                 1.0902
 Frc consts  --      6.5994                 7.5493                 8.2833
 IR Inten    --      4.3318                50.2960                48.4598

 - Thermochemistry -
 -------------------
 Temperature   298.150 Kelvin.  Pressure   1.00000 Atm.
 Atom     1 has atomic number  6 and mass  12.00000

 Molecular mass:   159.12593 amu.
 Principal axes and moments of inertia in atomic units:
                           1         2         3
     Eigenvalues --  1102.747582581.135973016.46199
           X            0.99999   0.00198  -0.00317
           Y           -0.00199   0.99999  -0.00383
           Z            0.00316   0.00384   0.99999
 This molecule is an asymmetric top.
 Rotational symmetry number  1.
 Warning -- assumption of classical behavior for rotation
           may cause significant error
 Rotational temperatures (Kelvin)      0.07854     0.03356     0.02871
 Rotational constants (GHZ):           1.63659     0.69920     0.59830
    1 imaginary frequencies ignored.
 Zero-point vibrational energy     650593.9 (Joules/Mol)
                                  155.49567 (Kcal/Mol)
 Warning -- explicit consideration of  20 degrees of freedom as
           vibrations may cause significant error
 Vibrational temperatures:     73.32    98.79   140.21   170.80   194.56
          (Kelvin)            226.83   251.10   261.53   301.25   336.03
                              377.94   411.74   426.77   452.22   527.84
                              540.61   565.22   615.41   699.86   783.07
                              899.77   988.01  1105.85  1147.52  1264.08
                             1368.54  1448.09  1458.94  1486.17  1510.39
                             1513.92  1524.35  1536.12  1599.78  1657.93
                             1696.94  1700.59  1745.25  1751.84  1819.42
                             1940.49  1952.07  2011.38  2025.65  2050.25
                             2056.16  2105.18  2125.42  2126.72  2131.99
                             2136.34  2145.80  2154.39  2159.00  2161.33
                             2171.43  2174.16  2181.03  2360.35  2377.42
                             4307.02  4390.94  4401.81  4405.26  4407.85
                             4411.93  4491.84  4492.06  4506.37  4514.36
                             4535.90  4538.37  4546.11  4556.87  4592.80
                             5005.48  5166.83

 Zero-point correction=                           0.247798 (Hartree/Particle)
 Thermal correction to Energy=                    0.261677
 Thermal correction to Enthalpy=                  0.262621
 Thermal correction to Gibbs Free Energy=         0.207971
 Sum of electronic and zero-point Energies=           -520.047340
 Sum of electronic and thermal Energies=              -520.033462
 Sum of electronic and thermal Enthalpies=            -520.032517
 Sum of electronic and thermal Free Energies=         -520.087167

                     E (Thermal)             CV                S
                      KCal/Mol        Cal/Mol-Kelvin    Cal/Mol-Kelvin
 Total                  164.205             49.787            115.021
 Electronic               0.000              0.000              0.000
 Translational            0.889              2.981             41.103
 Rotational               0.889              2.981             30.530
 Vibrational            162.427             43.825             43.388
 Vibration     1          0.595              1.977              4.780
 Vibration     2          0.598              1.969              4.191
 Vibration     3          0.603              1.951              3.505
 Vibration     4          0.609              1.934              3.121
 Vibration     5          0.613              1.918              2.870
 Vibration     6          0.621              1.894              2.578
 Vibration     7          0.627              1.874              2.386
 Vibration     8          0.630              1.865              2.310
 Vibration     9          0.642              1.826              2.049
 Vibration    10          0.654              1.790              1.851
 Vibration    11          0.670              1.741              1.644
 Vibration    12          0.684              1.699              1.496
 Vibration    13          0.690              1.680              1.436
 Vibration    14          0.702              1.646              1.340
 Vibration    15          0.740              1.540              1.093
 Vibration    16          0.747              1.522              1.056
 Vibration    17          0.760              1.485              0.989
 Vibration    18          0.789              1.410              0.866
 Vibration    19          0.842              1.280              0.693
 Vibration    20          0.899              1.152              0.556

 Optimization completed.
    -- Stationary point found.
 Normal termination of Gaussian 16 at Sun Feb 14 00:58:47 2021.
