 Gaussian 16, Revision A.03,
 Gaussian 16:  ES64L-G16RevA.03 25-Dec-2016

 ----------------------------------------------------------------------
 # wB97XD def2tzvp, opt=(ts, noeigen, calcfc, maxcycles=70, maxstep=8),
  freq=noraman, scrf=(iefpcm, solvent=water)
 ----------------------------------------------------------------------

 ------------------------
 1_iteration/TS-580-1.out
 ------------------------
 Symbolic Z-matrix:
 Charge =  0 Multiplicity = 1

 SCF Done:  E(RwB97XD) =  -940.586514724     A.U. after   14 cycles
 SCF Done:  E(RwB97XD) =  -940.587944637     A.U. after   13 cycles
 SCF Done:  E(RwB97XD) =  -940.588071512     A.U. after   12 cycles
 SCF Done:  E(RwB97XD) =  -940.588169619     A.U. after   12 cycles
 SCF Done:  E(RwB97XD) =  -940.588360588     A.U. after   12 cycles
 SCF Done:  E(RwB97XD) =  -940.588582837     A.U. after   12 cycles
 SCF Done:  E(RwB97XD) =  -940.588636953     A.U. after   11 cycles
 SCF Done:  E(RwB97XD) =  -940.588638193     A.U. after   10 cycles
 SCF Done:  E(RwB97XD) =  -940.588641430     A.U. after   10 cycles
 SCF Done:  E(RwB97XD) =  -940.588641571     A.U. after    7 cycles
 Optimization completed.
    -- Stationary point found.
 Normal termination of Gaussian 16 at Tue Feb 16 15:31:48 2021.

 ---------------------------------------------------------------------
 #N Geom=AllCheck Guess=TCheck SCRF=Check GenChk RwB97XD/def2TZVP Freq
 ---------------------------------------------------------------------

 Structure from the checkpoint file:  "/beegfs/scratch/user/q/tla25/Gau-19787.chk"
 ------------------------
 1_iteration/TS-580-1.out
 ------------------------
 Charge =  0 Multiplicity = 1

                         Standard orientation:
 ---------------------------------------------------------------------
 Center     Atomic      Atomic             Coordinates (Angstroms)
 Number     Number       Type             X           Y           Z
 ---------------------------------------------------------------------
      1          6           0       -0.009479    0.930086   -0.437328
      2          6           0       -1.388422    0.594750   -0.226054
      3          8           0       -2.344221    1.343591   -0.381703
      4          6           0        1.025597    0.003043   -0.400466
      5          6           0        1.192499    0.279076    2.410901
      6          1           0        0.934265   -0.105368    3.397717
      7          1           0        2.188936    0.714596    2.446965
      8          1           0        0.473375    1.051887    2.132779
      9          7           0        1.149233   -0.760521    1.394360
     10          1           0        1.918032   -1.416097    1.466108
     11          1           0        0.274553   -1.272263    1.424760
     12          6           0        2.439678    0.472367   -0.591953
     13          1           0        2.660151    1.300366    0.081065
     14          1           0        3.149688   -0.332147   -0.415089
     15          1           0        2.568875    0.825105   -1.616469
     16         17           0        0.818487   -1.600801   -1.217097
     17          6           0        0.318214    2.399038   -0.589710
     18          1           0        0.932349    2.602389   -1.470522
     19          1           0       -0.610458    2.955455   -0.700921
     20          1           0        0.847018    2.812913    0.275185
     21          8           0       -1.581787   -0.667591    0.242563
     22          6           0       -2.927591   -1.079592    0.430213
     23          1           0       -2.877453   -2.110873    0.771383
     24          1           0       -3.425283   -0.464364    1.180245
     25          1           0       -3.487875   -1.024927   -0.503568
 ---------------------------------------------------------------------

 SCF Done:  E(RwB97XD) =  -940.588641571     A.U. after    1 cycles

 The electronic state is 1-A.
 Alpha  occ. eigenvalues -- -101.68669 -19.28092 -19.20963 -14.47749 -10.39458
 Alpha  occ. eigenvalues --  -10.39272 -10.32578 -10.31450 -10.28827 -10.26884
 Alpha  occ. eigenvalues --  -10.26129  -9.57277  -7.31889  -7.31078  -7.31034
 Alpha  occ. eigenvalues --   -1.19308  -1.09570  -1.03708  -0.96512  -0.88588
 Alpha  occ. eigenvalues --   -0.83915  -0.80932  -0.78578  -0.75005  -0.68126
 Alpha  occ. eigenvalues --   -0.63289  -0.62566  -0.58862  -0.57713  -0.56407
 Alpha  occ. eigenvalues --   -0.56035  -0.54564  -0.52017  -0.51072  -0.49831
 Alpha  occ. eigenvalues --   -0.48901  -0.48118  -0.47403  -0.46345  -0.45279
 Alpha  occ. eigenvalues --   -0.44427  -0.43674  -0.43306  -0.39202  -0.37889
 Alpha  occ. eigenvalues --   -0.37212  -0.35116  -0.26992
 Alpha virt. eigenvalues --    0.05054   0.08453   0.10189   0.12954   0.13383
 Alpha virt. eigenvalues --    0.15170   0.16121   0.16787   0.16964   0.17825
 Alpha virt. eigenvalues --    0.18097   0.19956   0.20144   0.20505   0.21175

 Mulliken charges:
               1
     1  C   -0.335089
     2  C    0.429489
     3  O   -0.513895
     4  C    0.249360
     5  C   -0.306325
     6  H    0.155790
     7  H    0.159181
     8  H    0.153008
     9  N   -0.341724
    10  H    0.282200
    11  H    0.278926
    12  C   -0.386786
    13  H    0.147096
    14  H    0.151175
    15  H    0.161847
    16  Cl  -0.154621
    17  C   -0.386115
    18  H    0.123464
    19  H    0.134457
    20  H    0.126439
    21  O   -0.320288
    22  C   -0.197163
    23  H    0.136452
    24  H    0.125502
    25  H    0.127618
 Sum of Mulliken charges =  -0.00000

 Dipole moment (field-independent basis, Debye):
    X=              5.8772    Y=             -3.1306    Z=              5.6972  Tot=              8.7636
 Quadrupole moment (field-independent basis, Debye-Ang):
   XX=            -72.0235   YY=            -77.2786   ZZ=            -68.9682
   XY=              9.6992   XZ=              1.4982   YZ=             -3.2421

  Exact polarizability: 176.990 -12.148 162.690   6.647  -4.286 145.124
 Approx polarizability: 138.379 -10.354 134.989   4.968  -2.847 120.071

 ******    1 imaginary frequencies (negative Signs) ******

                      1                      2                      3
                      A                      A                      A
 Frequencies --   -383.8094                60.1002                73.6757
 Red. masses --      5.5249                 3.0571                 3.1622
 Frc consts  --      0.4795                 0.0065                 0.0101
 IR Inten    --    693.2024                 0.5603                 8.5476

                      4                      5                      6
                      A                      A                      A
 Frequencies --     81.2140               117.0127               131.8103
 Red. masses --      2.7990                 3.3457                 1.0936
 Frc consts  --      0.0109                 0.0270                 0.0112
 IR Inten    --      7.2113                10.4567                 1.5644

                      7                      8                      9
                      A                      A                      A
 Frequencies --    142.1401               161.3695               186.4016
 Red. masses --      2.6559                 1.3808                 1.9055
 Frc consts  --      0.0316                 0.0212                 0.0390
 IR Inten    --      6.3166                 3.2470                 3.6911

                     10                     11                     12
                      A                      A                      A
 Frequencies --    201.9528               206.8929               262.8122
 Red. masses --      1.4717                 3.7535                 2.0606
 Frc consts  --      0.0354                 0.0947                 0.0839
 IR Inten    --      0.1276                11.3420                 1.8564

                     13                     14                     15
                      A                      A                      A
 Frequencies --    287.8617               293.7449               320.4432
 Red. masses --      1.6083                 3.3785                 2.3306
 Frc consts  --      0.0785                 0.1718                 0.1410
 IR Inten    --      3.1181                26.7406                17.5364

                     16                     17                     18
                      A                      A                      A
 Frequencies --    349.8871               362.7105               371.5965
 Red. masses --      3.3239                 3.0535                 4.6261
 Frc consts  --      0.2397                 0.2367                 0.3764
 IR Inten    --      8.0801                 8.8592                23.0263

                     19                     20                     21
                      A                      A                      A
 Frequencies --    448.2043               531.0566               557.8856
 Red. masses --      5.1287                 4.9440                 3.4604
 Frc consts  --      0.6070                 0.8215                 0.6345
 IR Inten    --     66.4795                22.1782                72.9286

                     22                     23                     24
                      A                      A                      A
 Frequencies --    666.3735               714.6218               796.0656
 Red. masses --      1.5951                 2.9351                 8.7418
 Frc consts  --      0.4173                 0.8831                 3.2640
 IR Inten    --     17.1267               106.6054                56.1488

                     25                     26                     27
                      A                      A                      A
 Frequencies --    825.2120               954.6515               988.2634
 Red. masses --      4.3023                 2.1212                 1.0920
 Frc consts  --      1.7262                 1.1390                 0.6284
 IR Inten    --     66.1059               130.4222                54.7159

                     28                     29                     30
                      A                      A                      A
 Frequencies --   1028.2311              1042.4777              1048.3332
 Red. masses --      1.1402                 2.7828                 1.4209
 Frc consts  --      0.7102                 1.7818                 0.9200
 IR Inten    --     67.0677                20.9309                63.1726

                     31                     32                     33
                      A                      A                      A
 Frequencies --   1073.5820              1089.2453              1100.3748
 Red. masses --      1.4772                 3.1862                 2.0398
 Frc consts  --      1.0031                 2.2273                 1.4552
 IR Inten    --     18.4051                 9.3798               111.8507

                     34                     35                     36
                      A                      A                      A
 Frequencies --   1126.8926              1172.6830              1181.4153
 Red. masses --      2.8407                 7.3141                 1.2962
 Frc consts  --      2.1254                 5.9261                 1.0659
 IR Inten    --     84.4772               351.5897                 6.8126

                     37                     38                     39
                      A                      A                      A
 Frequencies --   1205.1603              1215.6738              1342.9490
 Red. masses --      1.4103                 1.5467                 1.4190
 Frc consts  --      1.2068                 1.3468                 1.5078
 IR Inten    --     23.9516                87.0485                48.9751

                     40                     41                     42
                      A                      A                      A
 Frequencies --   1356.2831              1399.3600              1417.9951
 Red. masses --      3.5001                 1.3453                 1.2493
 Frc consts  --      3.7935                 1.5522                 1.4801
 IR Inten    --    346.5029                17.1205                68.2080

                     43                     44                     45
                      A                      A                      A
 Frequencies --   1445.8641              1464.3350              1476.7283
 Red. masses --      1.4525                 1.4929                 1.1386
 Frc consts  --      1.7891                 1.8861                 1.4629
 IR Inten    --    253.2589               200.1382                28.4676

                     46                     47                     48
                      A                      A                      A
 Frequencies --   1481.4266              1483.2805              1487.9751
 Red. masses --      1.0455                 1.0897                 1.1667
 Frc consts  --      1.3519                 1.4126                 1.5219
 IR Inten    --     12.5984                38.6562                25.2531

                     49                     50                     51
                      A                      A                      A
 Frequencies --   1493.4851              1496.7053              1499.9593
 Red. masses --      1.0827                 1.0552                 1.0633
 Frc consts  --      1.4228                 1.3926                 1.4095
 IR Inten    --     19.9951                 5.1391                45.7604

                     52                     53                     54
                      A                      A                      A
 Frequencies --   1505.0027              1507.2066              1633.0326
 Red. masses --      1.1214                 1.2570                 1.1006
 Frc consts  --      1.4965                 1.6823                 1.7293
 IR Inten    --    123.4241               192.5506               100.6676

                     55                     56                     57
                      A                      A                      A
 Frequencies --   1687.3495              3025.7355              3060.2729
 Red. masses --      9.9625                 1.0437                 1.0339
 Frc consts  --     16.7119                 5.6298                 5.7048
 IR Inten    --   1050.1254                96.5901                45.7183

                     58                     59                     60
                      A                      A                      A
 Frequencies --   3061.6994              3070.1055              3077.3043
 Red. masses --      1.0308                 1.0369                 1.0979
 Frc consts  --      5.6932                 5.7581                 6.1256
 IR Inten    --     58.4841                10.7552                55.6270

                     61                     62                     63
                      A                      A                      A
 Frequencies --   3133.3191              3136.6138              3143.6200
 Red. masses --      1.1038                 1.1065                 1.1009
 Frc consts  --      6.3848                 6.4141                 6.4098
 IR Inten    --     12.0635                39.9659                10.9559

                     64                     65                     66
                      A                      A                      A
 Frequencies --   3146.5238              3162.7381              3168.3390
 Red. masses --      1.0965                 1.1048                 1.1038
 Frc consts  --      6.3959                 6.5111                 6.5284
 IR Inten    --     10.9032                18.3660                 5.3130

                     67                     68                     69
                      A                      A                      A
 Frequencies --   3168.3898              3515.9572              3608.3579
 Red. masses --      1.1052                 1.0514                 1.0967
 Frc consts  --      6.5370                 7.6579                 8.4128
 IR Inten    --     33.4683                39.4101                78.4646

 - Thermochemistry -
 -------------------
 Temperature   298.150 Kelvin.  Pressure   1.00000 Atm.
 Atom     1 has atomic number  6 and mass  12.00000

 Molecular mass:   179.07131 amu.
 Principal axes and moments of inertia in atomic units:
                           1         2         3
     Eigenvalues --  1682.797132384.816942639.35636
           X            0.99513   0.09853   0.00361
           Y           -0.09721   0.98660  -0.13107
           Z           -0.01648   0.13008   0.99137
 This molecule is an asymmetric top.
 Rotational symmetry number  1.
 Warning -- assumption of classical behavior for rotation
           may cause significant error
 Rotational temperatures (Kelvin)      0.05147     0.03632     0.03282
 Rotational constants (GHZ):           1.07247     0.75676     0.68378
    1 imaginary frequencies ignored.
 Zero-point vibrational energy     550497.2 (Joules/Mol)
                                  131.57199 (Kcal/Mol)
 Warning -- explicit consideration of  20 degrees of freedom as
           vibrations may cause significant error
 Vibrational temperatures:     86.47   106.00   116.85   168.36   189.65
          (Kelvin)            204.51   232.17   268.19   290.57   297.67
                              378.13   414.17   422.63   461.05   503.41
                              521.86   534.64   644.87   764.07   802.67
                              958.76  1028.18  1145.36  1187.30  1373.53
                             1421.89  1479.40  1499.89  1508.32  1544.65
                             1567.18  1583.19  1621.35  1687.23  1699.79
                             1733.96  1749.08  1932.20  1951.39  2013.37
                             2040.18  2080.28  2106.85  2124.68  2131.44
                             2134.11  2140.86  2148.79  2153.43  2158.11
                             2165.36  2168.53  2349.57  2427.72  4353.36
                             4403.05  4405.10  4417.20  4427.55  4508.15
                             4512.89  4522.97  4527.15  4550.47  4558.53
                             4558.61  5058.68  5191.62

 Zero-point correction=                           0.209673 (Hartree/Particle)
 Thermal correction to Energy=                    0.223480
 Thermal correction to Enthalpy=                  0.224424
 Thermal correction to Gibbs Free Energy=         0.169461
 Sum of electronic and zero-point Energies=           -940.378968
 Sum of electronic and thermal Energies=              -940.365162
 Sum of electronic and thermal Enthalpies=            -940.364217
 Sum of electronic and thermal Free Energies=         -940.419180

                     E (Thermal)             CV                S
                      KCal/Mol        Cal/Mol-Kelvin    Cal/Mol-Kelvin
 Total                  140.236             48.297            115.679
 Electronic               0.000              0.000              0.000
 Translational            0.889              2.981             41.455
 Rotational               0.889              2.981             30.739
 Vibrational            138.458             42.335             43.486
 Vibration     1          0.597              1.973              4.454
 Vibration     2          0.599              1.966              4.053
 Vibration     3          0.600              1.962              3.861
 Vibration     4          0.608              1.935              3.149
 Vibration     5          0.612              1.922              2.919
 Vibration     6          0.616              1.911              2.775
 Vibration     7          0.622              1.890              2.534
 Vibration     8          0.632              1.858              2.263
 Vibration     9          0.639              1.837              2.115
 Vibration    10          0.641              1.830              2.071
 Vibration    11          0.670              1.741              1.643
 Vibration    12          0.685              1.696              1.487
 Vibration    13          0.689              1.685              1.452
 Vibration    14          0.706              1.634              1.308
 Vibration    15          0.727              1.575              1.167
 Vibration    16          0.737              1.549              1.110
 Vibration    17          0.743              1.531              1.073
 Vibration    18          0.807              1.365              0.801
 Vibration    19          0.886              1.181              0.585
 Vibration    20          0.913              1.122              0.528

 Optimization completed.
    -- Stationary point found.
 Normal termination of Gaussian 16 at Tue Feb 16 15:58:59 2021.
