 Gaussian 16, Revision A.03,
 Gaussian 16:  ES64L-G16RevA.03 25-Dec-2016

 ----------------------------------------------------------------------
 # wB97XD def2tzvp, opt=(ts, noeigen, calcfc, maxcycles=70, maxstep=5),
  freq=noraman, scrf=(iefpcm, solvent=water)
 ----------------------------------------------------------------------

 ------------------------
 2_iteration/TS-592-2.out
 ------------------------
 Symbolic Z-matrix:
 Charge =  0 Multiplicity = 1

 SCF Done:  E(RwB97XD) =  -3591.37972619     A.U. after   15 cycles
 SCF Done:  E(RwB97XD) =  -3591.37972623     A.U. after    6 cycles
 Optimization completed.
    -- Stationary point found.
 Normal termination of Gaussian 16 at Wed Feb 17 15:47:07 2021.

 ---------------------------------------------------------------------
 #N Geom=AllCheck Guess=TCheck SCRF=Check GenChk RwB97XD/def2TZVP Freq
 ---------------------------------------------------------------------

 Structure from the checkpoint file:  "/beegfs/scratch/user/q/tla25/Gau-29094.chk"
 ------------------------
 2_iteration/TS-592-2.out
 ------------------------
 Charge =  0 Multiplicity = 1

                         Standard orientation:
 ---------------------------------------------------------------------
 Center     Atomic      Atomic             Coordinates (Angstroms)
 Number     Number       Type             X           Y           Z
 ---------------------------------------------------------------------
      1          6           0       -0.875795   -0.322472   -0.202094
      2          6           0        0.177484   -1.271878    0.026752
      3          8           0       -0.025998   -2.472055    0.201557
      4          6           0       -0.814674    1.001921   -0.641342
      5          6           0       -1.051954    1.835726    2.098781
      6          1           0       -0.617791    2.314724    2.976479
      7          1           0       -2.099690    2.117979    2.019620
      8          1           0       -0.989445    0.752847    2.217201
      9          7           0       -0.353373    2.210919    0.877255
     10          1           0       -0.538731    3.170798    0.610045
     11          1           0        0.650382    2.105482    0.972873
     12          6           0       -2.049776    1.733608   -1.091976
     13          1           0       -2.808772    1.733497   -0.313101
     14          1           0       -1.806214    2.757767   -1.363214
     15          1           0       -2.461103    1.230082   -1.967889
     16         17           0        0.565436    1.469025   -1.660465
     17         35           0       -2.624321   -1.044884    0.120313
     18          6           0        1.606664   -0.808536    0.114378
     19          6           0        2.527913   -1.216831   -0.843672
     20          6           0        3.857849   -0.847542   -0.732450
     21          6           0        4.284114   -0.087857    0.350217
     22          6           0        3.375480    0.289627    1.326780
     23          6           0        2.039757   -0.069975    1.208069
     24          1           0        2.195541   -1.808552   -1.687594
     25          1           0        4.566434   -1.153635   -1.491669
     26          1           0        5.324340    0.198994    0.436130
     27          1           0        3.703974    0.861362    2.185339
     28          1           0        1.339114    0.201435    1.988841
 ---------------------------------------------------------------------

 SCF Done:  E(RwB97XD) =  -3591.37972623     A.U. after    1 cycles

 The electronic state is 1-A.
 Alpha  occ. eigenvalues -- -483.12363-101.70545 -62.67191 -56.46307 -56.45957
 Alpha  occ. eigenvalues --  -56.45947 -19.22287 -14.48487 -10.41751 -10.37382
 Alpha  occ. eigenvalues --  -10.32146 -10.31965 -10.30450 -10.29771 -10.29621
 Alpha  occ. eigenvalues --  -10.29544 -10.29485 -10.29418 -10.29332  -9.59147
 Alpha  occ. eigenvalues --   -8.81300  -7.33800  -7.32930  -7.32877  -6.63443
 Alpha  occ. eigenvalues --   -6.62326  -6.62296  -2.73833  -2.73510  -2.73487
 Alpha  occ. eigenvalues --   -2.72583  -2.72583  -1.13313  -1.04496  -0.98969
 Alpha  occ. eigenvalues --   -0.97089  -0.91582  -0.87111  -0.85693  -0.85099
 Alpha  occ. eigenvalues --   -0.80759  -0.79134  -0.73243  -0.71087  -0.68945
 Alpha  occ. eigenvalues --   -0.63974  -0.63114  -0.60095  -0.58379  -0.57749
 Alpha  occ. eigenvalues --   -0.55826  -0.55285  -0.54672  -0.53402  -0.51565
 Alpha  occ. eigenvalues --   -0.51009  -0.50580  -0.49932  -0.48110  -0.47845
 Alpha  occ. eigenvalues --   -0.46989  -0.45949  -0.44651  -0.44326  -0.43155
 Alpha  occ. eigenvalues --   -0.40757  -0.39526  -0.38738  -0.36822  -0.34825
 Alpha  occ. eigenvalues --   -0.34333  -0.32395  -0.28882
 Alpha virt. eigenvalues --    0.01338   0.04579   0.04658   0.05742   0.09866
 Alpha virt. eigenvalues --    0.10927   0.12985   0.13837   0.14125   0.14691
 Alpha virt. eigenvalues --    0.15967   0.16470   0.17054   0.18116   0.18842

 Mulliken charges:
               1
     1  C   -0.246173
     2  C    0.225491
     3  O   -0.454226
     4  C    0.216837
     5  C   -0.323066
     6  H    0.166519
     7  H    0.166962
     8  H    0.159590
     9  N   -0.350941
    10  H    0.286757
    11  H    0.278478
    12  C   -0.374869
    13  H    0.155071
    14  H    0.155070
    15  H    0.164806
    16  Cl  -0.086909
    17  Br  -0.134028
    18  C    0.176219
    19  C   -0.223483
    20  C   -0.132176
    21  C   -0.153178
    22  C   -0.130383
    23  C   -0.318917
    24  H    0.143056
    25  H    0.145977
    26  H    0.146723
    27  H    0.145486
    28  H    0.195309
 Sum of Mulliken charges =   0.00000

 Dipole moment (field-independent basis, Debye):
    X=              1.2507    Y=             11.3069    Z=              2.1910  Tot=             11.5849
 Quadrupole moment (field-independent basis, Debye-Ang):
   XX=           -100.1633   YY=           -109.1898   ZZ=           -101.1011
   XY=             -6.9527   XZ=             -0.1794   YZ=             10.6247

  Exact polarizability: 278.199  10.961 249.125 -10.488  17.949 213.118
 Approx polarizability: 217.334  11.874 207.626  -9.674  14.351 184.725

 ******    1 imaginary frequencies (negative Signs) ******

                      1                      2                      3
                      A                      A                      A
 Frequencies --   -350.1836                38.3687                54.9296
 Red. masses --      5.6177                 6.1475                 5.5578
 Frc consts  --      0.4059                 0.0053                 0.0099
 IR Inten    --    794.7625                 2.8971                 4.2427

                      4                      5                      6
                      A                      A                      A
 Frequencies --     73.9740                81.8936               100.7101
 Red. masses --      6.8482                 4.0052                 3.4258
 Frc consts  --      0.0221                 0.0158                 0.0205
 IR Inten    --      1.9557                 3.5009                 1.1293

                      7                      8                      9
                      A                      A                      A
 Frequencies --    155.1300               165.1446               186.8630
 Red. masses --      3.0724                 8.9529                 1.3930
 Frc consts  --      0.0436                 0.1439                 0.0287
 IR Inten    --      6.6541                 2.7135                 2.8535

                     10                     11                     12
                      A                      A                      A
 Frequencies --    196.0042               201.6000               226.4346
 Red. masses --      4.2647                 3.3941                 5.1210
 Frc consts  --      0.0965                 0.0813                 0.1547
 IR Inten    --      2.9361                 0.8330                10.7386

                     13                     14                     15
                      A                      A                      A
 Frequencies --    265.6055               271.1398               293.1395
 Red. masses --      4.8186                 2.3866                 2.9294
 Frc consts  --      0.2003                 0.1034                 0.1483
 IR Inten    --      3.3624                 8.8273                 0.8112

                     16                     17                     18
                      A                      A                      A
 Frequencies --    313.5725               331.6855               367.2026
 Red. masses --      2.9926                 1.9949                 4.0275
 Frc consts  --      0.1734                 0.1293                 0.3200
 IR Inten    --     35.5697                 7.1583                 9.2801

                     19                     20                     21
                      A                      A                      A
 Frequencies --    390.5190               422.9696               495.2036
 Red. masses --      3.7189                 2.9878                 4.0381
 Frc consts  --      0.3342                 0.3149                 0.5834
 IR Inten    --      9.6456                 1.8628                39.4840

                     22                     23                     24
                      A                      A                      A
 Frequencies --    527.4204               571.9685               635.6839
 Red. masses --      4.3141                 5.4883                 6.3785
 Frc consts  --      0.7071                 1.0579                 1.5186
 IR Inten    --     75.8986                22.7113                 0.2509

                     25                     26                     27
                      A                      A                      A
 Frequencies --    651.9196               667.8624               728.7783
 Red. masses --      1.4996                 3.9993                 3.7109
 Frc consts  --      0.3755                 1.0510                 1.1612
 IR Inten    --    109.2475                25.7339               190.2087

                     28                     29                     30
                      A                      A                      A
 Frequencies --    736.1659               769.8219               805.7359
 Red. masses --      1.6811                 5.7034                 3.4694
 Frc consts  --      0.5368                 1.9914                 1.3270
 IR Inten    --     24.4324                62.1376                82.0391

                     31                     32                     33
                      A                      A                      A
 Frequencies --    833.3479               886.3868               966.2337
 Red. masses --      4.0836                 1.2561                 1.4169
 Frc consts  --      1.6709                 0.5815                 0.7794
 IR Inten    --     44.2746                 1.4493                19.4456

                     34                     35                     36
                      A                      A                      A
 Frequencies --    997.0790              1017.6618              1023.5005
 Red. masses --      1.1158                 1.5138                 1.2810
 Frc consts  --      0.6536                 0.9237                 0.7906
 IR Inten    --     16.4060                 6.1649                83.7480

                     37                     38                     39
                      A                      A                      A
 Frequencies --   1028.1811              1034.1663              1048.3003
 Red. masses --      2.4269                 1.3954                 2.1343
 Frc consts  --      1.5116                 0.8793                 1.3819
 IR Inten    --      7.5668                 2.7569                40.9563

                     40                     41                     42
                      A                      A                      A
 Frequencies --   1053.0745              1064.8964              1086.1243
 Red. masses --      1.8563                 1.7530                 3.9326
 Frc consts  --      1.2129                 1.1712                 2.7333
 IR Inten    --     75.2281                14.5070                 7.8707

                     43                     44                     45
                      A                      A                      A
 Frequencies --   1105.9036              1112.7389              1169.8179
 Red. masses --      3.1393                 1.6039                 3.1610
 Frc consts  --      2.2621                 1.1701                 2.5487
 IR Inten    --     47.9444                20.0091                20.9416

                     46                     47                     48
                      A                      A                      A
 Frequencies --   1184.8057              1207.4160              1213.4222
 Red. masses --      1.1410                 1.1241                 1.4026
 Frc consts  --      0.9437                 0.9655                 1.2168
 IR Inten    --      0.0759                 1.8763                20.9102

                     49                     50                     51
                      A                      A                      A
 Frequencies --   1318.4293              1332.5806              1341.2180
 Red. masses --      4.1049                 5.7504                 1.3331
 Frc consts  --      4.2040                 6.0163                 1.4129
 IR Inten    --     61.4788               169.1403                 9.2076

                     52                     53                     54
                      A                      A                      A
 Frequencies --   1359.3710              1408.2946              1427.7463
 Red. masses --      1.4775                 2.3060                 1.7032
 Frc consts  --      1.6086                 2.6946                 2.0456
 IR Inten    --      4.1433               752.3680               435.2802

                     55                     56                     57
                      A                      A                      A
 Frequencies --   1462.6464              1479.9710              1489.4417
 Red. masses --      1.2275                 1.0522                 2.0796
 Frc consts  --      1.5472                 1.3579                 2.7182
 IR Inten    --     49.8613                 1.7045                 6.5353

                     58                     59                     60
                      A                      A                      A
 Frequencies --   1491.8171              1495.1468              1506.2447
 Red. masses --      1.1440                 1.0415                 1.0367
 Frc consts  --      1.5001                 1.3718                 1.3858
 IR Inten    --     45.8669                27.8078                18.1226

                     61                     62                     63
                      A                      A                      A
 Frequencies --   1541.5750              1648.4228              1650.7198
 Red. masses --      2.3326                 5.9237                 1.1286
 Frc consts  --      3.2660                 9.4837                 1.8119
 IR Inten    --      6.1714               226.5158                49.4769

                     64                     65                     66
                      A                      A                      A
 Frequencies --   1655.4834              1675.1329              3063.7332
 Red. masses --      8.7574                 5.8837                 1.0337
 Frc consts  --     14.1408                 9.7274                 5.7166
 IR Inten    --    423.6622                 0.0591                28.0380

                     67                     68                     69
                      A                      A                      A
 Frequencies --   3078.9155              3137.0821              3157.5377
 Red. masses --      1.0373                 1.1045                 1.1002
 Frc consts  --      5.7934                 6.4040                 6.4630
 IR Inten    --      4.9781                13.4409                 8.2654

                     70                     71                     72
                      A                      A                      A
 Frequencies --   3164.2184              3180.6426              3192.5833
 Red. masses --      1.1048                 1.1045                 1.0869
 Frc consts  --      6.5171                 6.5834                 6.5270
 IR Inten    --     15.6043                11.3241                 5.0190

                     73                     74                     75
                      A                      A                      A
 Frequencies --   3197.6102              3206.4406              3213.9671
 Red. masses --      1.0875                 1.0912                 1.0952
 Frc consts  --      6.5514                 6.6099                 6.6656
 IR Inten    --      0.3396                 7.2052                33.4965

                     76                     77                     78
                      A                      A                      A
 Frequencies --   3224.0219              3523.7269              3606.3624
 Red. masses --      1.0989                 1.0506                 1.0960
 Frc consts  --      6.7297                 7.6859                 8.3983
 IR Inten    --     17.5660                46.7374                74.1556

 - Thermochemistry -
 -------------------
 Temperature   298.150 Kelvin.  Pressure   1.00000 Atm.
 Atom     1 has atomic number  6 and mass  12.00000

 Molecular mass:   288.98690 amu.
 Principal axes and moments of inertia in atomic units:
                           1         2         3
     Eigenvalues --  2810.143606065.287956917.88124
           X            0.99862  -0.05254   0.00269
           Y            0.05210   0.99481   0.08741
           Z           -0.00726  -0.08715   0.99617
 This molecule is an asymmetric top.
 Rotational symmetry number  1.
 Warning -- assumption of classical behavior for rotation
           may cause significant error
 Rotational temperatures (Kelvin)      0.03082     0.01428     0.01252
 Rotational constants (GHZ):           0.64222     0.29755     0.26088
    1 imaginary frequencies ignored.
 Zero-point vibrational energy     580138.5 (Joules/Mol)
                                  138.65643 (Kcal/Mol)
 Warning -- explicit consideration of  22 degrees of freedom as
           vibrations may cause significant error
 Vibrational temperatures:     55.20    79.03   106.43   117.83   144.90
          (Kelvin)            223.20   237.61   268.85   282.01   290.06
                              325.79   382.15   390.11   421.76   451.16
                              477.22   528.32   561.87   608.56   712.49
                              758.84   822.94   914.61   937.97   960.91
                             1048.55  1059.18  1107.60  1159.27  1199.00
                             1275.31  1390.19  1434.57  1464.19  1472.59
                             1479.32  1487.93  1508.27  1515.14  1532.15
                             1562.69  1591.15  1600.98  1683.11  1704.67
                             1737.20  1745.84  1896.93  1917.29  1929.71
                             1955.83  2026.22  2054.21  2104.42  2129.35
                             2142.97  2146.39  2151.18  2167.15  2217.98
                             2371.71  2375.02  2381.87  2410.14  4408.03
                             4429.87  4513.56  4542.99  4552.60  4576.24
                             4593.42  4600.65  4613.35  4624.18  4638.65
                             5069.86  5188.75

 Zero-point correction=                           0.220963 (Hartree/Particle)
 Thermal correction to Energy=                    0.236377
 Thermal correction to Enthalpy=                  0.237321
 Thermal correction to Gibbs Free Energy=         0.177151
 Sum of electronic and zero-point Energies=          -3591.158763
 Sum of electronic and thermal Energies=             -3591.143350
 Sum of electronic and thermal Enthalpies=           -3591.142405
 Sum of electronic and thermal Free Energies=        -3591.202575

                     E (Thermal)             CV                S
                      KCal/Mol        Cal/Mol-Kelvin    Cal/Mol-Kelvin
 Total                  148.329             56.348            126.637
 Electronic               0.000              0.000              0.000
 Translational            0.889              2.981             42.881
 Rotational               0.889              2.981             33.133
 Vibrational            146.551             50.386             50.623
 Vibration     1          0.594              1.982              5.342
 Vibration     2          0.596              1.976              4.632
 Vibration     3          0.599              1.966              4.045
 Vibration     4          0.600              1.962              3.845
 Vibration     5          0.604              1.949              3.441
 Vibration     6          0.620              1.897              2.608
 Vibration     7          0.624              1.885              2.490
 Vibration     8          0.632              1.858              2.259
 Vibration     9          0.636              1.845              2.170
 Vibration    10          0.638              1.838              2.118
 Vibration    11          0.650              1.801              1.907
 Vibration    12          0.671              1.736              1.625
 Vibration    13          0.675              1.726              1.589
 Vibration    14          0.688              1.687              1.456
 Vibration    15          0.701              1.648              1.343
 Vibration    16          0.714              1.612              1.252
 Vibration    17          0.740              1.540              1.091
 Vibration    18          0.758              1.490              0.998
 Vibration    19          0.785              1.420              0.882
 Vibration    20          0.851              1.261              0.670
 Vibration    21          0.882              1.189              0.593
 Vibration    22          0.928              1.092              0.500

 Optimization completed.
    -- Stationary point found.
 Normal termination of Gaussian 16 at Wed Feb 17 16:48:23 2021.
