 Gaussian 16, Revision A.03,
 Gaussian 16:  ES64L-G16RevA.03 25-Dec-2016

 ----------------------------------------------------------------------
 # wB97XD def2tzvp, opt=(ts, noeigen, calcfc, maxcycles=70, maxstep=5),
  freq=noraman, scrf=(iefpcm, solvent=water)
 ----------------------------------------------------------------------

 ------------------------
 2_iteration/TS-503-2.out
 ------------------------
 Symbolic Z-matrix:
 Charge =  0 Multiplicity = 1

 SCF Done:  E(RwB97XD) =  -692.166727577     A.U. after   14 cycles
 SCF Done:  E(RwB97XD) =  -692.166727594     A.U. after    6 cycles
 Optimization completed.
    -- Stationary point found.
 Normal termination of Gaussian 16 at Wed Feb 17 15:09:32 2021.

 ---------------------------------------------------------------------
 #N Geom=AllCheck Guess=TCheck SCRF=Check GenChk RwB97XD/def2TZVP Freq
 ---------------------------------------------------------------------

 Structure from the checkpoint file:  "/beegfs/scratch/user/q/tla25/Gau-31808.chk"
 ------------------------
 2_iteration/TS-503-2.out
 ------------------------
 Charge =  0 Multiplicity = 1

                         Standard orientation:
 ---------------------------------------------------------------------
 Center     Atomic      Atomic             Coordinates (Angstroms)
 Number     Number       Type             X           Y           Z
 ---------------------------------------------------------------------
      1          6           0       -1.352863    0.953198    0.005916
      2          6           0       -0.200036    0.140849    0.212070
      3          8           0       -0.219625   -1.073119    0.512516
      4          6           0       -2.626497    0.432458    0.366705
      5          6           0       -3.985146   -1.999441   -0.761851
      6          1           0       -3.900473   -2.778910   -1.521804
      7          1           0       -4.032944   -2.473740    0.216306
      8          1           0       -4.907368   -1.444825   -0.929805
      9          7           0       -2.849315   -1.083468   -0.800205
     10          1           0       -1.970667   -1.535128   -0.549076
     11          1           0       -2.736588   -0.662304   -1.713903
     12          6           0       -3.859501    1.232521    0.014654
     13          1           0       -3.873089    2.156019    0.597454
     14          1           0       -3.899927    1.498341   -1.040662
     15          1           0       -4.760143    0.672063    0.264000
     16          6           0       -2.795780   -0.265962    1.700417
     17          1           0       -2.880956    0.512755    2.462760
     18          1           0       -3.714244   -0.853058    1.736801
     19          1           0       -1.947564   -0.898805    1.939302
     20          6           0       -1.205278    2.245343   -0.769493
     21          1           0       -0.680892    3.023367   -0.199181
     22          1           0       -0.657023    2.118419   -1.709540
     23          1           0       -2.169428    2.677434   -1.026057
     24          7           0        1.026462    0.770998    0.000397
     25          6           0        2.312261    0.239672   -0.004756
     26          6           0        2.597928   -1.126712   -0.083057
     27          6           0        3.916301   -1.558668   -0.109977
     28          6           0        4.972386   -0.661111   -0.065437
     29          6           0        4.691210    0.697110    0.005188
     30          6           0        3.382355    1.142548    0.037100
     31          1           0        0.991072    1.772303   -0.075554
     32          1           0        1.786222   -1.834549   -0.116092
     33          1           0        4.115102   -2.622117   -0.169966
     34          1           0        5.996106   -1.011483   -0.086331
     35          1           0        5.497424    1.419661    0.039126
     36          1           0        3.178314    2.205969    0.095881
 ---------------------------------------------------------------------

 SCF Done:  E(RwB97XD) =  -692.166727594     A.U. after    1 cycles

 The electronic state is 1-A.
 Alpha  occ. eigenvalues --  -19.19072 -14.46656 -14.45062 -10.36562 -10.34179
 Alpha  occ. eigenvalues --  -10.33305 -10.31273 -10.28742 -10.28585 -10.28374
 Alpha  occ. eigenvalues --  -10.27846 -10.27715 -10.27640 -10.26876 -10.26678
 Alpha  occ. eigenvalues --  -10.24389  -1.11599  -1.02880  -1.02294  -0.94944
 Alpha  occ. eigenvalues --   -0.91562  -0.85442  -0.84684  -0.82120  -0.79288
 Alpha  occ. eigenvalues --   -0.78447  -0.74684  -0.71757  -0.70690  -0.66198
 Alpha  occ. eigenvalues --   -0.62826  -0.61651  -0.61143  -0.58142  -0.56829
 Alpha  occ. eigenvalues --   -0.55310  -0.54664  -0.53573  -0.52766  -0.51975
 Alpha  occ. eigenvalues --   -0.51009  -0.50520  -0.49647  -0.49402  -0.47927
 Alpha  occ. eigenvalues --   -0.47372  -0.47043  -0.46040  -0.45688  -0.45001
 Alpha  occ. eigenvalues --   -0.44220  -0.43360  -0.42626  -0.42240  -0.39530
 Alpha  occ. eigenvalues --   -0.38479  -0.33546  -0.32443  -0.29509  -0.24663
 Alpha virt. eigenvalues --    0.04940   0.05722   0.08846   0.09791   0.12204
 Alpha virt. eigenvalues --    0.13581   0.13908   0.14879   0.15177   0.16550
 Alpha virt. eigenvalues --    0.16630   0.17601   0.17828   0.17948   0.18675

 Mulliken charges:
               1
     1  C   -0.279115
     2  C    0.421385
     3  O   -0.618407
     4  C    0.214976
     5  C   -0.293785
     6  H    0.149122
     7  H    0.151271
     8  H    0.149242
     9  N   -0.330423
    10  H    0.269278
    11  H    0.269578
    12  C   -0.422541
    13  H    0.157574
    14  H    0.147779
    15  H    0.143395
    16  C   -0.403739
    17  H    0.131555
    18  H    0.123051
    19  H    0.152306
    20  C   -0.454669
    21  H    0.123872
    22  H    0.129411
    23  H    0.132477
    24  N   -0.272486
    25  C    0.291490
    26  C   -0.303176
    27  C   -0.104362
    28  C   -0.206460
    29  C   -0.099595
    30  C   -0.316951
    31  H    0.241486
    32  H    0.152182
    33  H    0.138354
    34  H    0.137836
    35  H    0.140396
    36  H    0.137695
 Sum of Mulliken charges =  -0.00000

 Dipole moment (field-independent basis, Debye):
    X=             -6.8683    Y=              1.1023    Z=             -3.0637  Tot=              7.6010
 Quadrupole moment (field-independent basis, Debye-Ang):
   XX=            -75.5872   YY=            -90.1458   ZZ=            -99.8681
   XY=              8.4907   XZ=              5.5060   YZ=              3.8547

  Exact polarizability: 348.210   3.587 251.892   2.703   3.632 171.837
 Approx polarizability: 240.246   1.594 210.469   1.428   2.478 148.624

 ******    1 imaginary frequencies (negative Signs) ******

                      1                      2                      3
                      A                      A                      A
 Frequencies --   -391.5807                25.5237                37.9739
 Red. masses --      5.8203                 3.8083                 4.2826
 Frc consts  --      0.5258                 0.0015                 0.0036
 IR Inten    --   1013.3258                 2.3155                 3.0469

                      4                      5                      6
                      A                      A                      A
 Frequencies --     58.5805                70.8791               118.1152
 Red. masses --      3.0307                 2.8196                 2.6624
 Frc consts  --      0.0061                 0.0083                 0.0219
 IR Inten    --      4.6339                 6.0846                 2.2559

                      7                      8                      9
                      A                      A                      A
 Frequencies --    124.6600               146.6931               157.0193
 Red. masses --      2.0044                 2.8452                 1.3950
 Frc consts  --      0.0184                 0.0361                 0.0203
 IR Inten    --     19.5823                16.7363                 1.8384

                     10                     11                     12
                      A                      A                      A
 Frequencies --    183.8263               216.4959               242.1960
 Red. masses --      1.1601                 3.5323                 2.5533
 Frc consts  --      0.0231                 0.0975                 0.0882
 IR Inten    --      3.3144                 4.4402                15.5187

                     13                     14                     15
                      A                      A                      A
 Frequencies --    244.5346               265.1465               278.1510
 Red. masses --      2.9804                 2.6241                 1.6306
 Frc consts  --      0.1050                 0.1087                 0.0743
 IR Inten    --     18.7383                13.8327                 1.9311

                     16                     17                     18
                      A                      A                      A
 Frequencies --    296.5810               307.6698               362.7108
 Red. masses --      1.5903                 1.8205                 3.4177
 Frc consts  --      0.0824                 0.1015                 0.2649
 IR Inten    --      6.2546                 4.6278                20.4054

                     19                     20                     21
                      A                      A                      A
 Frequencies --    377.7932               398.7631               425.8718
 Red. masses --      4.3363                 2.7557                 3.0068
 Frc consts  --      0.3647                 0.2582                 0.3213
 IR Inten    --      8.9382                 7.3983                 0.3088

                     22                     23                     24
                      A                      A                      A
 Frequencies --    435.1122               467.2607               508.7234
 Red. masses --      2.8185                 2.9161                 3.5253
 Frc consts  --      0.3144                 0.3751                 0.5375
 IR Inten    --     15.3446                58.4004                26.9376

                     25                     26                     27
                      A                      A                      A
 Frequencies --    527.0392               540.0226               608.0414
 Red. masses --      2.7431                 1.1433                 5.5544
 Frc consts  --      0.4489                 0.1964                 1.2099
 IR Inten    --     36.3573               114.0886                20.0736

                     28                     29                     30
                      A                      A                      A
 Frequencies --    632.3640               642.1967               698.0475
 Red. masses --      5.0604                 4.7214                 1.2514
 Frc consts  --      1.1922                 1.1472                 0.3593
 IR Inten    --     11.4207                61.3123                19.0375

                     31                     32                     33
                      A                      A                      A
 Frequencies --    718.6049               774.8877               779.6502
 Red. masses --      1.9182                 4.7585                 2.0961
 Frc consts  --      0.5836                 1.6834                 0.7507
 IR Inten    --     60.2759               145.5986                46.7424

                     34                     35                     36
                      A                      A                      A
 Frequencies --    792.9352               859.1530               874.1160
 Red. masses --      4.3846                 1.2699                 4.9417
 Frc consts  --      1.6242                 0.5523                 2.2246
 IR Inten    --     13.0527                 0.6552                11.8041

                     37                     38                     39
                      A                      A                      A
 Frequencies --    926.9664               934.6326               954.4551
 Red. masses --      1.5844                 2.6664                 1.3599
 Frc consts  --      0.8021                 1.3723                 0.7299
 IR Inten    --     12.2190                33.2349                 0.2196

                     40                     41                     42
                      A                      A                      A
 Frequencies --    997.7309              1012.3590              1013.4699
 Red. masses --      1.3340                 1.2782                 1.6727
 Frc consts  --      0.7824                 0.7718                 1.0123
 IR Inten    --      0.1072                 1.8960                84.0899

                     43                     44                     45
                      A                      A                      A
 Frequencies --   1016.6340              1019.1437              1033.7068
 Red. masses --      1.2290                 4.0078                 1.1746
 Frc consts  --      0.7484                 2.4526                 0.7395
 IR Inten    --      2.8488                 1.0521               115.8999

                     46                     47                     48
                      A                      A                      A
 Frequencies --   1055.2700              1059.3879              1061.7145
 Red. masses --      1.9618                 1.4777                 1.6766
 Frc consts  --      1.2871                 0.9771                 1.1135
 IR Inten    --     61.0427               110.3948                83.6206

                     49                     50                     51
                      A                      A                      A
 Frequencies --   1064.2398              1109.9429              1111.6214
 Red. masses --      1.5019                 1.8381                 1.9615
 Frc consts  --      1.0022                 1.3342                 1.4281
 IR Inten    --    240.7682               116.4173                 8.4650

                     52                     53                     54
                      A                      A                      A
 Frequencies --   1127.1822              1180.5024              1182.1672
 Red. masses --      1.8973                 1.1169                 2.8871
 Frc consts  --      1.4203                 0.9170                 2.3772
 IR Inten    --    153.5934                 5.1608                24.5627

                     55                     56                     57
                      A                      A                      A
 Frequencies --   1207.0330              1214.1549              1255.2217
 Red. masses --      1.1415                 1.3870                 2.6976
 Frc consts  --      0.9799                 1.2047                 2.5042
 IR Inten    --     29.2943                51.9773               323.5981

                     58                     59                     60
                      A                      A                      A
 Frequencies --   1277.6546              1334.9145              1345.0370
 Red. masses --      2.9187                 3.2145                 4.2540
 Frc consts  --      2.8071                 3.3749                 4.5344
 IR Inten    --    194.3191                35.5414               879.9552

                     61                     62                     63
                      A                      A                      A
 Frequencies --   1348.0606              1359.4184              1400.4837
 Red. masses --      1.4675                 1.6744                 1.5693
 Frc consts  --      1.5713                 1.8231                 1.8135
 IR Inten    --     23.7098                 1.4810               197.5413

                     64                     65                     66
                      A                      A                      A
 Frequencies --   1408.7665              1425.3792              1427.8634
 Red. masses --      1.5099                 1.5156                 1.2363
 Frc consts  --      1.7655                 1.8142                 1.4851
 IR Inten    --     73.2120               239.4020                 1.7197

                     67                     68                     69
                      A                      A                      A
 Frequencies --   1464.6062              1468.4326              1477.9754
 Red. masses --      1.3016                 1.7165                 1.1073
 Frc consts  --      1.6450                 2.1807                 1.4251
 IR Inten    --     15.0665               422.3968                26.4616

                     70                     71                     72
                      A                      A                      A
 Frequencies --   1488.7315              1492.8605              1495.4100
 Red. masses --      1.0617                 1.0463                 1.0769
 Frc consts  --      1.3864                 1.3738                 1.4188
 IR Inten    --     14.2786                 7.9279                48.7059

                     73                     74                     75
                      A                      A                      A
 Frequencies --   1504.5114              1508.4292              1514.4838
 Red. masses --      1.0623                 1.1530                 1.0455
 Frc consts  --      1.4167                 1.5457                 1.4129
 IR Inten    --    107.0258                43.8546                18.0123

                     76                     77                     78
                      A                      A                      A
 Frequencies --   1523.7092              1545.8857              1553.2463
 Red. masses --      1.1491                 2.4029                 2.0696
 Frc consts  --      1.5719                 3.3834                 2.9418
 IR Inten    --    281.0344               200.9283               226.1882

                     79                     80                     81
                      A                      A                      A
 Frequencies --   1634.9229              1658.5458              1660.1609
 Red. masses --      4.9169                 2.8292                 1.2231
 Frc consts  --      7.7434                 4.5853                 1.9861
 IR Inten    --    518.0365               138.4641                17.5454

                     82                     83                     84
                      A                      A                      A
 Frequencies --   1673.6017              2994.7739              3038.7097
 Red. masses --      5.9422                 1.0521                 1.0939
 Frc consts  --      9.8062                 5.5592                 5.9510
 IR Inten    --    210.6049               123.9840                66.5808

                     85                     86                     87
                      A                      A                      A
 Frequencies --   3057.2936              3058.9617              3063.1554
 Red. masses --      1.0404                 1.0389                 1.0385
 Frc consts  --      5.7297                 5.7278                 5.7408
 IR Inten    --     36.1658                59.3560                38.1321

                     88                     89                     90
                      A                      A                      A
 Frequencies --   3119.2183              3133.1589              3134.2781
 Red. masses --      1.0984                 1.1000                 1.0998
 Frc consts  --      6.2965                 6.3625                 6.3655
 IR Inten    --     35.7211                25.9606                30.6166

                     91                     92                     93
                      A                      A                      A
 Frequencies --   3148.2803              3159.3055              3164.8587
 Red. masses --      1.1024                 1.0905                 1.1048
 Frc consts  --      6.4376                 6.4130                 6.5199
 IR Inten    --     42.6088                29.9657                19.4887

                     94                     95                     96
                      A                      A                      A
 Frequencies --   3183.2456              3192.9526              3199.5213
 Red. masses --      1.0876                 1.0882                 1.0974
 Frc consts  --      6.4933                 6.5366                 6.6188
 IR Inten    --     16.5406                 3.5257                 6.7821

                     97                     98                     99
                      A                      A                      A
 Frequencies --   3202.8006              3219.1460              3276.4219
 Red. masses --      1.0930                 1.0978                 1.0912
 Frc consts  --      6.6058                 6.7026                 6.9020
 IR Inten    --     33.9864                25.7952                 2.3967

                    100                    101                    102
                      A                      A                      A
 Frequencies --   3446.2486              3587.9958              3660.9433
 Red. masses --      1.0622                 1.0871                 1.0761
 Frc consts  --      7.4329                 8.2454                 8.4971
 IR Inten    --     97.8898                49.0025                49.9602

 - Thermochemistry -
 -------------------
 Temperature   298.150 Kelvin.  Pressure   1.00000 Atm.
 Atom     1 has atomic number  6 and mass  12.00000

 Molecular mass:   220.15756 amu.
 Principal axes and moments of inertia in atomic units:
                           1         2         3
     Eigenvalues --  1485.082317429.499238275.63053
           X            0.99999   0.00345   0.00066
           Y           -0.00345   0.99998  -0.00473
           Z           -0.00067   0.00473   0.99999
 This molecule is an asymmetric top.
 Rotational symmetry number  1.
 Warning -- assumption of classical behavior for rotation
           may cause significant error
 Rotational temperatures (Kelvin)      0.05832     0.01166     0.01047
 Rotational constants (GHZ):           1.21525     0.24292     0.21808
    1 imaginary frequencies ignored.
 Zero-point vibrational energy     824043.0 (Joules/Mol)
                                  196.95101 (Kcal/Mol)
 Warning -- explicit consideration of  26 degrees of freedom as
           vibrations may cause significant error
 Vibrational temperatures:     36.72    54.64    84.28   101.98   169.94
          (Kelvin)            179.36   211.06   225.92   264.49   311.49
                              348.47   351.83   381.49   400.20   426.71
                              442.67   521.86   543.56   573.73   612.73
                              626.03   672.28   731.94   758.29   776.97
                              874.84   909.83   923.98  1004.33  1033.91
                             1114.89  1121.74  1140.86  1236.13  1257.66
                             1333.70  1344.73  1373.25  1435.51  1456.56
                             1458.16  1462.71  1466.32  1487.27  1518.30
                             1524.22  1527.57  1531.20  1596.96  1599.38
                             1621.76  1698.48  1700.87  1736.65  1746.90
                             1805.98  1838.26  1920.64  1935.21  1939.56
                             1955.90  2014.98  2026.90  2050.80  2054.38
                             2107.24  2112.75  2126.48  2141.95  2147.89
                             2151.56  2164.66  2170.29  2179.00  2192.28
                             2224.18  2234.78  2352.29  2386.28  2388.60
                             2407.94  4308.81  4372.03  4398.76  4401.16
                             4407.20  4487.86  4507.92  4509.53  4529.67
                             4545.54  4553.53  4579.98  4593.95  4603.40
                             4608.12  4631.63  4714.04  4958.38  5162.33
                             5267.28

 Zero-point correction=                           0.313861 (Hartree/Particle)
 Thermal correction to Energy=                    0.330794
 Thermal correction to Enthalpy=                  0.331738
 Thermal correction to Gibbs Free Energy=         0.268805
 Sum of electronic and zero-point Energies=           -691.852866
 Sum of electronic and thermal Energies=              -691.835934
 Sum of electronic and thermal Enthalpies=            -691.834990
 Sum of electronic and thermal Free Energies=         -691.897923

                     E (Thermal)             CV                S
                      KCal/Mol        Cal/Mol-Kelvin    Cal/Mol-Kelvin
 Total                  207.576             64.197            132.454
 Electronic               0.000              0.000              0.000
 Translational            0.889              2.981             42.070
 Rotational               0.889              2.981             32.879
 Vibrational            205.799             58.235             57.504
 Vibration     1          0.593              1.985              6.150
 Vibration     2          0.594              1.982              5.362
 Vibration     3          0.596              1.974              4.504
 Vibration     4          0.598              1.968              4.129
 Vibration     5          0.608              1.934              3.131
 Vibration     6          0.610              1.928              3.027
 Vibration     7          0.617              1.906              2.715
 Vibration     8          0.621              1.895              2.585
 Vibration     9          0.631              1.862              2.289
 Vibration    10          0.645              1.816              1.988
 Vibration    11          0.658              1.776              1.787
 Vibration    12          0.660              1.772              1.770
 Vibration    13          0.671              1.737              1.628
 Vibration    14          0.679              1.714              1.545
 Vibration    15          0.690              1.680              1.436
 Vibration    16          0.698              1.659              1.375
 Vibration    17          0.737              1.549              1.110
 Vibration    18          0.748              1.517              1.048
 Vibration    19          0.765              1.473              0.967
 Vibration    20          0.788              1.414              0.872
 Vibration    21          0.796              1.394              0.842
 Vibration    22          0.825              1.323              0.745
 Vibration    23          0.864              1.231              0.637
 Vibration    24          0.882              1.190              0.594
 Vibration    25          0.895              1.162              0.565
 Vibration    26          0.967              1.015              0.436

 Optimization completed.
    -- Stationary point found.
 Normal termination of Gaussian 16 at Wed Feb 17 16:24:49 2021.
