 Gaussian 16, Revision A.03,
 Gaussian 16:  ES64L-G16RevA.03 25-Dec-2016

 ----------------------------------------------------------------------
 # wB97XD def2tzvp, opt=(ts, noeigen, calcfc, maxcycles=70, maxstep=1),
  freq=noraman, scrf=(iefpcm, solvent=water)
 ----------------------------------------------------------------------

 ------------------------
 0_iteration/TS-577-0.out
 ------------------------
 Symbolic Z-matrix:
 Charge =  0 Multiplicity = 1

 SCF Done:  E(RwB97XD) =  -826.029371350     A.U. after   15 cycles
 SCF Done:  E(RwB97XD) =  -826.029348627     A.U. after   10 cycles
 SCF Done:  E(RwB97XD) =  -826.029330812     A.U. after   10 cycles
 SCF Done:  E(RwB97XD) =  -826.029317720     A.U. after   10 cycles
 SCF Done:  E(RwB97XD) =  -826.029309424     A.U. after   10 cycles
 SCF Done:  E(RwB97XD) =  -826.029306477     A.U. after   10 cycles
 SCF Done:  E(RwB97XD) =  -826.029309495     A.U. after   10 cycles
 SCF Done:  E(RwB97XD) =  -826.029316200     A.U. after   10 cycles
 SCF Done:  E(RwB97XD) =  -826.029325225     A.U. after   10 cycles
 SCF Done:  E(RwB97XD) =  -826.029337490     A.U. after   10 cycles
 SCF Done:  E(RwB97XD) =  -826.030347883     A.U. after   10 cycles
 SCF Done:  E(RwB97XD) =  -826.030387548     A.U. after   10 cycles
 SCF Done:  E(RwB97XD) =  -826.030421602     A.U. after   10 cycles
 SCF Done:  E(RwB97XD) =  -826.030443153     A.U. after   10 cycles
 SCF Done:  E(RwB97XD) =  -826.030457180     A.U. after   10 cycles
 SCF Done:  E(RwB97XD) =  -826.030458228     A.U. after   10 cycles
 SCF Done:  E(RwB97XD) =  -826.030459734     A.U. after   10 cycles
 SCF Done:  E(RwB97XD) =  -826.030460288     A.U. after    9 cycles
 SCF Done:  E(RwB97XD) =  -826.030460245     A.U. after    6 cycles
 Optimization completed.
    -- Stationary point found.
 Normal termination of Gaussian 16 at Mon Feb 15 19:56:43 2021.

 ---------------------------------------------------------------------
 #N Geom=AllCheck Guess=TCheck SCRF=Check GenChk RwB97XD/def2TZVP Freq
 ---------------------------------------------------------------------

 Structure from the checkpoint file:  "/beegfs/scratch/user/q/tla25/Gau-67749.chk"
 ------------------------
 0_iteration/TS-577-0.out
 ------------------------
 Charge =  0 Multiplicity = 1

                         Standard orientation:
 ---------------------------------------------------------------------
 Center     Atomic      Atomic             Coordinates (Angstroms)
 Number     Number       Type             X           Y           Z
 ---------------------------------------------------------------------
      1          6           0        0.883671   -0.003664    0.378282
      2          6           0        1.696090   -0.632808   -0.590311
      3          8           0        2.921449   -0.504062   -0.723745
      4          6           0       -0.507651   -0.190118    0.398598
      5          6           0       -0.775220    2.204520   -1.060300
      6          1           0       -1.099870    2.714183   -1.966761
      7          1           0       -1.092846    2.779788   -0.193437
      8          1           0        0.311508    2.124778   -1.064488
      9          7           0       -1.330081    0.856983   -0.981427
     10          1           0       -2.337664    0.866354   -0.861865
     11          1           0       -1.125200    0.331888   -1.824381
     12          6           0       -1.300650    0.290348    1.581754
     13          1           0       -1.097998    1.343054    1.775394
     14          1           0       -2.368913    0.151752    1.431236
     15          1           0       -0.998598   -0.277934    2.462631
     16         17           0       -1.152274   -1.767383   -0.178504
     17          6           0        1.516330    0.955041    1.357794
     18          1           0        1.151669    1.981307    1.255856
     19          1           0        1.354659    0.657659    2.397495
     20          1           0        2.590746    0.969442    1.178300
     21          1           0        1.164716   -1.303073   -1.290364
 ---------------------------------------------------------------------

 SCF Done:  E(RwB97XD) =  -826.030460245     A.U. after    1 cycles

 The electronic state is 1-A.
 Alpha  occ. eigenvalues -- -101.69721 -19.20022 -14.49241 -10.40396 -10.33556
 Alpha  occ. eigenvalues --  -10.31989 -10.29196 -10.26877 -10.25981  -9.58327
 Alpha  occ. eigenvalues --   -7.32945  -7.32122  -7.32084  -1.10013  -1.04979
 Alpha  occ. eigenvalues --   -0.97498  -0.88611  -0.83404  -0.79319  -0.76836
 Alpha  occ. eigenvalues --   -0.69252  -0.63712  -0.60463  -0.58452  -0.58250
 Alpha  occ. eigenvalues --   -0.55616  -0.52981  -0.50428  -0.49812  -0.48705
 Alpha  occ. eigenvalues --   -0.48011  -0.47784  -0.45540  -0.45178  -0.44441
 Alpha  occ. eigenvalues --   -0.43676  -0.40012  -0.38929  -0.31586  -0.27289
 Alpha virt. eigenvalues --    0.04314   0.08188   0.09922   0.12732   0.14241
 Alpha virt. eigenvalues --    0.15241   0.15727   0.16704   0.17694   0.18738
 Alpha virt. eigenvalues --    0.19483   0.19970   0.21202   0.21402   0.22288

 Mulliken charges:
               1
     1  C   -0.152910
     2  C    0.075511
     3  O   -0.535024
     4  C    0.158580
     5  C   -0.321612
     6  H    0.164143
     7  H    0.164910
     8  H    0.165356
     9  N   -0.307168
    10  H    0.289886
    11  H    0.283415
    12  C   -0.376113
    13  H    0.148354
    14  H    0.153291
    15  H    0.164047
    16  Cl  -0.127235
    17  C   -0.406144
    18  H    0.133367
    19  H    0.128331
    20  H    0.129141
    21  H    0.067874
 Sum of Mulliken charges =  -0.00000

 Dipole moment (field-independent basis, Debye):
    X=            -10.2126    Y=              5.2079    Z=             -0.4551  Tot=             11.4729
 Quadrupole moment (field-independent basis, Debye-Ang):
   XX=            -78.6919   YY=            -60.3688   ZZ=            -57.2403
   XY=             -1.8675   XZ=              7.2705   YZ=             -2.7847

  Exact polarizability: 172.977  -5.913 132.766  -1.633   5.554 122.146
 Approx polarizability: 137.083  -2.922 109.214  -1.873   4.438 102.924

 ******    1 imaginary frequencies (negative Signs) ******

                      1                      2                      3
                      A                      A                      A
 Frequencies --   -371.8360                63.8887                88.4744
 Red. masses --      5.7134                 2.8202                 2.8981
 Frc consts  --      0.4654                 0.0068                 0.0134
 IR Inten    --    886.0035                 1.6983                11.9861

                      4                      5                      6
                      A                      A                      A
 Frequencies --    140.6247               151.0957               191.3619
 Red. masses --      2.0703                 1.1930                 5.9723
 Frc consts  --      0.0241                 0.0160                 0.1289
 IR Inten    --      1.5803                 1.1883                 6.8995

                      7                      8                      9
                      A                      A                      A
 Frequencies --    209.9001               232.1767               259.4887
 Red. masses --      1.6774                 1.8008                 1.3922
 Frc consts  --      0.0435                 0.0572                 0.0552
 IR Inten    --      2.3507                 1.2771                 1.1865

                     10                     11                     12
                      A                      A                      A
 Frequencies --    287.0735               298.5685               329.5977
 Red. masses --      2.1155                 3.1366                 2.5966
 Frc consts  --      0.1027                 0.1647                 0.1662
 IR Inten    --      5.8582                44.5130                11.1011

                     13                     14                     15
                      A                      A                      A
 Frequencies --    359.9797               362.1212               407.2924
 Red. masses --      2.9098                 2.6304                 5.2774
 Frc consts  --      0.2222                 0.2032                 0.5158
 IR Inten    --      7.8014                12.2470                16.8009

                     16                     17                     18
                      A                      A                      A
 Frequencies --    503.9920               566.9501               691.8919
 Red. masses --      3.1672                 4.5801                 1.7790
 Frc consts  --      0.4740                 0.8674                 0.5018
 IR Inten    --     40.2953               107.7595                26.4643

                     19                     20                     21
                      A                      A                      A
 Frequencies --    717.4308               852.3315               991.0962
 Red. masses --      2.1990                 3.1922                 1.4925
 Frc consts  --      0.6669                 1.3663                 0.8638
 IR Inten    --    128.0967                55.6414               132.0817

                     22                     23                     24
                      A                      A                      A
 Frequencies --   1005.0665              1029.6483              1043.0379
 Red. masses --      1.1422                 1.6389                 1.1678
 Frc consts  --      0.6798                 1.0237                 0.7485
 IR Inten    --     72.1845                 3.1189                30.5196

                     25                     26                     27
                      A                      A                      A
 Frequencies --   1051.3762              1070.4263              1081.9205
 Red. masses --      1.4507                 1.6083                 2.9171
 Frc consts  --      0.9448                 1.0858                 2.0118
 IR Inten    --     94.7928                33.1712                 1.8683

                     28                     29                     30
                      A                      A                      A
 Frequencies --   1106.2687              1132.1284              1233.9380
 Red. masses --      1.9324                 2.8015                 1.3837
 Frc consts  --      1.3934                 2.1156                 1.2413
 IR Inten    --    123.8068                22.0872                32.6601

                     31                     32                     33
                      A                      A                      A
 Frequencies --   1343.7636              1360.8544              1387.9668
 Red. masses --      1.3432                 1.9388                 3.1537
 Frc consts  --      1.4291                 2.1155                 3.5796
 IR Inten    --     33.4411               405.3627               417.7123

                     34                     35                     36
                      A                      A                      A
 Frequencies --   1401.8285              1423.1943              1454.3189
 Red. masses --      1.4659                 1.2514                 1.1997
 Frc consts  --      1.6973                 1.4934                 1.4950
 IR Inten    --     25.2224                41.9683                11.4268

                     37                     38                     39
                      A                      A                      A
 Frequencies --   1469.6910              1480.2519              1484.5738
 Red. masses --      1.3413                 1.1072                 1.0585
 Frc consts  --      1.7070                 1.4294                 1.3745
 IR Inten    --     52.6614                22.6031                 1.4642

                     40                     41                     42
                      A                      A                      A
 Frequencies --   1495.5921              1501.6276              1505.7713
 Red. masses --      1.0634                 1.0722                 1.0961
 Frc consts  --      1.4015                 1.4245                 1.4643
 IR Inten    --      1.3813                30.6329                78.1597

                     43                     44                     45
                      A                      A                      A
 Frequencies --   1509.7399              1642.0798              1647.3798
 Red. masses --      1.2776                 1.0883                 6.2507
 Frc consts  --      1.7158                 1.7290                 9.9947
 IR Inten    --    139.2746                65.7690              1073.7183

                     46                     47                     48
                      A                      A                      A
 Frequencies --   2946.7080              3032.8729              3072.3757
 Red. masses --      1.0815                 1.0394                 1.0347
 Frc consts  --      5.5330                 5.6331                 5.7547
 IR Inten    --    120.5844                77.6638                14.2986

                     49                     50                     51
                      A                      A                      A
 Frequencies --   3073.2686              3081.9521              3140.2664
 Red. masses --      1.0349                 1.1010                 1.0972
 Frc consts  --      5.7590                 6.1614                 6.3749
 IR Inten    --     21.0732                53.7945                10.5721

                     52                     53                     54
                      A                      A                      A
 Frequencies --   3148.1919              3151.5026              3168.4454
 Red. masses --      1.1012                 1.1050                 1.1045
 Frc consts  --      6.4302                 6.4660                 6.5326
 IR Inten    --     11.3630                 6.6316                16.4520

                     55                     56                     57
                      A                      A                      A
 Frequencies --   3170.8848              3512.5409              3597.0200
 Red. masses --      1.1056                 1.0508                 1.0968
 Frc consts  --      6.5497                 7.6385                 8.3614
 IR Inten    --     12.3538                51.1919                49.5778

 - Thermochemistry -
 -------------------
 Temperature   298.150 Kelvin.  Pressure   1.00000 Atm.
 Atom     1 has atomic number  6 and mass  12.00000

 Molecular mass:   149.06074 amu.
 Principal axes and moments of inertia in atomic units:
                           1         2         3
     Eigenvalues --  1264.732711664.371252020.30139
           X            0.99767  -0.06515   0.02042
           Y            0.06533   0.99783  -0.00805
           Z           -0.01985   0.00937   0.99976
 This molecule is an asymmetric top.
 Rotational symmetry number  1.
 Warning -- assumption of classical behavior for rotation
           may cause significant error
 Rotational temperatures (Kelvin)      0.06848     0.05204     0.04287
 Rotational constants (GHZ):           1.42697     1.08434     0.89330
    1 imaginary frequencies ignored.
 Zero-point vibrational energy     464532.7 (Joules/Mol)
                                  111.02599 (Kcal/Mol)
 Warning -- explicit consideration of  16 degrees of freedom as
           vibrations may cause significant error
 Vibrational temperatures:     91.92   127.29   202.33   217.39   275.33
          (Kelvin)            302.00   334.05   373.35   413.03   429.57
                              474.22   517.93   521.01   586.00   725.13
                              815.71   995.48  1032.22  1226.31  1425.97
                             1446.07  1481.43  1500.70  1512.70  1540.10
                             1556.64  1591.67  1628.88  1775.36  1933.38
                             1957.97  1996.97  2016.92  2047.66  2092.44
                             2114.56  2129.75  2135.97  2151.82  2160.51
                             2166.47  2172.18  2362.59  2370.21  4239.66
                             4363.63  4420.46  4421.75  4434.24  4518.14
                             4529.55  4534.31  4558.69  4562.20  5053.76
                             5175.31

 Zero-point correction=                           0.176931 (Hartree/Particle)
 Thermal correction to Energy=                    0.188034
 Thermal correction to Enthalpy=                  0.188979
 Thermal correction to Gibbs Free Energy=         0.140416
 Sum of electronic and zero-point Energies=           -825.853529
 Sum of electronic and thermal Energies=              -825.842426
 Sum of electronic and thermal Enthalpies=            -825.841482
 Sum of electronic and thermal Free Energies=         -825.890045

                     E (Thermal)             CV                S
                      KCal/Mol        Cal/Mol-Kelvin    Cal/Mol-Kelvin
 Total                  117.993             39.379            102.209
 Electronic               0.000              0.000              0.000
 Translational            0.889              2.981             40.908
 Rotational               0.889              2.981             29.832
 Vibrational            116.216             33.417             31.470
 Vibration     1          0.597              1.972              4.333
 Vibration     2          0.601              1.957              3.694
 Vibration     3          0.615              1.913              2.795
 Vibration     4          0.619              1.901              2.658
 Vibration     5          0.634              1.852              2.215
 Vibration     6          0.642              1.826              2.045
 Vibration     7          0.653              1.792              1.862
 Vibration     8          0.668              1.747              1.665
 Vibration     9          0.684              1.698              1.491
 Vibration    10          0.692              1.676              1.425
 Vibration    11          0.712              1.616              1.262
 Vibration    12          0.734              1.555              1.122
 Vibration    13          0.736              1.550              1.113
 Vibration    14          0.772              1.454              0.936
 Vibration    15          0.859              1.241              0.648
 Vibration    16          0.923              1.103              0.510

 Optimization completed.
    -- Stationary point found.
 Normal termination of Gaussian 16 at Mon Feb 15 20:08:40 2021.
