 Gaussian 16, Revision A.03,
 Gaussian 16:  ES64L-G16RevA.03 25-Dec-2016

 ----------------------------------------------------------------------
 # wB97XD def2tzvp, opt=(ts, noeigen, calcfc, maxcycles=70, maxstep=8),
  freq=noraman, scrf=(iefpcm, solvent=water)
 ----------------------------------------------------------------------

 ------------------------
 1_iteration/TS-560-1.out
 ------------------------
 Symbolic Z-matrix:
 Charge =  0 Multiplicity = 1

 SCF Done:  E(RwB97XD) =  -3591.36469896     A.U. after   16 cycles
 SCF Done:  E(RwB97XD) =  -3591.36685141     A.U. after   13 cycles
 SCF Done:  E(RwB97XD) =  -3591.36879415     A.U. after   13 cycles
 SCF Done:  E(RwB97XD) =  -3591.37048821     A.U. after   13 cycles
 SCF Done:  E(RwB97XD) =  -3591.37201152     A.U. after   13 cycles
 SCF Done:  E(RwB97XD) =  -3591.37333727     A.U. after   13 cycles
 SCF Done:  E(RwB97XD) =  -3591.37483108     A.U. after   14 cycles
 SCF Done:  E(RwB97XD) =  -3591.37592194     A.U. after   13 cycles
 SCF Done:  E(RwB97XD) =  -3591.37634298     A.U. after   13 cycles
 SCF Done:  E(RwB97XD) =  -3591.37691866     A.U. after   13 cycles
 SCF Done:  E(RwB97XD) =  -3591.37734243     A.U. after   11 cycles
 SCF Done:  E(RwB97XD) =  -3591.37734549     A.U. after   10 cycles
 SCF Done:  E(RwB97XD) =  -3591.37734508     A.U. after   10 cycles
 SCF Done:  E(RwB97XD) =  -3591.37734586     A.U. after    9 cycles
 SCF Done:  E(RwB97XD) =  -3591.37734680     A.U. after    8 cycles
 SCF Done:  E(RwB97XD) =  -3591.37734672     A.U. after    7 cycles
 SCF Done:  E(RwB97XD) =  -3591.37734567     A.U. after    9 cycles
 SCF Done:  E(RwB97XD) =  -3591.37734675     A.U. after   10 cycles
 SCF Done:  E(RwB97XD) =  -3591.37734697     A.U. after    7 cycles
 Optimization completed.
    -- Stationary point found.
 Normal termination of Gaussian 16 at Tue Feb 16 22:14:45 2021.

 ---------------------------------------------------------------------
 #N Geom=AllCheck Guess=TCheck SCRF=Check GenChk RwB97XD/def2TZVP Freq
 ---------------------------------------------------------------------

 Structure from the checkpoint file:  "/beegfs/scratch/user/q/tla25/Gau-29847.chk"
 ------------------------
 1_iteration/TS-560-1.out
 ------------------------
 Charge =  0 Multiplicity = 1

                         Standard orientation:
 ---------------------------------------------------------------------
 Center     Atomic      Atomic             Coordinates (Angstroms)
 Number     Number       Type             X           Y           Z
 ---------------------------------------------------------------------
      1          6           0       -1.146523   -0.824269   -0.321212
      2          6           0        0.069935   -1.578046   -0.456861
      3          8           0        0.087066   -2.747649   -0.836889
      4          6           0       -1.364187    0.542042   -0.138555
      5          6           0       -1.698494    0.029542    2.653815
      6          1           0       -1.349220    0.140879    3.680264
      7          1           0       -2.783081    0.110057    2.634120
      8          1           0       -1.414109   -0.957779    2.286018
      9          7           0       -1.119975    1.036054    1.774356
     10          1           0       -1.509842    1.957404    1.937394
     11          1           0       -0.114993    1.100569    1.889718
     12          6           0       -2.743744    1.120875   -0.307580
     13          1           0       -3.455640    0.616336    0.342441
     14          1           0       -2.746616    2.186021   -0.090359
     15          1           0       -3.066872    0.975926   -1.339243
     16         35           0       -0.050319    1.787414   -0.849987
     17         17           0       -2.595549   -1.825481   -0.444613
     18          6           0        1.390681   -0.964667   -0.081829
     19          6           0        1.685211   -0.676854    1.244808
     20          6           0        2.932841   -0.178736    1.594635
     21          6           0        3.892389    0.034424    0.617059
     22          6           0        3.610318   -0.278344   -0.707172
     23          6           0        2.370183   -0.787692   -1.053072
     24          1           0        0.950540   -0.871986    2.016767
     25          1           0        3.153702    0.038206    2.631942
     26          1           0        4.862619    0.432032    0.886075
     27          1           0        4.361321   -0.124563   -1.471687
     28          1           0        2.149322   -1.030280   -2.085078
 ---------------------------------------------------------------------

 SCF Done:  E(RwB97XD) =  -3591.37734697     A.U. after    1 cycles

 The electronic state is 1-A.
 Alpha  occ. eigenvalues -- -483.13721-101.68906 -62.68560 -56.47686 -56.47323
 Alpha  occ. eigenvalues --  -56.47304 -19.22216 -14.48690 -10.41148 -10.37283
 Alpha  occ. eigenvalues --  -10.32526 -10.32031 -10.30427 -10.29809 -10.29621
 Alpha  occ. eigenvalues --  -10.29558 -10.29505 -10.29436 -10.29373  -9.57439
 Alpha  occ. eigenvalues --   -8.82661  -7.32080  -7.31223  -7.31207  -6.64836
 Alpha  occ. eigenvalues --   -6.63685  -6.63622  -2.75218  -2.74899  -2.74851
 Alpha  occ. eigenvalues --   -2.73919  -2.73918  -1.13274  -1.04377  -0.97883
 Alpha  occ. eigenvalues --   -0.97100  -0.92408  -0.87174  -0.85715  -0.84482
 Alpha  occ. eigenvalues --   -0.81113  -0.79195  -0.73251  -0.71104  -0.68973
 Alpha  occ. eigenvalues --   -0.64115  -0.63161  -0.59582  -0.58232  -0.57759
 Alpha  occ. eigenvalues --   -0.55742  -0.55167  -0.54675  -0.53573  -0.51582
 Alpha  occ. eigenvalues --   -0.51036  -0.50592  -0.49856  -0.48365  -0.47971
 Alpha  occ. eigenvalues --   -0.46929  -0.45486  -0.44448  -0.43374  -0.43219
 Alpha  occ. eigenvalues --   -0.41721  -0.39507  -0.38202  -0.37483  -0.34690
 Alpha  occ. eigenvalues --   -0.34320  -0.32416  -0.28765
 Alpha virt. eigenvalues --    0.01368   0.03542   0.04638   0.05345   0.09990
 Alpha virt. eigenvalues --    0.12070   0.12999   0.13885   0.14297   0.14600
 Alpha virt. eigenvalues --    0.15834   0.16475   0.17148   0.18072   0.18683

 Mulliken charges:
               1
     1  C   -0.179759
     2  C    0.198687
     3  O   -0.452122
     4  C    0.184442
     5  C   -0.322284
     6  H    0.166942
     7  H    0.167478
     8  H    0.160925
     9  N   -0.348363
    10  H    0.288810
    11  H    0.280218
    12  C   -0.380475
    13  H    0.154436
    14  H    0.155397
    15  H    0.165091
    16  Br  -0.077469
    17  Cl  -0.163493
    18  C    0.180127
    19  C   -0.316054
    20  C   -0.128843
    21  C   -0.154794
    22  C   -0.123945
    23  C   -0.232304
    24  H    0.196230
    25  H    0.145299
    26  H    0.146826
    27  H    0.146204
    28  H    0.142794
 Sum of Mulliken charges =  -0.00000

 Dipole moment (field-independent basis, Debye):
    X=             -0.8917    Y=              9.0718    Z=              7.0327  Tot=             11.5131
 Quadrupole moment (field-independent basis, Debye-Ang):
   XX=            -96.4627   YY=           -126.7046   ZZ=            -93.7571
   XY=             -5.7835   XZ=             -6.9477   YZ=             -0.1960

  Exact polarizability: 268.762  16.258 237.632 -10.148  21.913 234.292
 Approx polarizability: 211.313  16.176 199.112  -7.892  17.511 200.638

 ******    1 imaginary frequencies (negative Signs) ******

                      1                      2                      3
                      A                      A                      A
 Frequencies --   -356.1522                33.9285                55.2382
 Red. masses --      5.6007                 6.6047                 5.1192
 Frc consts  --      0.4186                 0.0045                 0.0092
 IR Inten    --    775.3197                 4.1213                 4.6959

                      4                      5                      6
                      A                      A                      A
 Frequencies --     66.9823                81.2913                98.5867
 Red. masses --      6.9456                 3.2878                 4.0132
 Frc consts  --      0.0184                 0.0128                 0.0230
 IR Inten    --      2.4452                 1.8180                 2.1893

                      7                      8                      9
                      A                      A                      A
 Frequencies --    142.3266               148.1004               159.8262
 Red. masses --      7.9705                 2.6851                 1.1849
 Frc consts  --      0.0951                 0.0347                 0.0178
 IR Inten    --      5.1819                 6.0483                 3.2775

                     10                     11                     12
                      A                      A                      A
 Frequencies --    190.8147               220.6064               239.2423
 Red. masses --      5.5472                 4.5746                 5.6740
 Frc consts  --      0.1190                 0.1312                 0.1913
 IR Inten    --      1.2445                 7.8430                11.3017

                     13                     14                     15
                      A                      A                      A
 Frequencies --    257.3042               271.8813               291.3493
 Red. masses --      3.5639                 2.4996                 2.8860
 Frc consts  --      0.1390                 0.1089                 0.1443
 IR Inten    --     16.2595                 4.3891                 7.2399

                     16                     17                     18
                      A                      A                      A
 Frequencies --    315.0092               331.1994               357.9047
 Red. masses --      5.4328                 3.3961                 1.7479
 Frc consts  --      0.3176                 0.2195                 0.1319
 IR Inten    --      0.3832                10.5449                 3.1535

                     19                     20                     21
                      A                      A                      A
 Frequencies --    379.0695               423.4864               480.8918
 Red. masses --      5.0834                 2.9792                 3.9417
 Frc consts  --      0.4304                 0.3148                 0.5371
 IR Inten    --     14.8329                 2.0158                18.6933

                     22                     23                     24
                      A                      A                      A
 Frequencies --    523.7134               574.2393               634.9360
 Red. masses --      4.6427                 4.7777                 6.2520
 Frc consts  --      0.7503                 0.9282                 1.4850
 IR Inten    --     88.8006                11.0722                 0.3976

                     25                     26                     27
                      A                      A                      A
 Frequencies --    644.4145               670.7814               725.0151
 Red. masses --      1.4183                 5.3666                 4.2887
 Frc consts  --      0.3470                 1.4227                 1.3282
 IR Inten    --     63.1098                71.9443               164.6407

                     28                     29                     30
                      A                      A                      A
 Frequencies --    735.4985               769.5567               809.1595
 Red. masses --      1.5308                 5.7769                 3.2677
 Frc consts  --      0.4879                 2.0157                 1.2605
 IR Inten    --     41.1925                84.9930                63.4842

                     31                     32                     33
                      A                      A                      A
 Frequencies --    846.5099               887.6335               968.6291
 Red. masses --      4.8106                 1.2578                 1.4208
 Frc consts  --      2.0310                 0.5839                 0.7854
 IR Inten    --     69.4700                 1.7395                20.1202

                     34                     35                     36
                      A                      A                      A
 Frequencies --    993.5720              1018.0417              1022.2004
 Red. masses --      1.1131                 1.3941                 1.5532
 Frc consts  --      0.6474                 0.8513                 0.9562
 IR Inten    --     26.0857                27.2723                65.8845

                     37                     38                     39
                      A                      A                      A
 Frequencies --   1028.9754              1036.1231              1049.6935
 Red. masses --      2.1805                 1.3809                 1.8613
 Frc consts  --      1.3602                 0.8735                 1.2084
 IR Inten    --      8.4120                 5.2315                84.1666

                     40                     41                     42
                      A                      A                      A
 Frequencies --   1052.6085              1065.2320              1083.4875
 Red. masses --      2.1574                 1.7240                 3.9392
 Frc consts  --      1.4084                 1.1526                 2.7246
 IR Inten    --     22.5445                15.5867                10.7447

                     43                     44                     45
                      A                      A                      A
 Frequencies --   1100.6394              1112.1755              1169.7618
 Red. masses --      2.9501                 1.5582                 3.2237
 Frc consts  --      2.1056                 1.1356                 2.5989
 IR Inten    --     61.8808                18.5276                15.6434

                     46                     47                     48
                      A                      A                      A
 Frequencies --   1184.0882              1206.1119              1209.0394
 Red. masses --      1.1398                 1.1256                 1.4059
 Frc consts  --      0.9416                 0.9647                 1.2109
 IR Inten    --      0.1456                 2.4046                22.1008

                     49                     50                     51
                      A                      A                      A
 Frequencies --   1319.4713              1336.7272              1340.4714
 Red. masses --      4.0267                 5.2146                 1.3662
 Frc consts  --      4.1304                 5.4898                 1.4463
 IR Inten    --     50.1863               163.0375                22.9983

                     52                     53                     54
                      A                      A                      A
 Frequencies --   1358.3928              1408.3442              1426.0434
 Red. masses --      1.4983                 2.5919                 1.5440
 Frc consts  --      1.6289                 3.0289                 1.8500
 IR Inten    --      6.8784               831.7499               332.5395

                     55                     56                     57
                      A                      A                      A
 Frequencies --   1456.7037              1482.4492              1488.9345
 Red. masses --      1.2533                 1.0548                 1.7142
 Frc consts  --      1.5669                 1.3658                 2.2390
 IR Inten    --     62.6584                 0.8037                 4.0518

                     58                     59                     60
                      A                      A                      A
 Frequencies --   1490.1411              1492.0554              1502.2955
 Red. masses --      1.2248                 1.0764                 1.0429
 Frc consts  --      1.6024                 1.4118                 1.3867
 IR Inten    --     18.4834                47.3173                22.9855

                     61                     62                     63
                      A                      A                      A
 Frequencies --   1541.6136              1645.0228              1648.2302
 Red. masses --      2.3382                 1.0928                 6.9399
 Frc consts  --      3.2741                 1.7424                11.1081
 IR Inten    --      6.8819                77.5210               210.2683

                     64                     65                     66
                      A                      A                      A
 Frequencies --   1656.3699              1674.7896              3063.2424
 Red. masses --      9.1336                 5.8917                 1.0342
 Frc consts  --     14.7641                 9.7367                 5.7174
 IR Inten    --    467.1077                 0.2283                30.2008

                     67                     68                     69
                      A                      A                      A
 Frequencies --   3077.7495              3136.7241              3155.3942
 Red. masses --      1.0368                 1.1042                 1.1006
 Frc consts  --      5.7866                 6.4010                 6.4562
 IR Inten    --      5.7550                11.2634                 7.3607

                     70                     71                     72
                      A                      A                      A
 Frequencies --   3166.4531              3176.9429              3195.3230
 Red. masses --      1.1047                 1.1044                 1.0859
 Frc consts  --      6.5261                 6.5676                 6.5321
 IR Inten    --     15.1304                10.1524                 3.0761

                     73                     74                     75
                      A                      A                      A
 Frequencies --   3199.5611              3207.4939              3214.8785
 Red. masses --      1.0878                 1.0915                 1.0953
 Frc consts  --      6.5614                 6.6160                 6.6698
 IR Inten    --      0.5150                 9.5819                34.3420

                     76                     77                     78
                      A                      A                      A
 Frequencies --   3224.5084              3521.8090              3604.6453
 Red. masses --      1.0989                 1.0507                 1.0963
 Frc consts  --      6.7320                 7.6784                 8.3925
 IR Inten    --     15.7733                45.9072                74.9133

 - Thermochemistry -
 -------------------
 Temperature   298.150 Kelvin.  Pressure   1.00000 Atm.
 Atom     1 has atomic number  6 and mass  12.00000

 Molecular mass:   288.98690 amu.
 Principal axes and moments of inertia in atomic units:
                           1         2         3
     Eigenvalues --  3333.768565063.945516021.16747
           X            0.99916  -0.03636  -0.01895
           Y            0.03747   0.99737   0.06200
           Z            0.01665  -0.06265   0.99790
 This molecule is an asymmetric top.
 Rotational symmetry number  1.
 Warning -- assumption of classical behavior for rotation
           may cause significant error
 Rotational temperatures (Kelvin)      0.02598     0.01710     0.01438
 Rotational constants (GHZ):           0.54135     0.35639     0.29973
    1 imaginary frequencies ignored.
 Zero-point vibrational energy     579469.0 (Joules/Mol)
                                  138.49642 (Kcal/Mol)
 Warning -- explicit consideration of  22 degrees of freedom as
           vibrations may cause significant error
 Vibrational temperatures:     48.82    79.48    96.37   116.96   141.84
          (Kelvin)            204.78   213.08   229.95   274.54   317.40
                              344.22   370.20   391.18   419.19   453.23
                              476.52   514.95   545.40   609.30   691.90
                              753.51   826.20   913.53   927.17   965.10
                             1043.14  1058.22  1107.22  1164.20  1217.94
                             1277.11  1393.64  1429.53  1464.73  1470.72
                             1480.47  1490.75  1510.27  1514.47  1532.63
                             1558.90  1583.57  1600.17  1683.03  1703.64
                             1735.33  1739.54  1898.42  1923.25  1928.64
                             1954.42  2026.29  2051.76  2095.87  2132.91
                             2142.24  2143.98  2146.73  2161.47  2218.04
                             2366.82  2371.44  2383.15  2409.65  4407.32
                             4428.20  4513.05  4539.91  4555.82  4570.91
                             4597.36  4603.45  4614.87  4625.49  4639.35
                             5067.10  5186.28

 Zero-point correction=                           0.220708 (Hartree/Particle)
 Thermal correction to Energy=                    0.236252
 Thermal correction to Enthalpy=                  0.237197
 Thermal correction to Gibbs Free Energy=         0.176566
 Sum of electronic and zero-point Energies=          -3591.156639
 Sum of electronic and thermal Energies=             -3591.141095
 Sum of electronic and thermal Enthalpies=           -3591.140150
 Sum of electronic and thermal Free Energies=        -3591.200781

                     E (Thermal)             CV                S
                      KCal/Mol        Cal/Mol-Kelvin    Cal/Mol-Kelvin
 Total                  148.251             56.477            127.608
 Electronic               0.000              0.000              0.000
 Translational            0.889              2.981             42.881
 Rotational               0.889              2.981             32.986
 Vibrational            146.473             50.516             51.741
 Vibration     1          0.594              1.983              5.585
 Vibration     2          0.596              1.975              4.620
 Vibration     3          0.598              1.970              4.240
 Vibration     4          0.600              1.962              3.859
 Vibration     5          0.604              1.950              3.482
 Vibration     6          0.616              1.911              2.772
 Vibration     7          0.617              1.905              2.696
 Vibration     8          0.622              1.892              2.552
 Vibration     9          0.634              1.853              2.220
 Vibration    10          0.647              1.810              1.954
 Vibration    11          0.657              1.780              1.809
 Vibration    12          0.667              1.750              1.680
 Vibration    13          0.675              1.725              1.584
 Vibration    14          0.687              1.690              1.466
 Vibration    15          0.702              1.645              1.336
 Vibration    16          0.714              1.613              1.254
 Vibration    17          0.733              1.559              1.131
 Vibration    18          0.749              1.515              1.043
 Vibration    19          0.786              1.419              0.880
 Vibration    20          0.837              1.292              0.708
 Vibration    21          0.879              1.197              0.601
 Vibration    22          0.931              1.087              0.496

 Optimization completed.
    -- Stationary point found.
 Normal termination of Gaussian 16 at Tue Feb 16 23:16:35 2021.
