 Gaussian 16, Revision A.03,
 Gaussian 16:  ES64L-G16RevA.03 25-Dec-2016

 ----------------------------------------------------------------------
 # wB97XD def2tzvp, opt=(ts, noeigen, calcfc, maxcycles=70, maxstep=8),
  freq=noraman, scrf=(iefpcm, solvent=water)
 ----------------------------------------------------------------------

 ------------------------
 1_iteration/TS-508-1.out
 ------------------------
 Symbolic Z-matrix:
 Charge =  0 Multiplicity = 1

 SCF Done:  E(RwB97XD) =  -3054.59577084     A.U. after   15 cycles
 SCF Done:  E(RwB97XD) =  -3054.59735181     A.U. after   12 cycles
 SCF Done:  E(RwB97XD) =  -3054.59755342     A.U. after   11 cycles
 SCF Done:  E(RwB97XD) =  -3054.59760739     A.U. after   11 cycles
 SCF Done:  E(RwB97XD) =  -3054.59762127     A.U. after   10 cycles
 SCF Done:  E(RwB97XD) =  -3054.59759764     A.U. after   11 cycles
 SCF Done:  E(RwB97XD) =  -3054.59762314     A.U. after   10 cycles
 SCF Done:  E(RwB97XD) =  -3054.59762332     A.U. after    8 cycles
 SCF Done:  E(RwB97XD) =  -3054.59762328     A.U. after    7 cycles
 SCF Done:  E(RwB97XD) =  -3054.59759642     A.U. after   10 cycles
 SCF Done:  E(RwB97XD) =  -3054.59762319     A.U. after   11 cycles
 SCF Done:  E(RwB97XD) =  -3054.59762324     A.U. after    7 cycles
 SCF Done:  E(RwB97XD) =  -3054.59762327     A.U. after    6 cycles
 Optimization completed.
    -- Stationary point found.
 Normal termination of Gaussian 16 at Tue Feb 16 15:42:43 2021.

 ---------------------------------------------------------------------
 #N Geom=AllCheck Guess=TCheck SCRF=Check GenChk RwB97XD/def2TZVP Freq
 ---------------------------------------------------------------------

 Structure from the checkpoint file:  "/beegfs/scratch/user/q/tla25/Gau-20133.chk"
 ------------------------
 1_iteration/TS-508-1.out
 ------------------------
 Charge =  0 Multiplicity = 1

                         Standard orientation:
 ---------------------------------------------------------------------
 Center     Atomic      Atomic             Coordinates (Angstroms)
 Number     Number       Type             X           Y           Z
 ---------------------------------------------------------------------
      1          6           0       -0.164505   -0.062912    0.360781
      2          6           0       -1.002204    1.076162    0.162119
      3          8           0       -0.614454    2.243225    0.139947
      4          6           0        1.217840    0.032083    0.632625
      5          6           0        3.420008    0.881291   -1.229990
      6          1           0        3.636544    1.279818   -2.222612
      7          1           0        3.806331    1.573199   -0.484261
      8          1           0        3.923718   -0.076981   -1.118187
      9          7           0        1.984226    0.698867   -1.025101
     10          1           0        1.477182    1.574506   -1.105088
     11          1           0        1.593207    0.058612   -1.706181
     12          6           0        2.019621   -1.234663    0.800437
     13          1           0        1.668990   -1.758595    1.691822
     14          1           0        1.914269   -1.909749   -0.046060
     15          1           0        3.073479   -0.999791    0.942180
     16          6           0        1.696074    1.120093    1.571002
     17          1           0        1.463072    0.798666    2.588671
     18          1           0        2.777175    1.239172    1.506588
     19          1           0        1.207647    2.069689    1.385205
     20         35           0       -0.884734   -1.763421   -0.178973
     21          8           0       -2.309730    0.788739   -0.026240
     22          6           0       -3.166504    1.893776   -0.276515
     23          1           0       -4.154355    1.469792   -0.439774
     24          1           0       -3.191390    2.572781    0.576317
     25          1           0       -2.848277    2.445875   -1.161281
 ---------------------------------------------------------------------

 SCF Done:  E(RwB97XD) =  -3054.59762327     A.U. after    1 cycles

 The electronic state is 1-A.
 Alpha  occ. eigenvalues -- -483.11527 -62.66369 -56.45471 -56.45138 -56.45130
 Alpha  occ. eigenvalues --  -19.28078 -19.21241 -14.47700 -10.39916 -10.35772
 Alpha  occ. eigenvalues --  -10.32569 -10.31674 -10.29873 -10.28157 -10.27522
 Alpha  occ. eigenvalues --   -8.80487  -6.62593  -6.61530  -6.61508  -2.72989
 Alpha  occ. eigenvalues --   -2.72680  -2.72663  -2.71802  -2.71802  -1.19561
 Alpha  occ. eigenvalues --   -1.09780  -1.03357  -0.93771  -0.87703  -0.82658
 Alpha  occ. eigenvalues --   -0.79863  -0.79057  -0.76509  -0.67950  -0.62848
 Alpha  occ. eigenvalues --   -0.62339  -0.58716  -0.56882  -0.55929  -0.55520
 Alpha  occ. eigenvalues --   -0.55371  -0.52577  -0.51432  -0.49977  -0.48131
 Alpha  occ. eigenvalues --   -0.47627  -0.47427  -0.46728  -0.45056  -0.43977
 Alpha  occ. eigenvalues --   -0.43074  -0.40850  -0.38780  -0.37997  -0.36886
 Alpha  occ. eigenvalues --   -0.34139  -0.26776
 Alpha virt. eigenvalues --    0.05365   0.08997   0.09991   0.13212   0.13992
 Alpha virt. eigenvalues --    0.14612   0.15282   0.16620   0.17020   0.17924
 Alpha virt. eigenvalues --    0.17998   0.19321   0.19554   0.20103   0.20469

 Mulliken charges:
               1
     1  C   -0.254949
     2  C    0.446542
     3  O   -0.534469
     4  C    0.132034
     5  C   -0.291903
     6  H    0.153421
     7  H    0.151838
     8  H    0.156332
     9  N   -0.348839
    10  H    0.278503
    11  H    0.279270
    12  C   -0.383991
    13  H    0.155657
    14  H    0.149347
    15  H    0.146799
    16  C   -0.384952
    17  H    0.141298
    18  H    0.130069
    19  H    0.158865
    20  Br  -0.172779
    21  O   -0.305870
    22  C   -0.189680
    23  H    0.137672
    24  H    0.125018
    25  H    0.124766
 Sum of Mulliken charges =  -0.00000

 Dipole moment (field-independent basis, Debye):
    X=              6.6675    Y=              0.8845    Z=             -2.4995  Tot=              7.1754
 Quadrupole moment (field-independent basis, Debye-Ang):
   XX=            -62.3558   YY=            -87.4052   ZZ=            -74.9231
   XY=             -1.3253   XZ=             -3.1789   YZ=             -2.9213

  Exact polarizability: 201.324   2.796 172.327  -2.938   0.414 139.852
 Approx polarizability: 149.026   4.995 143.207  -1.651   0.485 119.497

 ******    1 imaginary frequencies (negative Signs) ******

                      1                      2                      3
                      A                      A                      A
 Frequencies --   -349.3569                47.2411                60.8080
 Red. masses --      5.8767                 3.5912                 2.3084
 Frc consts  --      0.4226                 0.0047                 0.0050
 IR Inten    --    751.5282                 1.6133                 3.0963

                      4                      5                      6
                      A                      A                      A
 Frequencies --     71.3463                97.7989               124.6107
 Red. masses --      2.9762                 3.7585                 2.9299
 Frc consts  --      0.0089                 0.0212                 0.0268
 IR Inten    --      9.3175                 4.4123                 8.9907

                      7                      8                      9
                      A                      A                      A
 Frequencies --    161.9892               168.7108               177.1121
 Red. masses --      1.4318                 1.4445                 1.9041
 Frc consts  --      0.0221                 0.0242                 0.0352
 IR Inten    --      1.6551                 0.3060                 3.3209

                     10                     11                     12
                      A                      A                      A
 Frequencies --    211.5427               222.8203               243.8663
 Red. masses --      2.7969                 1.5645                 2.4390
 Frc consts  --      0.0737                 0.0458                 0.0855
 IR Inten    --      9.6578                10.5037                 4.2586

                     13                     14                     15
                      A                      A                      A
 Frequencies --    272.1036               282.3503               317.7549
 Red. masses --      1.5675                 1.5428                 4.6690
 Frc consts  --      0.0684                 0.0725                 0.2778
 IR Inten    --      1.0457                 3.2402                44.9553

                     16                     17                     18
                      A                      A                      A
 Frequencies --    331.7964               387.5145               406.3452
 Red. masses --      3.6753                 2.5248                 2.9200
 Frc consts  --      0.2384                 0.2234                 0.2841
 IR Inten    --      3.5699                 5.9956                 7.9544

                     19                     20                     21
                      A                      A                      A
 Frequencies --    415.8381               483.2285               550.1956
 Red. masses --      8.8960                 3.8563                 3.1929
 Frc consts  --      0.9063                 0.5306                 0.5695
 IR Inten    --     15.6354               116.7179                10.9433

                     22                     23                     24
                      A                      A                      A
 Frequencies --    668.7022               763.1880               786.2954
 Red. masses --      1.2598                 5.7350                11.1321
 Frc consts  --      0.3319                 1.9681                 4.0551
 IR Inten    --     27.9298                22.2784                74.3016

                     25                     26                     27
                      A                      A                      A
 Frequencies --    878.0074               958.1752               969.7569
 Red. masses --      3.7738                 1.7025                 2.7007
 Frc consts  --      1.7141                 0.9209                 1.4964
 IR Inten    --     42.2372                 8.9949                49.3635

                     28                     29                     30
                      A                      A                      A
 Frequencies --   1017.7075              1039.3687              1051.3541
 Red. masses --      1.2215                 1.3914                 1.5952
 Frc consts  --      0.7454                 0.8856                 1.0388
 IR Inten    --      3.0506                20.9140                60.9917

                     31                     32                     33
                      A                      A                      A
 Frequencies --   1055.2348              1061.9428              1111.7048
 Red. masses --      1.2891                 2.6437                 2.1051
 Frc consts  --      0.8457                 1.7565                 1.5329
 IR Inten    --    191.5184               189.4013                43.8603

                     34                     35                     36
                      A                      A                      A
 Frequencies --   1142.3903              1182.3565              1217.0451
 Red. masses --      3.4664                 1.2815                 1.5649
 Frc consts  --      2.6654                 1.0556                 1.3657
 IR Inten    --    181.2440                 1.6358               142.4011

                     37                     38                     39
                      A                      A                      A
 Frequencies --   1227.8074              1252.2032              1317.6219
 Red. masses --      1.3891                 3.6534                 5.2715
 Frc consts  --      1.2338                 3.3751                 5.3922
 IR Inten    --     43.7265                93.5472               678.0916

                     40                     41                     42
                      A                      A                      A
 Frequencies --   1356.1165              1401.2307              1406.1759
 Red. masses --      1.3012                 2.2158                 1.3400
 Frc consts  --      1.4099                 2.5633                 1.5612
 IR Inten    --     18.2097               496.2136                43.9929

                     43                     44                     45
                      A                      A                      A
 Frequencies --   1424.1539              1464.6261              1475.8198
 Red. masses --      1.3463                 1.2201                 1.0735
 Frc consts  --      1.6088                 1.5421                 1.3775
 IR Inten    --    114.1930                26.2862                32.0046

                     46                     47                     48
                      A                      A                      A
 Frequencies --   1480.3118              1482.7263              1483.7895
 Red. masses --      1.1381                 1.0804                 1.0691
 Frc consts  --      1.4694                 1.3994                 1.3868
 IR Inten    --     81.4190                31.1300                 4.2218

                     49                     50                     51
                      A                      A                      A
 Frequencies --   1491.8971              1497.3071              1505.1165
 Red. masses --      1.0618                 1.0672                 1.0532
 Frc consts  --      1.3924                 1.4096                 1.4057
 IR Inten    --     25.1816                 5.1598                15.1603

                     52                     53                     54
                      A                      A                      A
 Frequencies --   1507.9964              1511.7663              1650.3238
 Red. masses --      1.1841                 1.0490                 1.0874
 Frc consts  --      1.5865                 1.4125                 1.7449
 IR Inten    --     42.8036                29.1460                51.2991

                     55                     56                     57
                      A                      A                      A
 Frequencies --   1661.5413              3059.8675              3064.7465
 Red. masses --      9.6005                 1.0309                 1.0370
 Frc consts  --     15.6159                 5.6869                 5.7386
 IR Inten    --    563.5412                67.1418                49.7219

                     58                     59                     60
                      A                      A                      A
 Frequencies --   3067.3226              3071.1707              3133.2759
 Red. masses --      1.0402                 1.0396                 1.0991
 Frc consts  --      5.7661                 5.7771                 6.3576
 IR Inten    --     15.4955                33.3155                19.2908

                     61                     62                     63
                      A                      A                      A
 Frequencies --   3134.4683              3141.1025              3143.1263
 Red. masses --      1.1066                 1.1006                 1.0993
 Frc consts  --      6.4056                 6.3982                 6.3990
 IR Inten    --     41.3400                22.6418                29.9621

                     64                     65                     66
                      A                      A                      A
 Frequencies --   3166.9735              3168.2835              3170.1632
 Red. masses --      1.1033                 1.1051                 1.1054
 Frc consts  --      6.5199                 6.5358                 6.5452
 IR Inten    --     30.1292                26.9452                10.6073

                     67                     68                     69
                      A                      A                      A
 Frequencies --   3207.4927              3515.6760              3596.9101
 Red. masses --      1.0988                 1.0521                 1.0954
 Frc consts  --      6.6604                 7.6614                 8.3497
 IR Inten    --      2.5131                20.9351                46.0595

 - Thermochemistry -
 -------------------
 Temperature   298.150 Kelvin.  Pressure   1.00000 Atm.
 Atom     1 has atomic number  6 and mass  12.00000

 Molecular mass:   223.02079 amu.
 Principal axes and moments of inertia in atomic units:
                           1         2         3
     Eigenvalues --  2074.079492862.050244166.50295
           X            0.99490  -0.10084  -0.00148
           Y            0.10080   0.99473  -0.01878
           Z            0.00337   0.01854   0.99982
 This molecule is an asymmetric top.
 Rotational symmetry number  1.
 Warning -- assumption of classical behavior for rotation
           may cause significant error
 Rotational temperatures (Kelvin)      0.04176     0.03026     0.02079
 Rotational constants (GHZ):           0.87014     0.63058     0.43315
    1 imaginary frequencies ignored.
 Zero-point vibrational energy     551342.8 (Joules/Mol)
                                  131.77409 (Kcal/Mol)
 Warning -- explicit consideration of  20 degrees of freedom as
           vibrations may cause significant error
 Vibrational temperatures:     67.97    87.49   102.65   140.71   179.29
          (Kelvin)            233.07   242.74   254.82   304.36   320.59
                              350.87   391.50   406.24   457.18   477.38
                              557.55   584.64   598.30   695.26   791.61
                              962.11  1098.06  1131.30  1263.26  1378.60
                             1395.26  1464.25  1495.42  1512.66  1518.25
                             1527.90  1599.50  1643.64  1701.15  1751.06
                             1766.54  1801.64  1895.76  1951.15  2016.06
                             2023.17  2049.04  2107.27  2123.38  2129.84
                             2133.31  2134.84  2146.51  2154.29  2165.53
                             2169.67  2175.09  2374.45  2390.59  4402.47
                             4409.49  4413.19  4418.73  4508.09  4509.80
                             4519.35  4522.26  4556.57  4558.45  4561.16
                             4614.87  5058.27  5175.15

 Zero-point correction=                           0.209995 (Hartree/Particle)
 Thermal correction to Energy=                    0.223920
 Thermal correction to Enthalpy=                  0.224864
 Thermal correction to Gibbs Free Energy=         0.168511
 Sum of electronic and zero-point Energies=          -3054.387628
 Sum of electronic and thermal Energies=             -3054.373703
 Sum of electronic and thermal Enthalpies=           -3054.372759
 Sum of electronic and thermal Free Energies=        -3054.429112

                     E (Thermal)             CV                S
                      KCal/Mol        Cal/Mol-Kelvin    Cal/Mol-Kelvin
 Total                  140.512             48.319            118.605
 Electronic               0.000              0.000              0.000
 Translational            0.889              2.981             42.109
 Rotational               0.889              2.981             31.581
 Vibrational            138.735             42.358             44.915
 Vibration     1          0.595              1.979              4.930
 Vibration     2          0.597              1.973              4.431
 Vibration     3          0.598              1.968              4.116
 Vibration     4          0.603              1.951              3.498
 Vibration     5          0.610              1.928              3.028
 Vibration     6          0.622              1.889              2.526
 Vibration     7          0.625              1.881              2.450
 Vibration     8          0.628              1.871              2.359
 Vibration     9          0.643              1.823              2.030
 Vibration    10          0.648              1.806              1.936
 Vibration    11          0.659              1.773              1.774
 Vibration    12          0.675              1.725              1.583
 Vibration    13          0.681              1.706              1.519
 Vibration    14          0.704              1.640              1.322
 Vibration    15          0.714              1.612              1.251
 Vibration    16          0.756              1.497              1.010
 Vibration    17          0.771              1.456              0.940
 Vibration    18          0.779              1.436              0.906
 Vibration    19          0.839              1.287              0.701
 Vibration    20          0.905              1.139              0.544

 Optimization completed.
    -- Stationary point found.
 Normal termination of Gaussian 16 at Tue Feb 16 16:10:16 2021.
