 Gaussian 16, Revision A.03,
 Gaussian 16:  ES64L-G16RevA.03 25-Dec-2016

 ----------------------------------------------------------------------
 # wB97XD def2tzvp, opt=(ts, noeigen, calcfc, maxcycles=70, maxstep=5),
  freq=noraman, scrf=(iefpcm, solvent=water)
 ----------------------------------------------------------------------

 ------------------------
 2_iteration/TS-522-2.out
 ------------------------
 Symbolic Z-matrix:
 Charge =  0 Multiplicity = 1

 SCF Done:  E(RwB97XD) =  -3171.08628200     A.U. after   15 cycles
 Optimization completed.
    -- Stationary point found.
 Normal termination of Gaussian 16 at Wed Feb 17 14:06:31 2021.

 ---------------------------------------------------------------------
 #N Geom=AllCheck Guess=TCheck SCRF=Check GenChk RwB97XD/def2TZVP Freq
 ---------------------------------------------------------------------

 Structure from the checkpoint file:  "/beegfs/scratch/user/q/tla25/Gau-10026.chk"
 ------------------------
 2_iteration/TS-522-2.out
 ------------------------
 Charge =  0 Multiplicity = 1

                         Standard orientation:
 ---------------------------------------------------------------------
 Center     Atomic      Atomic             Coordinates (Angstroms)
 Number     Number       Type             X           Y           Z
 ---------------------------------------------------------------------
      1          6           0        0.133951    0.362391   -0.295430
      2          6           0       -0.145199    1.500171   -1.125530
      3          8           0        0.752091    2.055550   -1.773200
      4          6           0       -0.778749   -0.432599    0.402930
      5          6           0       -0.640369    1.457441    2.487530
      6          1           0       -0.255129    2.104281    1.700030
      7          1           0       -1.120819    2.066491    3.252310
      8          1           0        0.189021    0.909551    2.930150
      9          7           0       -1.578819    0.515151    1.894520
     10          1           0       -1.884689   -0.183939    2.562100
     11          1           0       -2.408779    0.985902    1.554250
     12          6           0       -0.279710   -1.638879    1.158930
     13          1           0        0.118160   -2.369819    0.455720
     14          1           0        0.524920   -1.352659    1.836370
     15          1           0       -1.077670   -2.113899    1.724960
     16         35           0       -2.492510   -0.924058   -0.465880
     17          6           0        1.585221    0.002930   -0.174730
     18          6           0        2.437671    0.670610    0.701660
     19          6           0        3.779411    0.329799    0.797310
     20          6           0        4.297470   -0.690041    0.011620
     21          6           0        3.464010   -1.359870   -0.872770
     22          6           0        2.123880   -1.012330   -0.963160
     23          1           0        2.046421    1.472020    1.315860
     24          1           0        4.421681    0.862189    1.488240
     25          1           0        5.343650   -0.959211    0.086470
     26          1           0        3.857940   -2.154281   -1.494860
     27          1           0        1.477240   -1.537410   -1.656870
     28          6           0       -1.532389    2.104321   -1.236700
     29          1           0       -2.159909    1.967721   -0.360030
     30          1           0       -1.414818    3.169641   -1.428870
     31          1           0       -2.055579    1.661341   -2.085970
 ---------------------------------------------------------------------

 SCF Done:  E(RwB97XD) =  -3171.08628200     A.U. after    1 cycles

 The electronic state is 1-A.
 Alpha  occ. eigenvalues -- -483.12635 -62.67491 -56.46594 -56.46261 -56.46245
 Alpha  occ. eigenvalues --  -19.20211 -14.49376 -10.40206 -10.35360 -10.32088
 Alpha  occ. eigenvalues --  -10.29547 -10.29222 -10.28639 -10.28618 -10.28537
 Alpha  occ. eigenvalues --  -10.28308 -10.28276 -10.27281 -10.26513  -8.81597
 Alpha  occ. eigenvalues --   -6.63703  -6.62653  -6.62601  -2.74092  -2.73805
 Alpha  occ. eigenvalues --   -2.73765  -2.72914  -2.72913  -1.11012  -1.04871
 Alpha  occ. eigenvalues --   -0.96619  -0.93807  -0.87201  -0.84594  -0.84009
 Alpha  occ. eigenvalues --   -0.83245  -0.79521  -0.78920  -0.69904  -0.69749
 Alpha  occ. eigenvalues --   -0.67769  -0.63997  -0.62105  -0.58772  -0.57970
 Alpha  occ. eigenvalues --   -0.56544  -0.55037  -0.54774  -0.53596  -0.52292
 Alpha  occ. eigenvalues --   -0.51497  -0.50586  -0.50294  -0.49958  -0.48671
 Alpha  occ. eigenvalues --   -0.47961  -0.46729  -0.45572  -0.45508  -0.43975
 Alpha  occ. eigenvalues --   -0.42359  -0.42058  -0.41325  -0.37273  -0.36897
 Alpha  occ. eigenvalues --   -0.33334  -0.32847  -0.31946  -0.27888
 Alpha virt. eigenvalues --    0.03151   0.04329   0.05667   0.06640   0.09632
 Alpha virt. eigenvalues --    0.12525   0.13221   0.13876   0.14712   0.15283
 Alpha virt. eigenvalues --    0.15910   0.16810   0.17864   0.18448   0.18786

 Mulliken charges:
               1
     1  C   -0.265526
     2  C    0.228913
     3  O   -0.514990
     4  C    0.078718
     5  C   -0.314584
     6  H    0.157443
     7  H    0.169385
     8  H    0.167328
     9  N   -0.313984
    10  H    0.289450
    11  H    0.283675
    12  C   -0.370829
    13  H    0.162290
    14  H    0.159920
    15  H    0.155842
    16  Br  -0.132987
    17  C    0.295180
    18  C   -0.231734
    19  C   -0.162932
    20  C   -0.138284
    21  C   -0.148665
    22  C   -0.282059
    23  H    0.150903
    24  H    0.137132
    25  H    0.141049
    26  H    0.137936
    27  H    0.143440
    28  C   -0.358543
    29  H    0.094105
    30  H    0.132068
    31  H    0.150339
 Sum of Mulliken charges =  -0.00000

 Dipole moment (field-independent basis, Debye):
    X=             -4.8197    Y=             -2.1271    Z=              9.7587  Tot=             11.0899
 Quadrupole moment (field-independent basis, Debye-Ang):
   XX=            -98.0622   YY=           -106.0289   ZZ=            -96.0577
   XY=            -10.8762   XZ=             -2.4523   YZ=             13.3570

  Exact polarizability: 285.000   6.414 226.139  -3.355   7.842 231.739
 Approx polarizability: 220.338   5.813 187.873  -2.003   9.267 193.513

 ******    1 imaginary frequencies (negative Signs) ******

                      1                      2                      3
                      A                      A                      A
 Frequencies --   -368.1209                37.1278                63.7941
 Red. masses --      5.5401                 3.7247                 5.1906
 Frc consts  --      0.4423                 0.0030                 0.0124
 IR Inten    --    726.9554                 0.7662                 2.5445

                      4                      5                      6
                      A                      A                      A
 Frequencies --     73.8878                79.4257                81.7077
 Red. masses --      3.6711                 3.9137                 3.0984
 Frc consts  --      0.0118                 0.0145                 0.0122
 IR Inten    --     10.8085                 7.8596                 0.1729

                      7                      8                      9
                      A                      A                      A
 Frequencies --    115.4838               147.2266               157.8830
 Red. masses --      1.3880                 3.3470                 2.6866
 Frc consts  --      0.0109                 0.0427                 0.0395
 IR Inten    --      1.0011                 7.0081                 1.9819

                     10                     11                     12
                      A                      A                      A
 Frequencies --    182.4682               194.4416               214.9209
 Red. masses --      3.5907                 1.1818                 4.8187
 Frc consts  --      0.0704                 0.0263                 0.1311
 IR Inten    --      1.8766                 1.6184                 8.6145

                     13                     14                     15
                      A                      A                      A
 Frequencies --    260.5489               261.9692               279.0898
 Red. masses --      2.4568                 3.0212                 3.4018
 Frc consts  --      0.0983                 0.1222                 0.1561
 IR Inten    --     11.6132                20.4926                 4.4994

                     16                     17                     18
                      A                      A                      A
 Frequencies --    323.3578               329.0432               352.6261
 Red. masses --      1.4203                 3.1115                 3.1191
 Frc consts  --      0.0875                 0.1985                 0.2285
 IR Inten    --      3.5063                 5.0641                17.1830

                     19                     20                     21
                      A                      A                      A
 Frequencies --    388.1553               425.6742               465.2359
 Red. masses --      3.0918                 2.8611                 4.7841
 Frc consts  --      0.2745                 0.3054                 0.6101
 IR Inten    --      3.4468                 0.0799                48.4089

                     22                     23                     24
                      A                      A                      A
 Frequencies --    520.7430               545.0039               594.9574
 Red. masses --      3.7631                 3.6269                 3.3974
 Frc consts  --      0.6012                 0.6347                 0.7085
 IR Inten    --      2.8452                59.5953                33.2718

                     25                     26                     27
                      A                      A                      A
 Frequencies --    627.7153               635.0990               674.2781
 Red. masses --      3.7200                 5.7986                 1.4039
 Frc consts  --      0.8636                 1.3780                 0.3761
 IR Inten    --    126.3495                26.3910                27.6748

                     28                     29                     30
                      A                      A                      A
 Frequencies --    694.8645               728.7704               741.3336
 Red. masses --      3.3792                 1.6516                 3.0962
 Frc consts  --      0.9613                 0.5168                 1.0025
 IR Inten    --     45.5525                59.3905               175.9784

                     31                     32                     33
                      A                      A                      A
 Frequencies --    800.3351               879.5278               915.3325
 Red. masses --      2.4395                 1.2472                 3.2197
 Frc consts  --      0.9207                 0.5685                 1.5894
 IR Inten    --     25.4068                 0.1685                27.4264

                     34                     35                     36
                      A                      A                      A
 Frequencies --    957.2296               998.7901              1005.4938
 Red. masses --      1.5070                 1.1763                 1.5926
 Frc consts  --      0.8136                 0.6914                 0.9487
 IR Inten    --     16.6097                14.0691                78.0791

                     37                     38                     39
                      A                      A                      A
 Frequencies --   1012.5429              1026.4126              1027.0153
 Red. masses --      1.3786                 1.3232                 5.7202
 Frc consts  --      0.8327                 0.8213                 3.5548
 IR Inten    --      0.7428                 0.2163                 1.5204

                     40                     41                     42
                      A                      A                      A
 Frequencies --   1033.4476              1039.2817              1055.0441
 Red. masses --      1.1386                 1.8007                 2.1767
 Frc consts  --      0.7165                 1.1459                 1.4275
 IR Inten    --     63.4387                56.2663                45.3884

                     43                     44                     45
                      A                      A                      A
 Frequencies --   1064.3580              1079.6315              1087.9426
 Red. masses --      1.7843                 2.3252                 3.1604
 Frc consts  --      1.1910                 1.5968                 2.2040
 IR Inten    --     41.6910                14.5225                 4.3080

                     46                     47                     48
                      A                      A                      A
 Frequencies --   1108.9609              1111.0957              1180.5868
 Red. masses --      1.5843                 2.1227                 1.1319
 Frc consts  --      1.1480                 1.5440                 0.9295
 IR Inten    --      7.4402               136.4965                 0.0273

                     49                     50                     51
                      A                      A                      A
 Frequencies --   1206.7580              1223.9670              1228.1374
 Red. masses --      1.1268                 1.9927                 1.9931
 Frc consts  --      0.9668                 1.7589                 1.7713
 IR Inten    --      0.0500                45.8736                18.9402

                     52                     53                     54
                      A                      A                      A
 Frequencies --   1307.3554              1343.5919              1356.3953
 Red. masses --      4.5218                 1.3588                 1.4457
 Frc consts  --      4.5536                 1.4452                 1.5671
 IR Inten    --      0.4809                16.7800                 0.7468

                     55                     56                     57
                      A                      A                      A
 Frequencies --   1365.0019              1395.4833              1412.7417
 Red. masses --      2.3423                 1.6272                 2.2235
 Frc consts  --      2.5714                 1.8670                 2.6147
 IR Inten    --    294.5196               229.2589               504.2119

                     58                     59                     60
                      A                      A                      A
 Frequencies --   1428.3314              1455.7225              1459.6318
 Red. masses --      1.6315                 1.1990                 1.1453
 Frc consts  --      1.9611                 1.4970                 1.4377
 IR Inten    --    411.6621                89.4534                27.6675

                     61                     62                     63
                      A                      A                      A
 Frequencies --   1476.8020              1478.9284              1485.6436
 Red. masses --      1.0872                 1.1028                 2.0293
 Frc consts  --      1.3970                 1.4212                 2.6389
 IR Inten    --     20.8022                 5.3031                 4.6116

                     64                     65                     66
                      A                      A                      A
 Frequencies --   1495.2388              1498.6937              1504.8309
 Red. masses --      1.1049                 1.0530                 1.0609
 Frc consts  --      1.4555                 1.3935                 1.4155
 IR Inten    --     22.2613                32.8608                44.5963

                     67                     68                     69
                      A                      A                      A
 Frequencies --   1543.0940              1629.8259              1645.5842
 Red. masses --      2.3669                 9.2719                 5.7269
 Frc consts  --      3.3205                14.5112                 9.1371
 IR Inten    --     43.1885               683.4503                 1.7966

                     70                     71                     72
                      A                      A                      A
 Frequencies --   1650.2476              1671.7127              3074.0864
 Red. masses --      1.0928                 6.0056                 1.0330
 Frc consts  --      1.7535                 9.8884                 5.7516
 IR Inten    --     50.5665                42.4596                23.7325

                     73                     74                     75
                      A                      A                      A
 Frequencies --   3074.1620              3075.2649              3146.2322
 Red. masses --      1.0386                 1.0358                 1.0995
 Frc consts  --      5.7833                 5.7716                 6.4126
 IR Inten    --     13.2452                11.3038                16.9356

                     76                     77                     78
                      A                      A                      A
 Frequencies --   3153.7067              3154.5714              3165.4461
 Red. masses --      1.1020                 1.1047                 1.1038
 Frc consts  --      6.4578                 6.4772                 6.5167
 IR Inten    --      8.7620                 8.5978                22.7065

                     79                     80                     81
                      A                      A                      A
 Frequencies --   3170.0426              3177.3522              3185.4514
 Red. masses --      1.1057                 1.1003                 1.0866
 Frc consts  --      6.5467                 6.5448                 6.4962
 IR Inten    --     14.4733                40.7114                 7.0780

                     82                     83                     84
                      A                      A                      A
 Frequencies --   3192.1261              3201.4318              3209.5419
 Red. masses --      1.0874                 1.0918                 1.0941
 Frc consts  --      6.5282                 6.5933                 6.6405
 IR Inten    --      0.1342                22.2021                47.4046

                     85                     86                     87
                      A                      A                      A
 Frequencies --   3218.6255              3527.1975              3606.1590
 Red. masses --      1.0985                 1.0512                 1.0958
 Frc consts  --      6.7047                 7.7053                 8.3963
 IR Inten    --     19.1767                54.7448                49.1218

 - Thermochemistry -
 -------------------
 Temperature   298.150 Kelvin.  Pressure   1.00000 Atm.
 Atom     1 has atomic number  6 and mass  12.00000

 Molecular mass:   269.04153 amu.
 Principal axes and moments of inertia in atomic units:
                           1         2         3
     Eigenvalues --  2522.027626041.094576201.24787
           X            0.99895  -0.04264  -0.01675
           Y            0.04409   0.99416   0.09851
           Z            0.01245  -0.09914   0.99500
 This molecule is an asymmetric top.
 Rotational symmetry number  1.
 Warning -- assumption of classical behavior for rotation
           may cause significant error
 Rotational temperatures (Kelvin)      0.03434     0.01434     0.01397
 Rotational constants (GHZ):           0.71559     0.29874     0.29103
    1 imaginary frequencies ignored.
 Zero-point vibrational energy     676936.7 (Joules/Mol)
                                  161.79175 (Kcal/Mol)
 Warning -- explicit consideration of  23 degrees of freedom as
           vibrations may cause significant error
 Vibrational temperatures:     53.42    91.79   106.31   114.28   117.56
          (Kelvin)            166.16   211.83   227.16   262.53   279.76
                              309.22   374.87   376.92   401.55   465.24
                              473.42   507.35   558.47   612.45   669.37
                              749.23   784.14   856.01   903.14   913.77
                              970.14   999.76  1048.54  1066.61  1151.50
                             1265.44  1316.96  1377.24  1437.04  1446.68
                             1456.82  1476.78  1477.65  1486.90  1495.29
                             1517.97  1531.37  1553.35  1565.31  1595.55
                             1598.62  1698.60  1736.26  1761.02  1767.02
                             1880.99  1933.13  1951.55  1963.93  2007.79
                             2032.62  2055.05  2094.46  2100.08  2124.79
                             2127.85  2137.51  2151.32  2156.29  2165.12
                             2220.17  2344.96  2367.63  2374.34  2405.22
                             4422.92  4423.03  4424.62  4526.73  4537.48
                             4538.72  4554.37  4560.98  4571.50  4583.15
                             4592.76  4606.15  4617.81  4630.88  5074.85
                             5188.46

 Zero-point correction=                           0.257832 (Hartree/Particle)
 Thermal correction to Energy=                    0.273823
 Thermal correction to Enthalpy=                  0.274767
 Thermal correction to Gibbs Free Energy=         0.213518
 Sum of electronic and zero-point Energies=          -3170.828450
 Sum of electronic and thermal Energies=             -3170.812459
 Sum of electronic and thermal Enthalpies=           -3170.811515
 Sum of electronic and thermal Free Energies=        -3170.872764

                     E (Thermal)             CV                S
                      KCal/Mol        Cal/Mol-Kelvin    Cal/Mol-Kelvin
 Total                  171.826             58.733            128.909
 Electronic               0.000              0.000              0.000
 Translational            0.889              2.981             42.668
 Rotational               0.889              2.981             32.913
 Vibrational            170.049             52.772             53.328
 Vibration     1          0.594              1.982              5.407
 Vibration     2          0.597              1.972              4.336
 Vibration     3          0.599              1.966              4.047
 Vibration     4          0.600              1.963              3.905
 Vibration     5          0.600              1.962              3.849
 Vibration     6          0.608              1.937              3.175
 Vibration     7          0.617              1.906              2.708
 Vibration     8          0.621              1.894              2.575
 Vibration     9          0.630              1.864              2.303
 Vibration    10          0.635              1.848              2.185
 Vibration    11          0.645              1.818              2.001
 Vibration    12          0.669              1.745              1.658
 Vibration    13          0.669              1.742              1.649
 Vibration    14          0.679              1.712              1.539
 Vibration    15          0.708              1.629              1.293
 Vibration    16          0.712              1.617              1.265
 Vibration    17          0.729              1.570              1.154
 Vibration    18          0.756              1.495              1.007
 Vibration    19          0.788              1.414              0.873
 Vibration    20          0.823              1.327              0.751
 Vibration    21          0.876              1.204              0.608
 Vibration    22          0.900              1.151              0.555
 Vibration    23          0.953              1.043              0.458

 Optimization completed.
    -- Stationary point found.
 Normal termination of Gaussian 16 at Wed Feb 17 15:21:06 2021.
