 Gaussian 16, Revision A.03,
 Gaussian 16:  ES64L-G16RevA.03 25-Dec-2016

 ----------------------------------------------------------------------
 # wB97XD def2tzvp, opt=(ts, noeigen, calcfc, maxcycles=70, maxstep=8),
  freq=noraman, scrf=(iefpcm, solvent=water)
 ----------------------------------------------------------------------

 ------------------------
 1_iteration/TS-535-1.out
 ------------------------
 Symbolic Z-matrix:
 Charge =  0 Multiplicity = 1

 SCF Done:  E(RwB97XD) =  -3187.14837861     A.U. after   14 cycles
 SCF Done:  E(RwB97XD) =  -3187.14897684     A.U. after   12 cycles
 SCF Done:  E(RwB97XD) =  -3187.14905841     A.U. after   12 cycles
 SCF Done:  E(RwB97XD) =  -3187.14907124     A.U. after   10 cycles
 SCF Done:  E(RwB97XD) =  -3187.14906125     A.U. after   11 cycles
 SCF Done:  E(RwB97XD) =  -3187.14907454     A.U. after   10 cycles
 SCF Done:  E(RwB97XD) =  -3187.14850973     A.U. after   14 cycles
 SCF Done:  E(RwB97XD) =  -3187.14902285     A.U. after   12 cycles
 SCF Done:  E(RwB97XD) =  -3187.14905497     A.U. after   11 cycles
 SCF Done:  E(RwB97XD) =  -3187.14886146     A.U. after   14 cycles
 SCF Done:  E(RwB97XD) =  -3187.14906200     A.U. after   13 cycles
 SCF Done:  E(RwB97XD) =  -3187.14906645     A.U. after   11 cycles
 SCF Done:  E(RwB97XD) =  -3187.14907413     A.U. after   10 cycles
 SCF Done:  E(RwB97XD) =  -3187.14907479     A.U. after    9 cycles
 SCF Done:  E(RwB97XD) =  -3187.14907589     A.U. after    9 cycles
 SCF Done:  E(RwB97XD) =  -3187.14907591     A.U. after    9 cycles
 SCF Done:  E(RwB97XD) =  -3187.14907594     A.U. after    7 cycles
 Optimization completed.
    -- Stationary point found.
 Normal termination of Gaussian 16 at Wed Feb 17 01:57:48 2021.

 ---------------------------------------------------------------------
 #N Geom=AllCheck Guess=TCheck SCRF=Check GenChk RwB97XD/def2TZVP Freq
 ---------------------------------------------------------------------

 Structure from the checkpoint file:  "/beegfs/scratch/user/q/tla25/Gau-43602.chk"
 ------------------------
 1_iteration/TS-535-1.out
 ------------------------
 Charge =  0 Multiplicity = 1

                         Standard orientation:
 ---------------------------------------------------------------------
 Center     Atomic      Atomic             Coordinates (Angstroms)
 Number     Number       Type             X           Y           Z
 ---------------------------------------------------------------------
      1          6           0        1.292582    1.509807   -0.450095
      2          6           0       -0.147708    1.509024   -0.447997
      3          8           0       -0.779193    2.546819   -0.681748
      4          6           0        2.272413    0.570960   -0.156712
      5          6           0        1.270633    0.256750    2.450289
      6          1           0        0.771272   -0.683945    2.228295
      7          1           0        1.463884    0.317255    3.520274
      8          1           0        0.633633    1.088078    2.152024
      9          7           0        2.514591    0.334640    1.690091
     10          1           0        3.106741   -0.472115    1.860301
     11          1           0        3.036729    1.164563    1.952800
     12          6           0        3.692647    0.916068   -0.533496
     13          1           0        3.915909    1.935316   -0.215092
     14          1           0        4.415537    0.237234   -0.084193
     15          1           0        3.799957    0.861572   -1.616152
     16         35           0        1.954779   -1.346884   -0.596637
     17          1           0        1.691849    2.493985   -0.665113
     18          7           0       -0.809679    0.325519   -0.186381
     19          6           0       -2.175930    0.064078   -0.090610
     20          6           0       -3.179927    1.025499   -0.226004
     21          6           0       -4.511873    0.653820   -0.101397
     22          6           0       -4.875161   -0.658662    0.155791
     23          6           0       -3.876992   -1.615256    0.290790
     24          6           0       -2.546304   -1.260873    0.170445
     25          1           0       -0.226594   -0.486889   -0.073308
     26          1           0       -2.908256    2.048134   -0.427816
     27          1           0       -5.276640    1.413507   -0.209629
     28          1           0       -5.917450   -0.934219    0.249756
     29          1           0       -4.134428   -2.647677    0.492534
     30          1           0       -1.776513   -2.016808    0.279627
 ---------------------------------------------------------------------

 SCF Done:  E(RwB97XD) =  -3187.14907594     A.U. after    1 cycles

 The electronic state is 1-A.
 Alpha  occ. eigenvalues -- -483.13290 -62.68141 -56.47237 -56.46913 -56.46903
 Alpha  occ. eigenvalues --  -19.19802 -14.50008 -14.45704 -10.40364 -10.38183
 Alpha  occ. eigenvalues --  -10.33626 -10.32198 -10.29359 -10.28914 -10.28743
 Alpha  occ. eigenvalues --  -10.28642 -10.28064 -10.27922 -10.25359  -8.82243
 Alpha  occ. eigenvalues --   -6.64324  -6.63299  -6.63272  -2.74714  -2.74431
 Alpha  occ. eigenvalues --   -2.74409  -2.73581  -2.73579  -1.12733  -1.05454
 Alpha  occ. eigenvalues --   -1.03451  -0.95354  -0.93687  -0.85709  -0.84935
 Alpha  occ. eigenvalues --   -0.84880  -0.80891  -0.79044  -0.72878  -0.71126
 Alpha  occ. eigenvalues --   -0.67937  -0.64807  -0.64403  -0.62457  -0.59160
 Alpha  occ. eigenvalues --   -0.57786  -0.57531  -0.55768  -0.53414  -0.52685
 Alpha  occ. eigenvalues --   -0.52094  -0.51479  -0.50819  -0.50191  -0.49457
 Alpha  occ. eigenvalues --   -0.48570  -0.47570  -0.46337  -0.44712  -0.43981
 Alpha  occ. eigenvalues --   -0.43514  -0.42641  -0.39342  -0.37880  -0.37766
 Alpha  occ. eigenvalues --   -0.33633  -0.33513  -0.30226  -0.27191
 Alpha virt. eigenvalues --    0.04165   0.04463   0.05498   0.08414   0.09676
 Alpha virt. eigenvalues --    0.12235   0.13983   0.14580   0.14863   0.15526
 Alpha virt. eigenvalues --    0.16797   0.17171   0.17583   0.18156   0.18590

 Mulliken charges:
               1
     1  C   -0.494792
     2  C    0.388116
     3  O   -0.549441
     4  C    0.140316
     5  C   -0.319943
     6  H    0.159477
     7  H    0.169376
     8  H    0.161848
     9  N   -0.272915
    10  H    0.295647
    11  H    0.287644
    12  C   -0.360885
    13  H    0.155565
    14  H    0.154390
    15  H    0.157391
    16  Br  -0.150726
    17  H    0.124718
    18  N   -0.234655
    19  C    0.298009
    20  C   -0.307680
    21  C   -0.107459
    22  C   -0.200291
    23  C   -0.105127
    24  C   -0.304202
    25  H    0.196969
    26  H    0.156283
    27  H    0.139600
    28  H    0.139062
    29  H    0.141690
    30  H    0.142016
 Sum of Mulliken charges =  -0.00000

 Dipole moment (field-independent basis, Debye):
    X=              8.8252    Y=             -4.2382    Z=              7.1166  Tot=             12.1034
 Quadrupole moment (field-independent basis, Debye-Ang):
   XX=            -80.2549   YY=           -112.3107   ZZ=            -97.0696
   XY=             10.7106   XZ=             10.8185   YZ=              4.0746

  Exact polarizability: 311.470  -2.261 256.695   5.777 -14.449 180.109
 Approx polarizability: 227.046  -3.994 216.701   4.582 -11.609 152.957

 ******    1 imaginary frequencies (negative Signs) ******

                      1                      2                      3
                      A                      A                      A
 Frequencies --   -398.2151                21.0698                28.0851
 Red. masses --      5.1486                 3.8889                 4.5760
 Frc consts  --      0.4810                 0.0010                 0.0021
 IR Inten    --    739.4157                 0.9808                 4.7274

                      4                      5                      6
                      A                      A                      A
 Frequencies --     64.5393                69.8248                81.9011
 Red. masses --      3.1296                 7.8103                 4.8992
 Frc consts  --      0.0077                 0.0224                 0.0194
 IR Inten    --      1.6251                 9.4703                 1.8959

                      7                      8                      9
                      A                      A                      A
 Frequencies --    122.7977               170.8077               205.1595
 Red. masses --      5.1562                 5.1300                 2.3482
 Frc consts  --      0.0458                 0.0882                 0.0582
 IR Inten    --     14.9433                 8.0159                 7.2904

                     10                     11                     12
                      A                      A                      A
 Frequencies --    220.7707               234.3143               251.7464
 Red. masses --      2.2738                 2.6870                 2.7333
 Frc consts  --      0.0653                 0.0869                 0.1021
 IR Inten    --      5.0500                 3.2408                 2.1491

                     13                     14                     15
                      A                      A                      A
 Frequencies --    263.3631               287.2920               298.5039
 Red. masses --      1.5162                 1.6198                 2.5322
 Frc consts  --      0.0620                 0.0788                 0.1329
 IR Inten    --      4.6257                 3.1277                12.1534

                     16                     17                     18
                      A                      A                      A
 Frequencies --    344.5454               358.5331               408.4913
 Red. masses --      4.5978                 4.7494                 5.2926
 Frc consts  --      0.3216                 0.3597                 0.5203
 IR Inten    --      9.1371                 5.1101                40.6077

                     19                     20                     21
                      A                      A                      A
 Frequencies --    422.9765               471.2672               528.7178
 Red. masses --      2.9987                 2.3889                 2.7953
 Frc consts  --      0.3161                 0.3126                 0.4604
 IR Inten    --      0.1382                 6.8040                27.5660

                     22                     23                     24
                      A                      A                      A
 Frequencies --    546.5990               580.4206               594.5293
 Red. masses --      5.7961                 3.7572                 1.1602
 Frc consts  --      1.0203                 0.7458                 0.2416
 IR Inten    --     12.1715               136.7215               118.1922

                     25                     26                     27
                      A                      A                      A
 Frequencies --    635.9697               652.4741               714.7518
 Red. masses --      6.2018                 1.3464                 3.6180
 Frc consts  --      1.4779                 0.3377                 1.0890
 IR Inten    --      5.6134                54.4937                14.7017

                     28                     29                     30
                      A                      A                      A
 Frequencies --    718.7998               746.4880               782.8395
 Red. masses --      1.8884                 1.9975                 1.8314
 Frc consts  --      0.5749                 0.6558                 0.6613
 IR Inten    --     67.4248                94.1703                59.1848

                     31                     32                     33
                      A                      A                      A
 Frequencies --    792.0892               861.3221               882.0242
 Red. masses --      4.5369                 1.2639                 5.9212
 Frc consts  --      1.6771                 0.5524                 2.7141
 IR Inten    --    126.3181                 0.0363                10.0713

                     34                     35                     36
                      A                      A                      A
 Frequencies --    929.6676               962.7520              1000.0397
 Red. masses --      1.4730                 3.4678                 1.3446
 Frc consts  --      0.7501                 1.8938                 0.7923
 IR Inten    --     14.1544                52.0683                 0.0089

                     37                     38                     39
                      A                      A                      A
 Frequencies --   1014.0307              1015.5491              1018.9682
 Red. masses --      1.1265                 1.2791                 5.3769
 Frc consts  --      0.6825                 0.7772                 3.2893
 IR Inten    --     19.5449                 0.5310                 6.7498

                     40                     41                     42
                      A                      A                      A
 Frequencies --   1040.1203              1055.3288              1062.2225
 Red. masses --      1.4148                 2.2380                 1.9450
 Frc consts  --      0.9018                 1.4686                 1.2930
 IR Inten    --    147.4650                31.5453                13.9876

                     43                     44                     45
                      A                      A                      A
 Frequencies --   1072.2930              1086.6623              1117.4187
 Red. masses --      1.7477                 2.5607                 1.7677
 Frc consts  --      1.1840                 1.7815                 1.3004
 IR Inten    --     23.3163                25.0934                32.4436

                     46                     47                     48
                      A                      A                      A
 Frequencies --   1121.6010              1181.1118              1207.1741
 Red. masses --      1.7218                 1.1184                 1.1422
 Frc consts  --      1.2762                 0.9193                 0.9807
 IR Inten    --     81.2119                 4.3740                26.6253

                     49                     50                     51
                      A                      A                      A
 Frequencies --   1251.1465              1269.4786              1282.7818
 Red. masses --      1.3640                 1.8331                 2.4708
 Frc consts  --      1.2580                 1.7405                 2.3954
 IR Inten    --     94.4152               525.3923               294.1847

                     52                     53                     54
                      A                      A                      A
 Frequencies --   1295.5463              1349.8081              1355.9483
 Red. masses --      2.6710                 2.5688                 1.3811
 Frc consts  --      2.6414                 2.7576                 1.4961
 IR Inten    --    170.2230               481.8399                84.5628

                     55                     56                     57
                      A                      A                      A
 Frequencies --   1361.0671              1423.5222              1448.1875
 Red. masses --      1.7992                 1.2254                 1.2409
 Frc consts  --      1.9637                 1.4631                 1.5334
 IR Inten    --      5.9211                 3.2621                82.5436

                     58                     59                     60
                      A                      A                      A
 Frequencies --   1478.7696              1480.1162              1484.4087
 Red. masses --      1.6807                 1.8904                 1.1301
 Frc consts  --      2.1654                 2.4400                 1.4671
 IR Inten    --    106.5330               437.0975                45.6248

                     61                     62                     63
                      A                      A                      A
 Frequencies --   1495.7703              1500.1781              1505.5699
 Red. masses --      1.0952                 1.3648                 1.0754
 Frc consts  --      1.4437                 1.8097                 1.4363
 IR Inten    --     24.4449               326.8320                29.6800

                     64                     65                     66
                      A                      A                      A
 Frequencies --   1546.1135              1572.8337              1641.1313
 Red. masses --      2.4969                 2.1976                 1.0904
 Frc consts  --      3.5166                 3.2031                 1.7304
 IR Inten    --    220.7110               489.2788                90.1093

                     67                     68                     69
                      A                      A                      A
 Frequencies --   1652.0553              1669.6120              1677.4710
 Red. masses --      7.1313                 3.1776                 5.8218
 Frc consts  --     11.4674                 5.2190                 9.6520
 IR Inten    --    498.2278               301.3384               455.7054

                     70                     71                     72
                      A                      A                      A
 Frequencies --   3069.2641              3077.1346              3150.7232
 Red. masses --      1.0357                 1.0325                 1.1026
 Frc consts  --      5.7487                 5.7600                 6.4489
 IR Inten    --     13.0990                25.0592                12.1998

                     73                     74                     75
                      A                      A                      A
 Frequencies --   3157.8808              3158.4797              3174.3501
 Red. masses --      1.1040                 1.1051                 1.1061
 Frc consts  --      6.4864                 6.4956                 6.5668
 IR Inten    --      8.5908                13.0477                11.6639

                     76                     77                     78
                      A                      A                      A
 Frequencies --   3182.1681              3185.2518              3194.2800
 Red. masses --      1.0885                 1.0863                 1.0881
 Frc consts  --      6.4942                 6.4936                 6.5412
 IR Inten    --     15.9606                 6.4793                 4.4641

                     79                     80                     81
                      A                      A                      A
 Frequencies --   3204.2182              3220.6258              3272.9259
 Red. masses --      1.0929                 1.0978                 1.0922
 Frc consts  --      6.6109                 6.7087                 6.8935
 IR Inten    --     29.6324                23.4639                 6.2547

                     82                     83                     84
                      A                      A                      A
 Frequencies --   3504.7455              3588.6369              3614.8699
 Red. masses --      1.0508                 1.0967                 1.0767
 Frc consts  --      7.6045                 8.3211                 8.2893
 IR Inten    --     56.4468                52.9275               190.0053

 - Thermochemistry -
 -------------------
 Temperature   298.150 Kelvin.  Pressure   1.00000 Atm.
 Atom     1 has atomic number  6 and mass  12.00000

 Molecular mass:   270.03677 amu.
 Principal axes and moments of inertia in atomic units:
                           1         2         3
     Eigenvalues --  2193.341997139.272897968.77441
           X            0.99932   0.03515   0.01079
           Y           -0.03471   0.99863  -0.03910
           Z           -0.01215   0.03870   0.99918
 This molecule is an asymmetric top.
 Rotational symmetry number  1.
 Warning -- assumption of classical behavior for rotation
           may cause significant error
 Rotational temperatures (Kelvin)      0.03949     0.01213     0.01087
 Rotational constants (GHZ):           0.82283     0.25279     0.22648
    1 imaginary frequencies ignored.
 Zero-point vibrational energy     650439.7 (Joules/Mol)
                                  155.45882 (Kcal/Mol)
 Warning -- explicit consideration of  23 degrees of freedom as
           vibrations may cause significant error
 Vibrational temperatures:     30.31    40.41    92.86   100.46   117.84
          (Kelvin)            176.68   245.75   295.18   317.64   337.13
                              362.21   378.92   413.35   429.48   495.72
                              515.85   587.73   608.57   678.05   760.71
                              786.43   835.10   855.40   915.02   938.76
                             1028.37  1034.19  1074.03  1126.33  1139.64
                             1239.25  1269.04  1337.58  1385.19  1438.83
                             1458.96  1461.15  1466.07  1496.50  1518.38
                             1528.30  1542.79  1563.46  1607.72  1613.73
                             1699.36  1736.85  1800.12  1826.50  1845.64
                             1864.00  1942.07  1950.91  1958.27  2048.13
                             2083.62  2127.62  2129.56  2135.73  2152.08
                             2158.42  2166.18  2224.51  2262.96  2361.22
                             2376.94  2402.20  2413.51  4415.99  4427.31
                             4533.19  4543.49  4544.35  4567.18  4578.43
                             4582.87  4595.86  4610.16  4633.76  4709.01
                             5042.55  5163.25  5200.99

 Zero-point correction=                           0.247739 (Hartree/Particle)
 Thermal correction to Energy=                    0.263164
 Thermal correction to Enthalpy=                  0.264109
 Thermal correction to Gibbs Free Energy=         0.202774
 Sum of electronic and zero-point Energies=          -3186.901337
 Sum of electronic and thermal Energies=             -3186.885912
 Sum of electronic and thermal Enthalpies=           -3186.884967
 Sum of electronic and thermal Free Energies=        -3186.946302

                     E (Thermal)             CV                S
                      KCal/Mol        Cal/Mol-Kelvin    Cal/Mol-Kelvin
 Total                  165.138             57.172            129.090
 Electronic               0.000              0.000              0.000
 Translational            0.889              2.981             42.679
 Rotational               0.889              2.981             33.189
 Vibrational            163.361             51.210             53.222
 Vibration     1          0.593              1.985              6.531
 Vibration     2          0.593              1.984              5.960
 Vibration     3          0.597              1.971              4.313
 Vibration     4          0.598              1.969              4.158
 Vibration     5          0.600              1.962              3.845
 Vibration     6          0.610              1.930              3.056
 Vibration     7          0.626              1.878              2.427
 Vibration     8          0.640              1.833              2.086
 Vibration     9          0.647              1.809              1.953
 Vibration    10          0.654              1.788              1.846
 Vibration    11          0.664              1.760              1.718
 Vibration    12          0.670              1.740              1.639
 Vibration    13          0.684              1.697              1.490
 Vibration    14          0.692              1.676              1.425
 Vibration    15          0.723              1.586              1.191
 Vibration    16          0.733              1.558              1.128
 Vibration    17          0.773              1.452              0.932
 Vibration    18          0.785              1.420              0.882
 Vibration    19          0.828              1.314              0.734
 Vibration    20          0.884              1.186              0.590
 Vibration    21          0.902              1.147              0.551
 Vibration    22          0.937              1.074              0.485
 Vibration    23          0.952              1.043              0.459

 Optimization completed.
    -- Stationary point found.
 Normal termination of Gaussian 16 at Wed Feb 17 02:54:36 2021.
