 Gaussian 16, Revision A.03,
 Gaussian 16:  ES64L-G16RevA.03 25-Dec-2016

 ----------------------------------------------------------------------
 # wB97XD def2tzvp, opt=(ts, noeigen, calcfc, maxcycles=70, maxstep=8),
  freq=noraman, scrf=(iefpcm, solvent=water)
 ----------------------------------------------------------------------

 ------------------------
 1_iteration/TS-532-1.out
 ------------------------
 Symbolic Z-matrix:
 Charge =  0 Multiplicity = 1

 SCF Done:  E(RwB97XD) =  -3015.27896133     A.U. after   14 cycles
 SCF Done:  E(RwB97XD) =  -3015.27896133     A.U. after    7 cycles
 Optimization completed.
    -- Stationary point found.
 Normal termination of Gaussian 16 at Thu Apr 15 08:00:50 2021.

 ---------------------------------------------------------------------
 #N Geom=AllCheck Guess=TCheck SCRF=Check GenChk RwB97XD/def2TZVP Freq
 ---------------------------------------------------------------------

 Structure from the checkpoint file:  "/beegfs/scratch/user/q/tla25/Gau-215092.chk"
 ------------------------
 1_iteration/TS-532-1.out
 ------------------------
 Charge =  0 Multiplicity = 1

                         Standard orientation:
 ---------------------------------------------------------------------
 Center     Atomic      Atomic             Coordinates (Angstroms)
 Number     Number       Type             X           Y           Z
 ---------------------------------------------------------------------
      1          6           0        0.780324    0.424964    1.000005
      2          6           0        1.797156    0.122548    0.045434
      3          8           0        1.639614   -0.207250   -1.122843
      4          6           0       -0.575348    0.294889    0.781419
      5          6           0       -2.385441    1.818164   -1.138950
      6          1           0       -2.396697    2.529094   -1.967160
      7          1           0       -2.778263    0.864306   -1.487082
      8          1           0       -3.024591    2.195894   -0.343139
      9          7           0       -1.035872    1.615611   -0.620721
     10          1           0       -0.392448    1.304676   -1.341349
     11          1           0       -0.655572    2.461815   -0.212944
     12          6           0       -1.535323    0.690883    1.864475
     13          1           0       -1.237815    1.651648    2.285856
     14          1           0       -2.555891    0.762101    1.494992
     15          1           0       -1.513714   -0.059024    2.656058
     16         35           0       -1.234485   -1.289089   -0.169869
     17          1           0        1.077320    0.942973    1.902296
     18          8           0        3.040294    0.276257    0.566817
     19          6           0        4.127319    0.071044   -0.324581
     20          1           0        5.027698    0.256471    0.256069
     21          1           0        4.136288   -0.950886   -0.705086
     22          1           0        4.080365    0.762759   -1.166648
 ---------------------------------------------------------------------

 SCF Done:  E(RwB97XD) =  -3015.27896133     A.U. after    1 cycles

 The electronic state is 1-A.
 Alpha  occ. eigenvalues -- -483.12348 -62.67203 -56.46308 -56.45973 -56.45954
 Alpha  occ. eigenvalues --  -19.28059 -19.21499 -14.47664 -10.39668 -10.39539
 Alpha  occ. eigenvalues --  -10.32539 -10.31549 -10.29086 -10.25599  -8.81313
 Alpha  occ. eigenvalues --   -6.63431  -6.62369  -6.62306  -2.73821  -2.73529
 Alpha  occ. eigenvalues --   -2.73480  -2.72620  -2.72619  -1.19381  -1.09953
 Alpha  occ. eigenvalues --   -1.03242  -0.93754  -0.85511  -0.83481  -0.79531
 Alpha  occ. eigenvalues --   -0.78010  -0.68265  -0.62702  -0.62604  -0.59349
 Alpha  occ. eigenvalues --   -0.57007  -0.56631  -0.55504  -0.54880  -0.51992
 Alpha  occ. eigenvalues --   -0.51280  -0.49975  -0.48034  -0.47613  -0.47086
 Alpha  occ. eigenvalues --   -0.44323  -0.43306  -0.42423  -0.38369  -0.37303
 Alpha  occ. eigenvalues --   -0.36728  -0.34626  -0.28348
 Alpha virt. eigenvalues --    0.04060   0.06236   0.10211   0.13480   0.14485
 Alpha virt. eigenvalues --    0.14981   0.15571   0.17134   0.17600   0.18069
 Alpha virt. eigenvalues --    0.19002   0.19477   0.20066   0.20362   0.20869

 Mulliken charges:
               1
     1  C   -0.502356
     2  C    0.467525
     3  O   -0.511112
     4  C    0.202508
     5  C   -0.278463
     6  H    0.152570
     7  H    0.146797
     8  H    0.153137
     9  N   -0.360527
    10  H    0.279376
    11  H    0.276319
    12  C   -0.379750
    13  H    0.149396
    14  H    0.153004
    15  H    0.157693
    16  Br  -0.139428
    17  H    0.143652
    18  O   -0.310022
    19  C   -0.187701
    20  H    0.137527
    21  H    0.125295
    22  H    0.124558
 Sum of Mulliken charges =  -0.00000

 Dipole moment (field-independent basis, Debye):
    X=             -3.5999    Y=              5.9887    Z=              0.5259  Tot=              7.0072
 Quadrupole moment (field-independent basis, Debye-Ang):
   XX=            -64.9408   YY=            -66.1031   ZZ=            -73.2052
   XY=             -6.0445   XZ=              0.2350   YZ=             -2.2291

  Exact polarizability: 189.716  -5.768 144.882   8.885   2.961 141.755
 Approx polarizability: 137.488  -1.720 120.126   7.183   5.190 123.007

 ******    1 imaginary frequencies (negative Signs) ******

                      1                      2                      3
                      A                      A                      A
 Frequencies --   -371.4981                59.2823                63.6319
 Red. masses --      5.6254                 3.0787                 4.3985
 Frc consts  --      0.4574                 0.0064                 0.0105
 IR Inten    --    704.0634                 4.8716                 7.5863

                      4                      5                      6
                      A                      A                      A
 Frequencies --     94.3253               117.0264               141.0223
 Red. masses --      2.2904                 5.0708                 3.7587
 Frc consts  --      0.0120                 0.0409                 0.0440
 IR Inten    --      7.4466                 1.0069                11.2388

                      7                      8                      9
                      A                      A                      A
 Frequencies --    164.8613               182.2025               200.6370
 Red. masses --      1.8112                 1.1629                 1.8938
 Frc consts  --      0.0290                 0.0227                 0.0449
 IR Inten    --      9.4665                 0.7464                12.0270

                     10                     11                     12
                      A                      A                      A
 Frequencies --    238.6733               256.3487               264.1926
 Red. masses --      1.2143                 2.1680                 4.0864
 Frc consts  --      0.0408                 0.0839                 0.1680
 IR Inten    --      3.0155                 4.1339                16.1929

                     13                     14                     15
                      A                      A                      A
 Frequencies --    292.6790               334.9345               360.8964
 Red. masses --      3.0616                 4.0470                 4.4719
 Frc consts  --      0.1545                 0.2675                 0.3432
 IR Inten    --      4.2436                20.1076                41.9063

                     16                     17                     18
                      A                      A                      A
 Frequencies --    408.1637               463.9387               562.4735
 Red. masses --      3.7691                 3.5203                 2.8984
 Frc consts  --      0.3700                 0.4464                 0.5403
 IR Inten    --     42.9818                28.5431                49.0275

                     19                     20                     21
                      A                      A                      A
 Frequencies --    661.7736               685.7169               737.6548
 Red. masses --      1.2502                 1.4751                 4.9496
 Frc consts  --      0.3226                 0.4087                 1.5868
 IR Inten    --     49.3925               102.9108                 1.0632

                     22                     23                     24
                      A                      A                      A
 Frequencies --    801.4391               951.3490               993.9980
 Red. masses --      9.5879                 4.4380                 2.3269
 Frc consts  --      3.6284                 2.3665                 1.3546
 IR Inten    --    113.7901                80.6725                86.9865

                     25                     26                     27
                      A                      A                      A
 Frequencies --   1016.3121              1038.6151              1053.3258
 Red. masses --      1.1079                 1.1568                 1.7255
 Frc consts  --      0.6742                 0.7352                 1.1280
 IR Inten    --     52.4326               156.7068                64.0700

                     28                     29                     30
                      A                      A                      A
 Frequencies --   1081.5508              1105.2894              1126.1607
 Red. masses --      2.9623                 2.1852                 4.2219
 Frc consts  --      2.0416                 1.5729                 3.1547
 IR Inten    --     72.8021                77.5989                92.2038

                     31                     32                     33
                      A                      A                      A
 Frequencies --   1181.6414              1200.2211              1215.8923
 Red. masses --      1.2833                 2.1093                 1.4081
 Frc consts  --      1.0557                 1.7903                 1.2265
 IR Inten    --      1.9205              1066.6892                23.4625

                     34                     35                     36
                      A                      A                      A
 Frequencies --   1218.5427              1333.0403              1346.8806
 Red. masses --      1.5102                 2.3678                 1.3458
 Frc consts  --      1.3212                 2.4790                 1.4384
 IR Inten    --     18.0145                85.4398                26.5510

                     37                     38                     39
                      A                      A                      A
 Frequencies --   1416.1483              1458.4283              1472.4781
 Red. masses --      1.2523                 1.1912                 1.1548
 Frc consts  --      1.4797                 1.4929                 1.4753
 IR Inten    --      9.8656                36.6118                31.7410

                     40                     41                     42
                      A                      A                      A
 Frequencies --   1478.2785              1482.8115              1484.1242
 Red. masses --      1.0931                 1.0499                 1.0893
 Frc consts  --      1.4074                 1.3601                 1.4136
 IR Inten    --      2.0956                26.0060                44.6536

                     43                     44                     45
                      A                      A                      A
 Frequencies --   1492.9801              1496.4900              1506.5711
 Red. masses --      1.0452                 1.0742                 1.0413
 Frc consts  --      1.3727                 1.4174                 1.3925
 IR Inten    --     20.5315                84.1169                38.3316

                     46                     47                     48
                      A                      A                      A
 Frequencies --   1526.9548              1646.8709              1699.4597
 Red. masses --      3.3879                 1.0878                10.5119
 Frc consts  --      4.6541                 1.7383                17.8877
 IR Inten    --    910.3487                53.4994               530.5813

                     49                     50                     51
                      A                      A                      A
 Frequencies --   3058.6844              3062.0485              3069.5491
 Red. masses --      1.0312                 1.0365                 1.0362
 Frc consts  --      5.6840                 5.7261                 5.7525
 IR Inten    --     63.2987                50.7457                10.6111

                     52                     53                     54
                      A                      A                      A
 Frequencies --   3132.2312              3139.0371              3145.9406
 Red. masses --      1.1064                 1.1005                 1.1027
 Frc consts  --      6.3953                 6.3891                 6.4300
 IR Inten    --     41.2908                15.3361                11.8217

                     55                     56                     57
                      A                      A                      A
 Frequencies --   3164.8326              3167.4704              3168.7671
 Red. masses --      1.1033                 1.1048                 1.1049
 Frc consts  --      6.5111                 6.5306                 6.5369
 IR Inten    --     14.9029                13.1279                28.2032

                     58                     59                     60
                      A                      A                      A
 Frequencies --   3207.6280              3513.9845              3598.1220
 Red. masses --      1.0884                 1.0516                 1.0962
 Frc consts  --      6.5981                 7.6510                 8.3616
 IR Inten    --      2.4656                24.0551                49.4099

 - Thermochemistry -
 -------------------
 Temperature   298.150 Kelvin.  Pressure   1.00000 Atm.
 Atom     1 has atomic number  6 and mass  12.00000

 Molecular mass:   209.00514 amu.
 Principal axes and moments of inertia in atomic units:
                           1         2         3
     Eigenvalues --  1351.508423257.006083616.29816
           X            0.99809  -0.06132  -0.00760
           Y            0.06096   0.99728  -0.04133
           Z            0.01011   0.04079   0.99912
 This molecule is an asymmetric top.
 Rotational symmetry number  1.
 Warning -- assumption of classical behavior for rotation
           may cause significant error
 Rotational temperatures (Kelvin)      0.06409     0.02659     0.02395
 Rotational constants (GHZ):           1.33535     0.55411     0.49906
    1 imaginary frequencies ignored.
 Zero-point vibrational energy     475782.3 (Joules/Mol)
                                  113.71469 (Kcal/Mol)
 Warning -- explicit consideration of  17 degrees of freedom as
           vibrations may cause significant error
 Vibrational temperatures:     85.29    91.55   135.71   168.37   202.90
          (Kelvin)            237.20   262.15   288.67   343.40   368.83
                              380.11   421.10   481.90   519.25   587.26
                              667.50   809.27   952.14   986.59  1061.32
                             1153.09  1368.78  1430.14  1462.25  1494.34
                             1515.50  1556.11  1590.26  1620.29  1700.12
                             1726.85  1749.40  1753.21  1917.95  1937.86
                             2037.52  2098.35  2118.57  2126.91  2133.44
                             2135.32  2148.07  2153.12  2167.62  2196.95
                             2369.48  2445.14  4400.76  4405.60  4416.40
                             4506.58  4516.37  4526.31  4553.49  4557.28
                             4559.15  4615.06  5055.84  5176.90

 Zero-point correction=                           0.181216 (Hartree/Particle)
 Thermal correction to Energy=                    0.193704
 Thermal correction to Enthalpy=                  0.194648
 Thermal correction to Gibbs Free Energy=         0.141622
 Sum of electronic and zero-point Energies=          -3015.097745
 Sum of electronic and thermal Energies=             -3015.085258
 Sum of electronic and thermal Enthalpies=           -3015.084314
 Sum of electronic and thermal Free Energies=        -3015.137339

                     E (Thermal)             CV                S
                      KCal/Mol        Cal/Mol-Kelvin    Cal/Mol-Kelvin
 Total                  121.551             43.098            111.602
 Electronic               0.000              0.000              0.000
 Translational            0.889              2.981             41.915
 Rotational               0.889              2.981             31.143
 Vibrational            119.773             37.136             38.543
 Vibration     1          0.597              1.974              4.481
 Vibration     2          0.597              1.972              4.341
 Vibration     3          0.603              1.953              3.568
 Vibration     4          0.608              1.935              3.149
 Vibration     5          0.615              1.912              2.790
 Vibration     6          0.623              1.886              2.493
 Vibration     7          0.630              1.864              2.306
 Vibration     8          0.638              1.839              2.127
 Vibration     9          0.657              1.781              1.813
 Vibration    10          0.666              1.752              1.687
 Vibration    11          0.671              1.739              1.634
 Vibration    12          0.688              1.687              1.458
 Vibration    13          0.716              1.606              1.236
 Vibration    14          0.735              1.553              1.118
 Vibration    15          0.773              1.452              0.933
 Vibration    16          0.821              1.330              0.755
 Vibration    17          0.918              1.112              0.519

 Optimization completed.
    -- Stationary point found.
 Normal termination of Gaussian 16 at Thu Apr 15 08:07:41 2021.
