 Gaussian 16, Revision A.03,
 Gaussian 16:  ES64L-G16RevA.03 25-Dec-2016

 ----------------------------------------------------------------------
 # wB97XD def2tzvp, opt=(ts, noeigen, calcfc, maxcycles=70, maxstep=5),
  freq=noraman, scrf=(iefpcm, solvent=water)
 ----------------------------------------------------------------------

 ------------------------
 2_iteration/TS-509-2.out
 ------------------------
 Symbolic Z-matrix:
 Charge =  0 Multiplicity = 1

 SCF Done:  E(RwB97XD) =  -3034.73152961     A.U. after   15 cycles
 SCF Done:  E(RwB97XD) =  -3034.73152961     A.U. after    7 cycles
 Optimization completed.
    -- Stationary point found.
 Normal termination of Gaussian 16 at Wed Feb 17 11:33:49 2021.

 ---------------------------------------------------------------------
 #N Geom=AllCheck Guess=TCheck SCRF=Check GenChk RwB97XD/def2TZVP Freq
 ---------------------------------------------------------------------

 Structure from the checkpoint file:  "/beegfs/scratch/user/q/tla25/Gau-3705.chk"
 ------------------------
 2_iteration/TS-509-2.out
 ------------------------
 Charge =  0 Multiplicity = 1

                         Standard orientation:
 ---------------------------------------------------------------------
 Center     Atomic      Atomic             Coordinates (Angstroms)
 Number     Number       Type             X           Y           Z
 ---------------------------------------------------------------------
      1          6           0       -0.152650   -0.109397    0.380370
      2          6           0       -0.947934    1.075065    0.170975
      3          8           0       -0.427148    2.208673    0.089942
      4          6           0        1.241777   -0.059761    0.607587
      5          6           0        3.361850    1.049641   -1.179360
      6          1           0        3.539382    1.484749   -2.164466
      7          1           0        3.681519    1.762177   -0.422031
      8          1           0        3.955304    0.141766   -1.084236
      9          7           0        1.949550    0.732253   -0.981402
     10          1           0        1.360224    1.563049   -0.976625
     11          1           0        1.604692    0.111432   -1.703809
     12          6           0        2.025480   -1.348538    0.659212
     13          1           0        1.705469   -1.927601    1.527411
     14          1           0        1.874437   -1.961951   -0.226861
     15          1           0        3.088719   -1.138837    0.770118
     16          6           0        1.749944    0.935961    1.632811
     17          1           0        1.554818    0.513915    2.621003
     18          1           0        2.827552    1.075340    1.545275
     19          1           0        1.246881    1.893606    1.553307
     20         35           0       -0.931039   -1.776587   -0.213893
     21          7           0       -2.294458    0.958367    0.032842
     22          6           0       -3.141847    2.104810   -0.183319
     23          1           0       -2.722422    0.062717    0.176011
     24          1           0       -4.151115    1.755315   -0.392678
     25          1           0       -3.175120    2.763532    0.688884
     26          1           0       -2.792167    2.690932   -1.034303
 ---------------------------------------------------------------------

 SCF Done:  E(RwB97XD) =  -3034.73152961     A.U. after    1 cycles

 The electronic state is 1-A.
 Alpha  occ. eigenvalues -- -483.11655 -62.66497 -56.45587 -56.45273 -56.45262
 Alpha  occ. eigenvalues --  -19.19620 -14.47362 -14.44000 -10.37335 -10.35231
 Alpha  occ. eigenvalues --  -10.31535 -10.30446 -10.29064 -10.27977 -10.27225
 Alpha  occ. eigenvalues --   -8.80614  -6.62683  -6.61684  -6.61647  -2.73084
 Alpha  occ. eigenvalues --   -2.72800  -2.72769  -2.71961  -2.71960  -1.12164
 Alpha  occ. eigenvalues --   -1.03135  -1.00720  -0.93089  -0.87300  -0.81069
 Alpha  occ. eigenvalues --   -0.79318  -0.78970  -0.75708  -0.67526  -0.64320
 Alpha  occ. eigenvalues --   -0.62263  -0.58751  -0.55877  -0.55422  -0.54586
 Alpha  occ. eigenvalues --   -0.53603  -0.51814  -0.51222  -0.49799  -0.47854
 Alpha  occ. eigenvalues --   -0.47272  -0.47021  -0.46390  -0.45849  -0.44530
 Alpha  occ. eigenvalues --   -0.43143  -0.40547  -0.38612  -0.37092  -0.33402
 Alpha  occ. eigenvalues --   -0.32711  -0.25740
 Alpha virt. eigenvalues --    0.06136   0.09441   0.10083   0.12875   0.14031
 Alpha virt. eigenvalues --    0.14394   0.15033   0.16172   0.16965   0.17503
 Alpha virt. eigenvalues --    0.18474   0.18828   0.19717   0.20121   0.20510

 Mulliken charges:
               1
     1  C   -0.293878
     2  C    0.412634
     3  O   -0.599713
     4  C    0.164045
     5  C   -0.294354
     6  H    0.152177
     7  H    0.153350
     8  H    0.152269
     9  N   -0.327022
    10  H    0.272192
    11  H    0.274833
    12  C   -0.378989
    13  H    0.152592
    14  H    0.145757
    15  H    0.142576
    16  C   -0.399634
    17  H    0.136766
    18  H    0.129114
    19  H    0.155431
    20  Br  -0.204391
    21  N   -0.332723
    22  C   -0.245051
    23  H    0.248936
    24  H    0.137799
    25  H    0.120837
    26  H    0.124449
 Sum of Mulliken charges =   0.00000

 Dipole moment (field-independent basis, Debye):
    X=              4.6043    Y=             -0.6293    Z=             -2.1900  Tot=              5.1372
 Quadrupole moment (field-independent basis, Debye-Ang):
   XX=            -59.4891   YY=            -91.2067   ZZ=            -77.7118
   XY=              0.6654   XZ=             -4.0630   YZ=             -2.6219

  Exact polarizability: 212.959   3.681 180.047  -3.848  -0.152 143.930
 Approx polarizability: 157.360   6.604 147.895  -2.365  -0.037 123.150

 ******    1 imaginary frequencies (negative Signs) ******

                      1                      2                      3
                      A                      A                      A
 Frequencies --   -364.1360                49.2540                57.3696
 Red. masses --      5.8911                 3.1724                 2.2935
 Frc consts  --      0.4602                 0.0045                 0.0044
 IR Inten    --    741.5485                 2.0540                18.8228

                      4                      5                      6
                      A                      A                      A
 Frequencies --     70.6812                94.5987               115.3676
 Red. masses --      2.1623                 2.0080                 3.1829
 Frc consts  --      0.0064                 0.0106                 0.0250
 IR Inten    --      1.8592                 2.6648                42.2035

                      7                      8                      9
                      A                      A                      A
 Frequencies --    120.2252               170.4137               176.4259
 Red. masses --      1.8515                 2.2814                 1.5176
 Frc consts  --      0.0158                 0.0390                 0.0278
 IR Inten    --      0.5154                 6.1676                 6.0820

                     10                     11                     12
                      A                      A                      A
 Frequencies --    205.6911               230.2196               255.1122
 Red. masses --      3.1563                 2.2216                 1.8777
 Frc consts  --      0.0787                 0.0694                 0.0720
 IR Inten    --     12.6843                22.9028                 0.1599

                     13                     14                     15
                      A                      A                      A
 Frequencies --    266.3180               286.8168               301.4064
 Red. masses --      1.1709                 1.8617                 4.0829
 Frc consts  --      0.0489                 0.0902                 0.2185
 IR Inten    --      0.0341                 4.9520                32.4956

                     16                     17                     18
                      A                      A                      A
 Frequencies --    326.3976               376.4824               388.1112
 Red. masses --      3.5016                 2.1220                 1.4493
 Frc consts  --      0.2198                 0.1772                 0.1286
 IR Inten    --     17.9669                 7.8831                90.9691

                     19                     20                     21
                      A                      A                      A
 Frequencies --    405.6857               411.7171               476.2034
 Red. masses --      4.5605                 2.9589                 3.5536
 Frc consts  --      0.4422                 0.2955                 0.4748
 IR Inten    --     24.7152                 5.3977               136.9759

                     22                     23                     24
                      A                      A                      A
 Frequencies --    546.4045               695.9131               764.4026
 Red. masses --      3.1924                 1.2503                 4.4669
 Frc consts  --      0.5616                 0.3568                 1.5378
 IR Inten    --     10.5937                30.4826                19.7590

                     25                     26                     27
                      A                      A                      A
 Frequencies --    776.8015               878.0840               959.7115
 Red. masses --      9.1290                 3.7008                 1.4300
 Frc consts  --      3.2456                 1.6812                 0.7760
 IR Inten    --     56.5087                46.5103                 1.6145

                     28                     29                     30
                      A                      A                      A
 Frequencies --    975.1124              1019.5060              1043.8769
 Red. masses --      2.7119                 1.2712                 1.2824
 Frc consts  --      1.5193                 0.7785                 0.8233
 IR Inten    --     23.2072                 8.5512                13.3875

                     31                     32                     33
                      A                      A                      A
 Frequencies --   1051.8001              1063.0201              1070.5313
 Red. masses --      1.9165                 1.9974                 1.2611
 Frc consts  --      1.2492                 1.3298                 0.8515
 IR Inten    --     19.2692                91.4648               302.5311

                     34                     35                     36
                      A                      A                      A
 Frequencies --   1118.9622              1156.2890              1172.3536
 Red. masses --      2.0786                 1.2889                 1.8897
 Frc consts  --      1.5334                 1.0153                 1.5302
 IR Inten    --     15.3712                 5.1994                34.6433

                     37                     38                     39
                      A                      A                      A
 Frequencies --   1191.3851              1225.2553              1250.2229
 Red. masses --      2.6098                 1.3746                 3.4156
 Frc consts  --      2.1826                 1.2159                 3.1455
 IR Inten    --      9.8425                54.7790                32.7996

                     40                     41                     42
                      A                      A                      A
 Frequencies --   1310.3939              1353.0739              1396.2186
 Red. masses --      2.3275                 1.3138                 2.2795
 Frc consts  --      2.3547                 1.4172                 2.6182
 IR Inten    --    340.4394                13.8537               427.1194

                     43                     44                     45
                      A                      A                      A
 Frequencies --   1403.8260              1421.8973              1453.0694
 Red. masses --      1.3130                 1.3687                 1.2354
 Frc consts  --      1.5245                 1.6304                 1.5369
 IR Inten    --     38.6644               129.2195                44.0173

                     46                     47                     48
                      A                      A                      A
 Frequencies --   1465.1034              1475.7001              1477.7174
 Red. masses --      1.2231                 1.0604                 1.0625
 Frc consts  --      1.5469                 1.3605                 1.3670
 IR Inten    --     21.3678                43.5345                11.6286

                     49                     50                     51
                      A                      A                      A
 Frequencies --   1481.0773              1492.2422              1504.6461
 Red. masses --      1.0544                 1.0585                 1.0585
 Frc consts  --      1.3628                 1.3888                 1.4119
 IR Inten    --      0.7654                20.1814                20.4773

                     52                     53                     54
                      A                      A                      A
 Frequencies --   1506.5755              1507.9521              1512.2882
 Red. masses --      1.1086                 1.1367                 1.0396
 Frc consts  --      1.4826                 1.5229                 1.4009
 IR Inten    --     22.6844                60.3519                24.7674

                     55                     56                     57
                      A                      A                      A
 Frequencies --   1551.5787              1605.9341              1656.3827
 Red. masses --      2.0527                 5.8939                 1.0869
 Frc consts  --      2.9116                 8.9558                 1.7569
 IR Inten    --    714.5895               417.0882                42.0165

                     58                     59                     60
                      A                      A                      A
 Frequencies --   3040.6156              3062.7423              3064.7629
 Red. masses --      1.0405                 1.0371                 1.0391
 Frc consts  --      5.6676                 5.7318                 5.7507
 IR Inten    --    100.8668                50.2610                24.8992

                     61                     62                     63
                      A                      A                      A
 Frequencies --   3068.7947              3102.6720              3128.9167
 Red. masses --      1.0383                 1.0981                 1.1001
 Frc consts  --      5.7609                 6.2281                 6.3456
 IR Inten    --     41.1413                46.4476                25.9444

                     64                     65                     66
                      A                      A                      A
 Frequencies --   3138.0769              3140.7523              3153.9000
 Red. masses --      1.1011                 1.1003                 1.1019
 Frc consts  --      6.3883                 6.3946                 6.4578
 IR Inten    --     21.7779                32.6418                26.2236

                     67                     68                     69
                      A                      A                      A
 Frequencies --   3159.9475              3168.6954              3199.6079
 Red. masses --      1.1033                 1.1051                 1.0992
 Frc consts  --      6.4907                 6.5373                 6.6300
 IR Inten    --     28.5444                17.0835                 3.6305

                     70                     71                     72
                      A                      A                      A
 Frequencies --   3466.5667              3582.3600              3685.1398
 Red. masses --      1.0592                 1.0894                 1.0778
 Frc consts  --      7.4995                 8.2371                 8.6237
 IR Inten    --     72.5454                51.8665                72.4571

 - Thermochemistry -
 -------------------
 Temperature   298.150 Kelvin.  Pressure   1.00000 Atm.
 Atom     1 has atomic number  6 and mass  12.00000

 Molecular mass:   222.03677 amu.
 Principal axes and moments of inertia in atomic units:
                           1         2         3
     Eigenvalues --  2135.768972824.879054215.41690
           X            0.99107  -0.13334  -0.00303
           Y            0.13326   0.99089  -0.01971
           Z            0.00563   0.01913   0.99980
 This molecule is an asymmetric top.
 Rotational symmetry number  1.
 Warning -- assumption of classical behavior for rotation
           may cause significant error
 Rotational temperatures (Kelvin)      0.04055     0.03066     0.02055
 Rotational constants (GHZ):           0.84501     0.63887     0.42813
    1 imaginary frequencies ignored.
 Zero-point vibrational energy     583080.0 (Joules/Mol)
                                  139.35946 (Kcal/Mol)
 Warning -- explicit consideration of  21 degrees of freedom as
           vibrations may cause significant error
 Vibrational temperatures:     70.87    82.54   101.69   136.11   165.99
          (Kelvin)            172.98   245.19   253.84   295.94   331.23
                              367.05   383.17   412.67   433.66   469.61
                              541.67   558.41   583.69   592.37   685.15
                              786.15  1001.26  1099.80  1117.64  1263.37
                             1380.81  1402.97  1466.84  1501.91  1513.31
                             1529.45  1540.26  1609.94  1663.64  1686.76
                             1714.14  1762.87  1798.79  1885.36  1946.77
                             2008.85  2019.79  2045.79  2090.64  2107.96
                             2123.20  2126.11  2130.94  2147.00  2164.85
                             2167.63  2169.61  2175.85  2232.38  2310.58
                             2383.17  4374.77  4406.60  4409.51  4415.31
                             4464.05  4501.81  4514.99  4518.84  4537.76
                             4546.46  4559.05  4603.52  4987.62  5154.22
                             5302.09

 Zero-point correction=                           0.222083 (Hartree/Particle)
 Thermal correction to Energy=                    0.236457
 Thermal correction to Enthalpy=                  0.237401
 Thermal correction to Gibbs Free Energy=         0.180122
 Sum of electronic and zero-point Energies=          -3034.509446
 Sum of electronic and thermal Energies=             -3034.495073
 Sum of electronic and thermal Enthalpies=           -3034.494129
 Sum of electronic and thermal Free Energies=        -3034.551407

                     E (Thermal)             CV                S
                      KCal/Mol        Cal/Mol-Kelvin    Cal/Mol-Kelvin
 Total                  148.379             49.975            120.554
 Electronic               0.000              0.000              0.000
 Translational            0.889              2.981             42.096
 Rotational               0.889              2.981             31.609
 Vibrational            146.601             44.014             46.849
 Vibration     1          0.595              1.978              4.847
 Vibration     2          0.596              1.975              4.546
 Vibration     3          0.598              1.968              4.134
 Vibration     4          0.603              1.953              3.563
 Vibration     5          0.608              1.937              3.177
 Vibration     6          0.609              1.932              3.097
 Vibration     7          0.626              1.879              2.431
 Vibration     8          0.628              1.871              2.366
 Vibration     9          0.640              1.832              2.082
 Vibration    10          0.652              1.795              1.877
 Vibration    11          0.665              1.754              1.695
 Vibration    12          0.672              1.735              1.620
 Vibration    13          0.684              1.698              1.493
 Vibration    14          0.693              1.671              1.409
 Vibration    15          0.710              1.623              1.278
 Vibration    16          0.747              1.520              1.053
 Vibration    17          0.756              1.496              1.007
 Vibration    18          0.771              1.458              0.942
 Vibration    19          0.776              1.445              0.921
 Vibration    20          0.833              1.303              0.720
 Vibration    21          0.902              1.148              0.552

 Optimization completed.
    -- Stationary point found.
 Normal termination of Gaussian 16 at Wed Feb 17 12:03:04 2021.
