 Gaussian 16, Revision A.03,
 Gaussian 16:  ES64L-G16RevA.03 25-Dec-2016

 ----------------------------------------------------------------------
 # wB97XD def2tzvp, opt=(ts, noeigen, calcfc, maxcycles=70, maxstep=8),
  freq=noraman, scrf=(iefpcm, solvent=water)
 ----------------------------------------------------------------------

 ------------------------
 1_iteration/TS-564-1.out
 ------------------------
 Symbolic Z-matrix:
 Charge =  0 Multiplicity = 1

 SCF Done:  E(RwB97XD) =  -1132.31278725     A.U. after   15 cycles
 SCF Done:  E(RwB97XD) =  -1132.31543767     A.U. after   13 cycles
 SCF Done:  E(RwB97XD) =  -1132.31821376     A.U. after   13 cycles
 SCF Done:  E(RwB97XD) =  -1132.32099117     A.U. after   13 cycles
 SCF Done:  E(RwB97XD) =  -1132.32382764     A.U. after   13 cycles
 SCF Done:  E(RwB97XD) =  -1132.32623454     A.U. after   13 cycles
 SCF Done:  E(RwB97XD) =  -1132.32645947     A.U. after   12 cycles
 SCF Done:  E(RwB97XD) =  -1132.32616992     A.U. after   12 cycles
 SCF Done:  E(RwB97XD) =  -1132.32620121     A.U. after   12 cycles
 SCF Done:  E(RwB97XD) =  -1132.32655727     A.U. after   12 cycles
 SCF Done:  E(RwB97XD) =  -1132.32661922     A.U. after   10 cycles
 SCF Done:  E(RwB97XD) =  -1132.32662079     A.U. after   10 cycles
 SCF Done:  E(RwB97XD) =  -1132.32660498     A.U. after   11 cycles
 SCF Done:  E(RwB97XD) =  -1132.32662137     A.U. after   11 cycles
 SCF Done:  E(RwB97XD) =  -1132.32662148     A.U. after    7 cycles
 SCF Done:  E(RwB97XD) =  -1132.32656885     A.U. after   11 cycles
 SCF Done:  E(RwB97XD) =  -1132.32662164     A.U. after   11 cycles
 SCF Done:  E(RwB97XD) =  -1132.32662160     A.U. after    7 cycles
 SCF Done:  E(RwB97XD) =  -1132.32662155     A.U. after    6 cycles
 Optimization completed.
    -- Stationary point found.
 Normal termination of Gaussian 16 at Wed Feb 17 12:57:58 2021.

 ---------------------------------------------------------------------
 #N Geom=AllCheck Guess=TCheck SCRF=Check GenChk RwB97XD/def2TZVP Freq
 ---------------------------------------------------------------------

 Structure from the checkpoint file:  "/beegfs/scratch/user/q/tla25/Gau-64477.chk"
 ------------------------
 1_iteration/TS-564-1.out
 ------------------------
 Charge =  0 Multiplicity = 1

                         Standard orientation:
 ---------------------------------------------------------------------
 Center     Atomic      Atomic             Coordinates (Angstroms)
 Number     Number       Type             X           Y           Z
 ---------------------------------------------------------------------
      1          6           0       -0.099048    0.128038   -0.260438
      2          6           0       -0.735244    1.421752   -0.278591
      3          8           0       -0.172082    2.488108   -0.467404
      4          6           0       -0.787977   -1.078912   -0.270788
      5          6           0       -1.029897   -1.083758    2.586103
      6          1           0       -1.619247   -0.843721    3.471628
      7          1           0       -0.485732   -2.009897    2.760311
      8          1           0       -0.314305   -0.279063    2.412024
      9          7           0       -1.857040   -1.218640    1.398741
     10          1           0       -2.420507   -2.060100    1.405279
     11          1           0       -2.463713   -0.416422    1.271110
     12          6           0       -0.050818   -2.386984   -0.195208
     13          1           0        0.713959   -2.346592    0.579065
     14          1           0       -0.737265   -3.204053    0.014858
     15          1           0        0.438071   -2.592775   -1.147046
     16         17           0       -2.221828   -1.262961   -1.349115
     17          6           0        1.389867    0.134696   -0.155526
     18          6           0        2.181425   -0.356594   -1.192869
     19          6           0        3.566508   -0.353005   -1.106332
     20          6           0        4.191983    0.161092    0.019705
     21          6           0        3.420249    0.673094    1.054136
     22          6           0        2.037048    0.656823    0.964803
     23          1           0        1.702262   -0.742418   -2.084749
     24          1           0        4.157368   -0.744969   -1.925062
     25          1           0        5.272486    0.168059    0.089519
     26          1           0        3.897335    1.082733    1.936013
     27          1           0        1.446242    1.062468    1.777447
     28          8           0       -2.062994    1.381853   -0.007204
     29          6           0       -2.763064    2.617774   -0.064039
     30          1           0       -2.677914    3.067777   -1.053268
     31          1           0       -3.802428    2.379397    0.147203
     32          1           0       -2.381845    3.316606    0.680582
 ---------------------------------------------------------------------

 SCF Done:  E(RwB97XD) =  -1132.32662155     A.U. after    1 cycles

 The electronic state is 1-A.
 Alpha  occ. eigenvalues -- -101.69008 -19.28608 -19.21563 -14.47406 -10.39995
 Alpha  occ. eigenvalues --  -10.39984 -10.32801 -10.31405 -10.29862 -10.28919
 Alpha  occ. eigenvalues --  -10.28710 -10.28689 -10.28610 -10.28478 -10.28438
 Alpha  occ. eigenvalues --  -10.26939  -9.57615  -7.32235  -7.31413  -7.31369
 Alpha  occ. eigenvalues --   -1.19923  -1.10229  -1.03469  -0.97464  -0.95852
 Alpha  occ. eigenvalues --   -0.89110  -0.84826  -0.84209  -0.83716  -0.78561
 Alpha  occ. eigenvalues --   -0.78504  -0.70217  -0.69871  -0.68203  -0.64113
 Alpha  occ. eigenvalues --   -0.62812  -0.61004  -0.58575  -0.57653  -0.56701
 Alpha  occ. eigenvalues --   -0.56455  -0.54873  -0.53973  -0.53706  -0.52007
 Alpha  occ. eigenvalues --   -0.51465  -0.50513  -0.49916  -0.48312  -0.47865
 Alpha  occ. eigenvalues --   -0.47472  -0.46825  -0.45978  -0.44107  -0.43711
 Alpha  occ. eigenvalues --   -0.42352  -0.42263  -0.39694  -0.37952  -0.37488
 Alpha  occ. eigenvalues --   -0.35757  -0.33508  -0.33376  -0.27675
 Alpha virt. eigenvalues --    0.03445   0.05449   0.05829   0.08962   0.10483
 Alpha virt. eigenvalues --    0.12857   0.13158   0.14393   0.14871   0.15943
 Alpha virt. eigenvalues --    0.16148   0.16790   0.17362   0.18580   0.19079

 Mulliken charges:
               1
     1  C   -0.295575
     2  C    0.399882
     3  O   -0.487497
     4  C    0.201519
     5  C   -0.277845
     6  H    0.154806
     7  H    0.157519
     8  H    0.120950
     9  N   -0.355551
    10  H    0.281012
    11  H    0.275736
    12  C   -0.387924
    13  H    0.159647
    14  H    0.154704
    15  H    0.157881
    16  Cl  -0.140480
    17  C    0.215037
    18  C   -0.261173
    19  C   -0.146753
    20  C   -0.149004
    21  C   -0.146524
    22  C   -0.237251
    23  H    0.153565
    24  H    0.138837
    25  H    0.141545
    26  H    0.138566
    27  H    0.153748
    28  O   -0.318725
    29  C   -0.198881
    30  H    0.130595
    31  H    0.138989
    32  H    0.128647
 Sum of Mulliken charges =  -0.00000

 Dipole moment (field-independent basis, Debye):
    X=             -3.4950    Y=             -5.7175    Z=              5.5825  Tot=              8.7218
 Quadrupole moment (field-independent basis, Debye-Ang):
   XX=            -88.9351   YY=           -104.4815   ZZ=            -93.9186
   XY=             -3.5891   XZ=             -8.3940   YZ=             -0.0410

  Exact polarizability: 274.218  13.393 221.535  -3.404   9.511 222.505
 Approx polarizability: 213.121  10.564 181.261  -1.585   9.760 187.991

 ******    1 imaginary frequencies (negative Signs) ******

                      1                      2                      3
                      A                      A                      A
 Frequencies --   -373.3479                38.6520                52.5599
 Red. masses --      5.5463                 3.4856                 3.2196
 Frc consts  --      0.4555                 0.0031                 0.0052
 IR Inten    --    704.6028                 0.6917                 0.3014

                      4                      5                      6
                      A                      A                      A
 Frequencies --     71.7539                75.4814                90.1536
 Red. masses --      3.8622                 4.8285                 4.3525
 Frc consts  --      0.0117                 0.0162                 0.0208
 IR Inten    --      5.7294                 5.4541                 0.1767

                      7                      8                      9
                      A                      A                      A
 Frequencies --     94.5817               140.4081               154.8927
 Red. masses --      3.0935                 2.4522                 1.2583
 Frc consts  --      0.0163                 0.0285                 0.0178
 IR Inten    --      5.2789                 4.3260                 3.4044

                     10                     11                     12
                      A                      A                      A
 Frequencies --    167.0747               184.6336               197.1988
 Red. masses --      2.8883                 2.0610                 2.2065
 Frc consts  --      0.0475                 0.0414                 0.0506
 IR Inten    --      1.3116                 5.8719                 4.0558

                     13                     14                     15
                      A                      A                      A
 Frequencies --    240.9548               260.5708               273.6271
 Red. masses --      3.3579                 2.5811                 4.0809
 Frc consts  --      0.1149                 0.1033                 0.1800
 IR Inten    --     18.2247                 0.8270                 5.9454

                     16                     17                     18
                      A                      A                      A
 Frequencies --    290.9730               304.8253               319.0505
 Red. masses --      3.4592                 2.2931                 2.1459
 Frc consts  --      0.1726                 0.1255                 0.1287
 IR Inten    --      9.2242                10.6003                38.1380

                     19                     20                     21
                      A                      A                      A
 Frequencies --    358.0156               379.7636               384.4950
 Red. masses --      3.8463                 3.1916                 4.6561
 Frc consts  --      0.2905                 0.2712                 0.4056
 IR Inten    --     14.0290                 8.1271                12.8683

                     22                     23                     24
                      A                      A                      A
 Frequencies --    428.5397               500.0093               535.2131
 Red. masses --      2.8914                 5.3444                 3.6285
 Frc consts  --      0.3129                 0.7872                 0.6124
 IR Inten    --      0.4723                20.0156                26.1471

                     25                     26                     27
                      A                      A                      A
 Frequencies --    556.2753               625.1051               639.9113
 Red. masses --      5.5461                 2.4635                 4.8293
 Frc consts  --      1.0111                 0.5672                 1.1651
 IR Inten    --     71.4382                43.0726                 2.3183

                     28                     29                     30
                      A                      A                      A
 Frequencies --    675.2274               725.1155               732.4788
 Red. masses --      2.3856                 3.5499                 1.4602
 Frc consts  --      0.6408                 1.0997                 0.4616
 IR Inten    --     36.9585                62.4568               191.3212

                     31                     32                     33
                      A                      A                      A
 Frequencies --    801.1927               806.6301               813.1821
 Red. masses --      4.4358                 3.2272                 5.6714
 Frc consts  --      1.6776                 1.2372                 2.2096
 IR Inten    --     57.5050                14.5341                71.0992

                     34                     35                     36
                      A                      A                      A
 Frequencies --    880.6267               931.4543               963.2156
 Red. masses --      1.2466                 3.6241                 1.5683
 Frc consts  --      0.5696                 1.8526                 0.8573
 IR Inten    --      0.6867                34.1437                 5.2628

                     37                     38                     39
                      A                      A                      A
 Frequencies --    986.1168              1014.4088              1021.7518
 Red. masses --      1.0993                 1.3694                 1.2057
 Frc consts  --      0.6298                 0.8303                 0.7416
 IR Inten    --     56.8445                 1.4261                86.1096

                     40                     41                     42
                      A                      A                      A
 Frequencies --   1026.2084              1027.5934              1053.2904
 Red. masses --      2.3184                 1.9600                 1.6869
 Frc consts  --      1.4385                 1.2194                 1.1027
 IR Inten    --      0.0863                 1.0664                69.1887

                     43                     44                     45
                      A                      A                      A
 Frequencies --   1057.6207              1074.8318              1091.5642
 Red. masses --      2.3791                 1.8474                 3.6247
 Frc consts  --      1.5679                 1.2575                 2.5446
 IR Inten    --     27.2868                 2.6172                 8.4834

                     46                     47                     48
                      A                      A                      A
 Frequencies --   1101.5547              1112.3430              1127.3798
 Red. masses --      3.6188                 1.6901                 2.9604
 Frc consts  --      2.5872                 1.2321                 2.2169
 IR Inten    --     77.7778                41.8882               159.2553

                     49                     50                     51
                      A                      A                      A
 Frequencies --   1181.5355              1181.8078              1201.4508
 Red. masses --      1.1310                 1.2823                 1.4306
 Frc consts  --      0.9303                 1.0552                 1.2167
 IR Inten    --      0.0975                 1.5616                43.8030

                     52                     53                     54
                      A                      A                      A
 Frequencies --   1208.9972              1216.7586              1239.3033
 Red. masses --      1.1237                 1.5223                 4.8067
 Frc consts  --      0.9677                 1.3279                 4.3496
 IR Inten    --      0.2423                31.7882               394.3702

                     55                     56                     57
                      A                      A                      A
 Frequencies --   1308.7012              1341.5501              1355.2837
 Red. masses --      4.4987                 1.5328                 2.1894
 Frc consts  --      4.5396                 1.6254                 2.3694
 IR Inten    --     17.2134                83.7544               221.0643

                     58                     59                     60
                      A                      A                      A
 Frequencies --   1360.0528              1419.3087              1447.1560
 Red. masses --      1.8666                 1.3017                 1.5493
 Frc consts  --      2.0343                 1.5449                 1.9117
 IR Inten    --    147.6247                71.7265               300.6231

                     61                     62                     63
                      A                      A                      A
 Frequencies --   1465.7711              1477.9284              1481.4710
 Red. masses --      1.6385                 1.1436                 1.0451
 Frc consts  --      2.0741                 1.4718                 1.3514
 IR Inten    --    268.4356                48.5670                 9.3265

                     64                     65                     66
                      A                      A                      A
 Frequencies --   1482.4036              1486.9017              1490.7745
 Red. masses --      1.1065                 1.9069                 1.0695
 Frc consts  --      1.4326                 2.4840                 1.4004
 IR Inten    --     18.7304                 3.7880                11.0394

                     67                     68                     69
                      A                      A                      A
 Frequencies --   1496.6947              1503.9977              1507.3234
 Red. masses --      1.0673                 1.1946                 1.2583
 Frc consts  --      1.4087                 1.5920                 1.6844
 IR Inten    --      9.2717               102.1377                93.1124

                     70                     71                     72
                      A                      A                      A
 Frequencies --   1544.9454              1643.4426              1645.2202
 Red. masses --      2.4599                 1.0999                 5.7038
 Frc consts  --      3.4594                 1.7503                 9.0962
 IR Inten    --     88.5518                84.8802                 2.9981

                     73                     74                     75
                      A                      A                      A
 Frequencies --   1670.5909              1700.8949              3064.0174
 Red. masses --      6.0407                10.3815                 1.0307
 Frc consts  --      9.9329                17.6956                 5.7013
 IR Inten    --     31.6354               917.3936                63.7796

                     76                     77                     78
                      A                      A                      A
 Frequencies --   3065.0771              3078.9469              3136.9366
 Red. masses --      1.0333                 1.0356                 1.1036
 Frc consts  --      5.7193                 5.7845                 6.3987
 IR Inten    --     46.4138                 8.4832                 9.9257

                     79                     80                     81
                      A                      A                      A
 Frequencies --   3140.7822              3156.4090              3163.1055
 Red. masses --      1.1069                 1.1018                 1.1047
 Frc consts  --      6.4330                 6.4674                 6.5123
 IR Inten    --     36.2236                 9.5123                18.9302

                     82                     83                     84
                      A                      A                      A
 Frequencies --   3169.3053              3172.2142              3187.8931
 Red. masses --      1.1042                 1.1057                 1.0856
 Frc consts  --      6.5344                 6.5556                 6.5003
 IR Inten    --     20.7040                23.6902                 8.7148

                     85                     86                     87
                      A                      A                      A
 Frequencies --   3191.2928              3201.0553              3207.5634
 Red. masses --      1.0880                 1.0914                 1.0952
 Frc consts  --      6.5286                 6.5888                 6.6387
 IR Inten    --      1.3302                16.1122                51.3863

                     88                     89                     90
                      A                      A                      A
 Frequencies --   3218.9124              3523.6646              3612.9291
 Red. masses --      1.0988                 1.0503                 1.0970
 Frc consts  --      6.7079                 7.6833                 8.4365
 IR Inten    --     19.4471                45.6056                81.8586

 - Thermochemistry -
 -------------------
 Temperature   298.150 Kelvin.  Pressure   1.00000 Atm.
 Atom     1 has atomic number  6 and mass  12.00000

 Molecular mass:   241.08696 amu.
 Principal axes and moments of inertia in atomic units:
                           1         2         3
     Eigenvalues --  2735.080055118.254755845.87566
           X            0.99945  -0.02706  -0.01929
           Y            0.02648   0.99921  -0.02970
           Z            0.02008   0.02917   0.99937
 This molecule is an asymmetric top.
 Rotational symmetry number  1.
 Warning -- assumption of classical behavior for rotation
           may cause significant error
 Rotational temperatures (Kelvin)      0.03167     0.01692     0.01482
 Rotational constants (GHZ):           0.65985     0.35261     0.30872
    1 imaginary frequencies ignored.
 Zero-point vibrational energy     692272.2 (Joules/Mol)
                                  165.45703 (Kcal/Mol)
 Warning -- explicit consideration of  24 degrees of freedom as
           vibrations may cause significant error
 Vibrational temperatures:     55.61    75.62   103.24   108.60   129.71
          (Kelvin)            136.08   202.02   222.86   240.38   265.65
                              283.73   346.68   374.90   393.69   418.65
                              438.58   459.04   515.10   546.40   553.20
                              616.57   719.40   770.05   800.36   899.39
                              920.69   971.50  1043.28  1053.87  1152.74
                             1160.56  1169.99  1267.03  1340.15  1385.85
                             1418.80  1459.51  1470.07  1476.49  1478.48
                             1515.45  1521.68  1546.44  1570.52  1584.89
                             1600.41  1622.05  1699.97  1700.36  1728.62
                             1739.48  1750.64  1783.08  1882.93  1930.19
                             1949.95  1956.81  2042.07  2082.13  2108.92
                             2126.41  2131.51  2132.85  2139.32  2144.89
                             2153.41  2163.92  2168.70  2222.83  2364.55
                             2367.10  2403.61  2447.21  4408.44  4409.96
                             4429.92  4513.35  4518.89  4541.37  4551.00
                             4559.92  4564.11  4586.67  4591.56  4605.60
                             4614.97  4631.30  5069.77  5198.20

 Zero-point correction=                           0.263673 (Hartree/Particle)
 Thermal correction to Energy=                    0.280449
 Thermal correction to Enthalpy=                  0.281393
 Thermal correction to Gibbs Free Energy=         0.218721
 Sum of electronic and zero-point Energies=          -1132.062949
 Sum of electronic and thermal Energies=             -1132.046173
 Sum of electronic and thermal Enthalpies=           -1132.045229
 Sum of electronic and thermal Free Energies=        -1132.107901

                     E (Thermal)             CV                S
                      KCal/Mol        Cal/Mol-Kelvin    Cal/Mol-Kelvin
 Total                  175.984             61.301            131.905
 Electronic               0.000              0.000              0.000
 Translational            0.889              2.981             42.341
 Rotational               0.889              2.981             32.770
 Vibrational            174.207             55.339             56.793
 Vibration     1          0.594              1.981              5.327
 Vibration     2          0.596              1.977              4.719
 Vibration     3          0.598              1.967              4.105
 Vibration     4          0.599              1.965              4.005
 Vibration     5          0.602              1.956              3.657
 Vibration     6          0.603              1.953              3.563
 Vibration     7          0.615              1.913              2.798
 Vibration     8          0.620              1.897              2.611
 Vibration     9          0.624              1.883              2.468
 Vibration    10          0.631              1.861              2.281
 Vibration    11          0.637              1.844              2.159
 Vibration    12          0.658              1.778              1.796
 Vibration    13          0.669              1.745              1.658
 Vibration    14          0.676              1.722              1.573
 Vibration    15          0.687              1.691              1.468
 Vibration    16          0.696              1.665              1.390
 Vibration    17          0.705              1.637              1.315
 Vibration    18          0.733              1.559              1.131
 Vibration    19          0.750              1.513              1.040
 Vibration    20          0.753              1.503              1.021
 Vibration    21          0.790              1.408              0.863
 Vibration    22          0.855              1.250              0.658
 Vibration    23          0.890              1.172              0.576
 Vibration    24          0.912              1.126              0.531

 Optimization completed.
    -- Stationary point found.
 Normal termination of Gaussian 16 at Wed Feb 17 14:13:50 2021.
