 Gaussian 16, Revision A.03,
 Gaussian 16:  ES64L-G16RevA.03 25-Dec-2016

 ----------------------------------------------------------------------
 # wB97XD def2tzvp, opt=(ts, noeigen, calcfc, maxcycles=70, maxstep=1),
  freq=noraman, scrf=(iefpcm, solvent=water)
 ----------------------------------------------------------------------

 ------------------------
 0_iteration/TS-533-0.out
 ------------------------
 Symbolic Z-matrix:
 Charge =  0 Multiplicity = 1

 SCF Done:  E(RwB97XD) =  -2995.40833263     A.U. after   15 cycles
 SCF Done:  E(RwB97XD) =  -2995.40837424     A.U. after   10 cycles
 SCF Done:  E(RwB97XD) =  -2995.40841526     A.U. after   10 cycles
 SCF Done:  E(RwB97XD) =  -2995.40845355     A.U. after   10 cycles
 SCF Done:  E(RwB97XD) =  -2995.40848907     A.U. after   10 cycles
 SCF Done:  E(RwB97XD) =  -2995.40852166     A.U. after   10 cycles
 SCF Done:  E(RwB97XD) =  -2995.40855117     A.U. after   10 cycles
 SCF Done:  E(RwB97XD) =  -2995.40857747     A.U. after   10 cycles
 SCF Done:  E(RwB97XD) =  -2995.40860034     A.U. after   10 cycles
 SCF Done:  E(RwB97XD) =  -2995.40861955     A.U. after   10 cycles
 SCF Done:  E(RwB97XD) =  -2995.40835295     A.U. after    7 cycles
 SCF Done:  E(RwB97XD) =  -2995.40835330     A.U. after    9 cycles
 SCF Done:  E(RwB97XD) =  -2995.40834960     A.U. after    9 cycles
 SCF Done:  E(RwB97XD) =  -2995.40835157     A.U. after   10 cycles
 SCF Done:  E(RwB97XD) =  -2995.40835005     A.U. after   10 cycles
 SCF Done:  E(RwB97XD) =  -2995.40835161     A.U. after    9 cycles
 SCF Done:  E(RwB97XD) =  -2995.40835159     A.U. after    8 cycles
 SCF Done:  E(RwB97XD) =  -2995.40835144     A.U. after    8 cycles
 SCF Done:  E(RwB97XD) =  -2995.40835155     A.U. after    7 cycles
 Optimization completed.
    -- Stationary point found.
 Normal termination of Gaussian 16 at Mon Feb 15 22:53:51 2021.

 ---------------------------------------------------------------------
 #N Geom=AllCheck Guess=TCheck SCRF=Check GenChk RwB97XD/def2TZVP Freq
 ---------------------------------------------------------------------

 Structure from the checkpoint file:  "/beegfs/scratch/user/q/tla25/Gau-4217.chk"
 ------------------------
 0_iteration/TS-533-0.out
 ------------------------
 Charge =  0 Multiplicity = 1

                         Standard orientation:
 ---------------------------------------------------------------------
 Center     Atomic      Atomic             Coordinates (Angstroms)
 Number     Number       Type             X           Y           Z
 ---------------------------------------------------------------------
      1          6           0       -0.656934    1.043689   -0.915361
      2          6           0       -1.934148    0.624437   -0.390520
      3          8           0       -2.986898    1.184904   -0.730365
      4          6           0        0.626878    0.665721   -0.578708
      5          6           0        2.178549    0.909867    1.964220
      6          1           0        2.117145    1.281299    2.987829
      7          1           0        2.355229   -0.163031    1.983693
      8          1           0        3.007282    1.401617    1.459581
      9          7           0        0.938208    1.178631    1.234681
     10          1           0        0.134830    0.771625    1.703715
     11          1           0        0.760611    2.174518    1.159778
     12          6           0        1.780615    1.330153   -1.277646
     13          1           0        1.635224    2.411025   -1.275353
     14          1           0        2.733185    1.097991   -0.806890
     15          1           0        1.821343    0.985882   -2.310890
     16         35           0        1.049906   -1.281497   -0.363988
     17          1           0       -0.716108    1.917206   -1.553550
     18          7           0       -1.977769   -0.374326    0.548512
     19          6           0       -3.245622   -0.906278    0.995964
     20          1           0       -1.192027   -1.001329    0.591113
     21          1           0       -3.811211   -1.374496    0.184840
     22          1           0       -3.056012   -1.650916    1.767104
     23          1           0       -3.860135   -0.113900    1.421474
 ---------------------------------------------------------------------

 SCF Done:  E(RwB97XD) =  -2995.40835155     A.U. after    1 cycles

 The electronic state is 1-A.
 Alpha  occ. eigenvalues -- -483.12683 -62.67539 -56.46629 -56.46314 -56.46303
 Alpha  occ. eigenvalues --  -19.19293 -14.49162 -14.43992 -10.39878 -10.37044
 Alpha  occ. eigenvalues --  -10.32019 -10.30297 -10.29172 -10.24960  -8.81643
 Alpha  occ. eigenvalues --   -6.63706  -6.62712  -6.62677  -2.74099  -2.73827
 Alpha  occ. eigenvalues --   -2.73799  -2.72996  -2.72994  -1.11901  -1.04550
 Alpha  occ. eigenvalues --   -1.00563  -0.93388  -0.85091  -0.82511  -0.79448
 Alpha  occ. eigenvalues --   -0.77187  -0.67820  -0.65256  -0.63570  -0.59771
 Alpha  occ. eigenvalues --   -0.57165  -0.55846  -0.54698  -0.53111  -0.51808
 Alpha  occ. eigenvalues --   -0.50282  -0.50039  -0.48458  -0.47135  -0.46615
 Alpha  occ. eigenvalues --   -0.46136  -0.43394  -0.42965  -0.37570  -0.37351
 Alpha  occ. eigenvalues --   -0.33847  -0.32822  -0.27448
 Alpha virt. eigenvalues --    0.04100   0.06310   0.09749   0.13056   0.14134
 Alpha virt. eigenvalues --    0.14768   0.15096   0.16288   0.17383   0.18412
 Alpha virt. eigenvalues --    0.18708   0.19418   0.19525   0.20534   0.20801

 Mulliken charges:
               1
     1  C   -0.446809
     2  C    0.374335
     3  O   -0.564670
     4  C    0.137313
     5  C   -0.281435
     6  H    0.159515
     7  H    0.153056
     8  H    0.155422
     9  N   -0.302377
    10  H    0.273565
    11  H    0.284124
    12  C   -0.378834
    13  H    0.153031
    14  H    0.151943
    15  H    0.159284
    16  Br  -0.181245
    17  H    0.127864
    18  N   -0.335767
    19  C   -0.259562
    20  H    0.236268
    21  H    0.119355
    22  H    0.136964
    23  H    0.128661
 Sum of Mulliken charges =  -0.00000

 Dipole moment (field-independent basis, Debye):
    X=              8.3346    Y=              0.6502    Z=              6.1160  Tot=             10.3582
 Quadrupole moment (field-independent basis, Debye-Ang):
   XX=            -87.2111   YY=            -71.0982   ZZ=            -69.4532
   XY=             17.7168   XZ=             -4.9697   YZ=              3.6823

  Exact polarizability: 194.088  -6.913 159.615  13.437  -6.374 148.308
 Approx polarizability: 145.180  -7.655 132.685   9.563  -5.854 122.457

 ******    1 imaginary frequencies (negative Signs) ******

                      1                      2                      3
                      A                      A                      A
 Frequencies --   -404.4394                32.7940                69.8035
 Red. masses --      5.2744                 2.4806                 2.5359
 Frc consts  --      0.5083                 0.0016                 0.0073
 IR Inten    --    590.1725                 2.5336                 9.9910

                      4                      5                      6
                      A                      A                      A
 Frequencies --     81.1344               119.1692               125.7128
 Red. masses --      2.8012                 3.3616                 1.3649
 Frc consts  --      0.0109                 0.0281                 0.0127
 IR Inten    --      9.5526                 7.3021                 4.2825

                      7                      8                      9
                      A                      A                      A
 Frequencies --    161.4601               173.9912               199.6815
 Red. masses --      3.2321                 1.6307                 2.4891
 Frc consts  --      0.0496                 0.0291                 0.0585
 IR Inten    --      2.7755                13.2908                15.5840

                     10                     11                     12
                      A                      A                      A
 Frequencies --    233.1548               244.0812               268.9100
 Red. masses --      1.2131                 3.3567                 2.5157
 Frc consts  --      0.0389                 0.1178                 0.1072
 IR Inten    --      4.2227                13.3911                 6.9371

                     13                     14                     15
                      A                      A                      A
 Frequencies --    287.3867               327.7518               366.8986
 Red. masses --      2.9820                 4.2739                 3.7434
 Frc consts  --      0.1451                 0.2705                 0.2969
 IR Inten    --     11.5893                38.1719                 5.1609

                     16                     17                     18
                      A                      A                      A
 Frequencies --    394.0800               448.3698               517.9023
 Red. masses --      3.8481                 2.4262                 1.3490
 Frc consts  --      0.3521                 0.2874                 0.2132
 IR Inten    --     47.7417                56.4463               220.7510

                     19                     20                     21
                      A                      A                      A
 Frequencies --    579.4860               653.7772               698.2006
 Red. masses --      3.2378                 1.4929                 1.4884
 Frc consts  --      0.6406                 0.3760                 0.4275
 IR Inten    --     82.3754                81.0661                28.7647

                     22                     23                     24
                      A                      A                      A
 Frequencies --    722.1729               796.3344               890.6330
 Red. masses --      2.8454                 7.4125                 2.6628
 Frc consts  --      0.8743                 2.7695                 1.2445
 IR Inten    --     31.4985                91.4389                31.1257

                     25                     26                     27
                      A                      A                      A
 Frequencies --   1013.3666              1027.0338              1048.4469
 Red. masses --      1.3100                 1.6533                 1.8570
 Frc consts  --      0.7926                 1.0275                 1.2027
 IR Inten    --     36.2970               170.7921                22.8184

                     28                     29                     30
                      A                      A                      A
 Frequencies --   1053.9178              1088.9165              1109.4928
 Red. masses --      1.3194                 1.7563                 2.6039
 Frc consts  --      0.8635                 1.2270                 1.8885
 IR Inten    --     93.1074                87.5127                73.7122

                     31                     32                     33
                      A                      A                      A
 Frequencies --   1145.7111              1159.5679              1187.3325
 Red. masses --      1.5115                 2.2509                 1.9266
 Frc consts  --      1.1690                 1.7832                 1.6002
 IR Inten    --     11.6197                14.4037                13.4658

                     34                     35                     36
                      A                      A                      A
 Frequencies --   1241.2952              1270.3215              1317.8781
 Red. masses --      1.3626                 1.3275                 2.5401
 Frc consts  --      1.2370                 1.2622                 2.5993
 IR Inten    --     51.1623               398.9762               326.8276

                     37                     38                     39
                      A                      A                      A
 Frequencies --   1346.7945              1415.4006              1452.9115
 Red. masses --      1.3405                 1.2386                 1.2066
 Frc consts  --      1.4325                 1.4620                 1.5007
 IR Inten    --     22.6429                 7.5392                21.4292

                     40                     41                     42
                      A                      A                      A
 Frequencies --   1455.6142              1475.5306              1477.3255
 Red. masses --      1.2010                 1.1334                 1.0586
 Frc consts  --      1.4993                 1.4539                 1.3612
 IR Inten    --      7.9883                61.1181                27.0372

                     43                     44                     45
                      A                      A                      A
 Frequencies --   1481.3586              1491.5321              1500.7751
 Red. masses --      1.0720                 1.0496                 1.2190
 Frc consts  --      1.3860                 1.3758                 1.6177
 IR Inten    --     25.4295                22.0032                73.7766

                     46                     47                     48
                      A                      A                      A
 Frequencies --   1503.2392              1511.0863              1558.3239
 Red. masses --      1.0560                 2.2030                 1.7639
 Frc consts  --      1.4059                 2.9638                 2.5237
 IR Inten    --     30.2293               426.0154               374.5949

                     49                     50                     51
                      A                      A                      A
 Frequencies --   1642.3474              1648.6013              3039.7342
 Red. masses --      1.1667                 4.2397                 1.0440
 Frc consts  --      1.8542                 6.7892                 5.6834
 IR Inten    --    282.7404               852.4092                95.8547

                     52                     53                     54
                      A                      A                      A
 Frequencies --   3071.0294              3072.8044              3114.4744
 Red. masses --      1.0363                 1.0357                 1.0926
 Frc consts  --      5.7586                 5.7618                 6.2442
 IR Inten    --     10.8330                40.3709                42.7004

                     55                     56                     57
                      A                      A                      A
 Frequencies --   3149.2230              3152.2903              3156.1932
 Red. masses --      1.1028                 1.1020                 1.1037
 Frc consts  --      6.4440                 6.4519                 6.4778
 IR Inten    --     10.1845                11.8892                24.5483

                     58                     59                     60
                      A                      A                      A
 Frequencies --   3165.6638              3179.1553              3190.2421
 Red. masses --      1.1025                 1.1059                 1.0870
 Frc consts  --      6.5098                 6.5855                 6.5184
 IR Inten    --     12.2038                10.5714                 5.3767

                     61                     62                     63
                      A                      A                      A
 Frequencies --   3508.1755              3586.2943              3629.2732
 Red. masses --      1.0521                 1.0959                 1.0771
 Frc consts  --      7.6289                 8.3046                 8.3591
 IR Inten    --     27.5498                55.3057               116.7304

 - Thermochemistry -
 -------------------
 Temperature   298.150 Kelvin.  Pressure   1.00000 Atm.
 Atom     1 has atomic number  6 and mass  12.00000

 Molecular mass:   208.02112 amu.
 Principal axes and moments of inertia in atomic units:
                           1         2         3
     Eigenvalues --  1539.861222939.701303249.48637
           X            0.99509   0.09877  -0.00673
           Y           -0.09899   0.99190  -0.07961
           Z           -0.00119   0.07989   0.99680
 This molecule is an asymmetric top.
 Rotational symmetry number  1.
 Warning -- assumption of classical behavior for rotation
           may cause significant error
 Rotational temperatures (Kelvin)      0.05625     0.02946     0.02665
 Rotational constants (GHZ):           1.17202     0.61392     0.55539
    1 imaginary frequencies ignored.
 Zero-point vibrational energy     508601.7 (Joules/Mol)
                                  121.55872 (Kcal/Mol)
 Warning -- explicit consideration of  18 degrees of freedom as
           vibrations may cause significant error
 Vibrational temperatures:     47.18   100.43   116.73   171.46   180.87
          (Kelvin)            232.31   250.33   287.30   335.46   351.18
                              386.90   413.49   471.56   527.89   566.99
                              645.10   745.15   833.75   940.64  1004.55
                             1039.05  1145.75  1281.42  1458.01  1477.67
                             1508.48  1516.35  1566.71  1596.31  1648.42
                             1668.36  1708.31  1785.95  1827.71  1896.13
                             1937.74  2036.45  2090.42  2094.30  2122.96
                             2125.54  2131.34  2145.98  2159.28  2162.83
                             2174.12  2242.08  2362.97  2371.97  4373.50
                             4418.53  4421.08  4481.03  4531.03  4535.44
                             4541.06  4554.68  4574.10  4590.05  5047.48
                             5159.88  5221.71

 Zero-point correction=                           0.193716 (Hartree/Particle)
 Thermal correction to Energy=                    0.206586
 Thermal correction to Enthalpy=                  0.207530
 Thermal correction to Gibbs Free Energy=         0.153380
 Sum of electronic and zero-point Energies=          -2995.214635
 Sum of electronic and thermal Energies=             -2995.201766
 Sum of electronic and thermal Enthalpies=           -2995.200822
 Sum of electronic and thermal Free Energies=        -2995.254971

                     E (Thermal)             CV                S
                      KCal/Mol        Cal/Mol-Kelvin    Cal/Mol-Kelvin
 Total                  129.634             44.522            113.967
 Electronic               0.000              0.000              0.000
 Translational            0.889              2.981             41.901
 Rotational               0.889              2.981             31.065
 Vibrational            127.857             38.561             41.001
 Vibration     1          0.594              1.983              5.653
 Vibration     2          0.598              1.969              4.159
 Vibration     3          0.600              1.962              3.863
 Vibration     4          0.609              1.933              3.114
 Vibration     5          0.611              1.927              3.011
 Vibration     6          0.622              1.890              2.533
 Vibration     7          0.627              1.874              2.392
 Vibration     8          0.638              1.840              2.136
 Vibration     9          0.654              1.790              1.855
 Vibration    10          0.659              1.773              1.773
 Vibration    11          0.673              1.730              1.603
 Vibration    12          0.685              1.697              1.489
 Vibration    13          0.711              1.620              1.271
 Vibration    14          0.740              1.540              1.093
 Vibration    15          0.761              1.483              0.985
 Vibration    16          0.807              1.364              0.801
 Vibration    17          0.873              1.210              0.615
 Vibration    18          0.936              1.076              0.486

 Optimization completed.
    -- Stationary point found.
 Normal termination of Gaussian 16 at Mon Feb 15 23:14:20 2021.
