 Gaussian 16, Revision A.03,
 Gaussian 16:  ES64L-G16RevA.03 25-Dec-2016

 ----------------------------------------------------------------------
 # wB97XD def2tzvp, opt=(ts, noeigen, calcfc, maxcycles=70, maxstep=8),
  freq=noraman, scrf=(iefpcm, solvent=water)
 ----------------------------------------------------------------------

 ------------------------
 1_iteration/TS-551-1.out
 ------------------------
 Symbolic Z-matrix:
 Charge =  0 Multiplicity = 1

 SCF Done:  E(RwB97XD) =  -5760.76248098     A.U. after   15 cycles
 SCF Done:  E(RwB97XD) =  -5760.76253956     A.U. after   12 cycles
 SCF Done:  E(RwB97XD) =  -5760.76280876     A.U. after   12 cycles
 SCF Done:  E(RwB97XD) =  -5760.76318557     A.U. after   12 cycles
 SCF Done:  E(RwB97XD) =  -5760.76363719     A.U. after   12 cycles
 SCF Done:  E(RwB97XD) =  -5760.76407555     A.U. after   12 cycles
 SCF Done:  E(RwB97XD) =  -5760.76446865     A.U. after   11 cycles
 SCF Done:  E(RwB97XD) =  -5760.76472681     A.U. after   11 cycles
 SCF Done:  E(RwB97XD) =  -5760.76486033     A.U. after   11 cycles
 SCF Done:  E(RwB97XD) =  -5760.76487524     A.U. after   10 cycles
 SCF Done:  E(RwB97XD) =  -5760.76483483     A.U. after   11 cycles
 SCF Done:  E(RwB97XD) =  -5760.76489473     A.U. after   10 cycles
 SCF Done:  E(RwB97XD) =  -5760.76489770     A.U. after    9 cycles
 SCF Done:  E(RwB97XD) =  -5760.76489650     A.U. after    9 cycles
 SCF Done:  E(RwB97XD) =  -5760.76489794     A.U. after    8 cycles
 SCF Done:  E(RwB97XD) =  -5760.76485895     A.U. after   10 cycles
 SCF Done:  E(RwB97XD) =  -5760.76489844     A.U. after   10 cycles
 SCF Done:  E(RwB97XD) =  -5760.76489846     A.U. after    7 cycles
 SCF Done:  E(RwB97XD) =  -5760.76489854     A.U. after    7 cycles
 Optimization completed.
    -- Stationary point found.
 Normal termination of Gaussian 16 at Wed Feb 17 04:23:15 2021.

 ---------------------------------------------------------------------
 #N Geom=AllCheck Guess=TCheck SCRF=Check GenChk RwB97XD/def2TZVP Freq
 ---------------------------------------------------------------------

 Structure from the checkpoint file:  "/beegfs/scratch/user/q/tla25/Gau-25062.chk"
 ------------------------
 1_iteration/TS-551-1.out
 ------------------------
 Charge =  0 Multiplicity = 1

                         Standard orientation:
 ---------------------------------------------------------------------
 Center     Atomic      Atomic             Coordinates (Angstroms)
 Number     Number       Type             X           Y           Z
 ---------------------------------------------------------------------
      1          6           0        0.827742    0.506761   -0.147437
      2          6           0       -0.401840   -0.247931    0.062066
      3          8           0       -0.370514   -1.374551    0.560297
      4          6           0        2.080509   -0.060963   -0.071792
      5          6           0        2.080520    0.224421    2.810914
      6          1           0        1.844582   -0.195656    3.789970
      7          1           0        2.976795    0.836269    2.894706
      8          1           0        1.248091    0.856478    2.495540
      9          7           0        2.280726   -0.805119    1.805566
     10          1           0        3.139856   -1.324878    1.933353
     11          1           0        1.494742   -1.446334    1.763043
     12          6           0        3.339852    0.745371   -0.165870
     13          1           0        3.308633    1.580106    0.533024
     14          1           0        4.208361    0.128754    0.050974
     15          1           0        3.443104    1.148249   -1.174809
     16         35           0        2.331767   -1.795947   -0.951887
     17         35           0        0.712260    2.419431   -0.259060
     18          7           0       -1.570788    0.356967   -0.308412
     19          6           0       -2.891068   -0.071009   -0.125832
     20          6           0       -3.248757   -1.293025    0.443805
     21          6           0       -4.591275   -1.618982    0.582404
     22          6           0       -5.589422   -0.755165    0.161468
     23          6           0       -5.231201    0.459523   -0.408699
     24          6           0       -3.898883    0.799882   -0.550636
     25          1           0       -1.475690    1.262199   -0.738547
     26          1           0       -2.481947   -1.975569    0.769907
     27          1           0       -4.853271   -2.570997    1.027561
     28          1           0       -6.631964   -1.022660    0.273590
     29          1           0       -5.993858    1.150391   -0.745447
     30          1           0       -3.630894    1.751908   -0.994506
 ---------------------------------------------------------------------

 SCF Done:  E(RwB97XD) =  -5760.76489854     A.U. after    1 cycles

 The electronic state is 1-A.
 Alpha  occ. eigenvalues -- -483.13376-483.12798 -62.68198 -62.67642 -56.47312
 Alpha  occ. eigenvalues --  -56.46967 -56.46953 -56.46761 -56.46406 -56.46391
 Alpha  occ. eigenvalues --  -19.22008 -14.47133 -14.46837 -10.40083 -10.40050
 Alpha  occ. eigenvalues --  -10.34114 -10.31924 -10.31311 -10.29409 -10.29195
 Alpha  occ. eigenvalues --  -10.29068 -10.29040 -10.28446 -10.28440  -8.82303
 Alpha  occ. eigenvalues --   -8.81746  -6.64439  -6.63898  -6.63340  -6.63292
 Alpha  occ. eigenvalues --   -6.62778  -6.62725  -2.74829  -2.74518  -2.74478
 Alpha  occ. eigenvalues --   -2.74280  -2.73972  -2.73931  -2.73590  -2.73589
 Alpha  occ. eigenvalues --   -2.73023  -2.73023  -1.14977  -1.04898  -1.02705
 Alpha  occ. eigenvalues --   -0.96249  -0.95219  -0.89891  -0.85415  -0.85231
 Alpha  occ. eigenvalues --   -0.83771  -0.80341  -0.78202  -0.74289  -0.71693
 Alpha  occ. eigenvalues --   -0.67794  -0.64745  -0.62295  -0.62281  -0.58598
 Alpha  occ. eigenvalues --   -0.58035  -0.57047  -0.55095  -0.54039  -0.53854
 Alpha  occ. eigenvalues --   -0.52742  -0.52237  -0.51172  -0.50526  -0.49981
 Alpha  occ. eigenvalues --   -0.48821  -0.47364  -0.47127  -0.44980  -0.44434
 Alpha  occ. eigenvalues --   -0.43061  -0.42585  -0.40435  -0.40265  -0.38698
 Alpha  occ. eigenvalues --   -0.37456  -0.36431  -0.34326  -0.33907  -0.30739
 Alpha  occ. eigenvalues --   -0.27700
 Alpha virt. eigenvalues --    0.01318   0.04056   0.05230   0.07735   0.09111
 Alpha virt. eigenvalues --    0.10371   0.12735   0.13871   0.14834   0.15118
 Alpha virt. eigenvalues --    0.15494   0.16606   0.17265   0.17796   0.18104

 Mulliken charges:
               1
     1  C   -0.363955
     2  C    0.502131
     3  O   -0.538174
     4  C    0.201320
     5  C   -0.295815
     6  H    0.151738
     7  H    0.156156
     8  H    0.148770
     9  N   -0.378115
    10  H    0.280157
    11  H    0.277372
    12  C   -0.376857
    13  H    0.155244
    14  H    0.156587
    15  H    0.166926
    16  Br  -0.116632
    17  Br  -0.134742
    18  N   -0.272532
    19  C    0.301926
    20  C   -0.292198
    21  C   -0.110361
    22  C   -0.193271
    23  C   -0.098038
    24  C   -0.307770
    25  H    0.245299
    26  H    0.163314
    27  H    0.142474
    28  H    0.141672
    29  H    0.144578
    30  H    0.142797
 Sum of Mulliken charges =  -0.00000

 Dipole moment (field-independent basis, Debye):
    X=              3.8558    Y=              2.1362    Z=              3.5257  Tot=              5.6445
 Quadrupole moment (field-independent basis, Debye-Ang):
   XX=           -100.1508   YY=           -121.2972   ZZ=           -114.2812
   XY=             -3.1959   XZ=             12.8731   YZ=             -6.1525

  Exact polarizability: 346.599 -12.246 279.798  12.453 -20.528 212.290
 Approx polarizability: 249.740  -7.909 236.929   7.314 -19.108 180.663

 ******    1 imaginary frequencies (negative Signs) ******

                      1                      2                      3
                      A                      A                      A
 Frequencies --   -373.8561                10.4840                30.1406
 Red. masses --      5.4951                 3.8846                 6.2673
 Frc consts  --      0.4525                 0.0003                 0.0034
 IR Inten    --    758.2693                 0.3257                 2.2496

                      4                      5                      6
                      A                      A                      A
 Frequencies --     58.9978                78.7010                82.5501
 Red. masses --      5.5152                 5.9241                 5.9557
 Frc consts  --      0.0113                 0.0216                 0.0239
 IR Inten    --      1.5015                 0.4973                 6.4195

                      7                      8                      9
                      A                      A                      A
 Frequencies --     95.4864               138.1739               146.2349
 Red. masses --      3.3692                 3.2311                 8.7517
 Frc consts  --      0.0181                 0.0363                 0.1103
 IR Inten    --      3.1011                10.2884                11.2885

                     10                     11                     12
                      A                      A                      A
 Frequencies --    155.9386               190.2605               210.4696
 Red. masses --      3.8955                 1.5227                 3.4279
 Frc consts  --      0.0558                 0.0325                 0.0895
 IR Inten    --      5.0052                 1.7613                20.3485

                     13                     14                     15
                      A                      A                      A
 Frequencies --    230.7339               245.0513               258.3814
 Red. masses --      5.4366                 3.0221                 3.3240
 Frc consts  --      0.1705                 0.1069                 0.1307
 IR Inten    --      4.5587                 1.2133                22.8182

                     16                     17                     18
                      A                      A                      A
 Frequencies --    262.8676               286.0221               311.7888
 Red. masses --      1.6919                 4.1466                 1.8217
 Frc consts  --      0.0689                 0.1999                 0.1043
 IR Inten    --      6.4659                 4.4619                 2.5713

                     19                     20                     21
                      A                      A                      A
 Frequencies --    361.3311               389.3797               417.5848
 Red. masses --      6.0634                 5.5951                 5.5214
 Frc consts  --      0.4664                 0.4998                 0.5673
 IR Inten    --     17.8195                 3.1172                 6.4122

                     22                     23                     24
                      A                      A                      A
 Frequencies --    422.6599               473.9529               528.6374
 Red. masses --      2.9968                 4.8363                 2.8084
 Frc consts  --      0.3154                 0.6401                 0.4624
 IR Inten    --      0.1458               102.3581                36.7862

                     25                     26                     27
                      A                      A                      A
 Frequencies --    580.0833               588.4382               624.4049
 Red. masses --      3.5829                 1.2698                 1.7892
 Frc consts  --      0.7103                 0.2591                 0.4110
 IR Inten    --     75.5820                59.5474                65.4406

                     28                     29                     30
                      A                      A                      A
 Frequencies --    635.5866               691.5965               718.3815
 Red. masses --      5.8021                 2.6988                 1.8758
 Frc consts  --      1.3810                 0.7606                 0.5704
 IR Inten    --      5.8791               159.4221                63.9326

                     31                     32                     33
                      A                      A                      A
 Frequencies --    771.1120               784.9274               813.2036
 Red. masses --      8.2460                 1.8527                 7.3089
 Frc consts  --      2.8889                 0.6725                 2.8477
 IR Inten    --     30.5018               104.9313                39.6708

                     34                     35                     36
                      A                      A                      A
 Frequencies --    861.7796               872.7073               935.7124
 Red. masses --      1.2601                 5.5656                 1.4631
 Frc consts  --      0.5514                 2.4975                 0.7547
 IR Inten    --      0.0885                11.6088                12.7615

                     37                     38                     39
                      A                      A                      A
 Frequencies --    972.0173              1002.5402              1019.6486
 Red. masses --      1.0958                 1.3496                 2.6557
 Frc consts  --      0.6100                 0.7992                 1.6268
 IR Inten    --    110.6220                 0.0560                 5.5277

                     40                     41                     42
                      A                      A                      A
 Frequencies --   1020.1449              1021.6226              1028.5832
 Red. masses --      1.5827                 1.7710                 1.9592
 Frc consts  --      0.9704                 1.0890                 1.2213
 IR Inten    --      1.1925                65.2800                61.3812

                     43                     44                     45
                      A                      A                      A
 Frequencies --   1045.8147              1059.8077              1074.4793
 Red. masses --      1.5966                 2.0581                 2.2026
 Frc consts  --      1.0289                 1.3619                 1.4982
 IR Inten    --     43.4268                31.9365                32.0682

                     46                     47                     48
                      A                      A                      A
 Frequencies --   1091.1562              1118.7707              1134.3776
 Red. masses --      3.9950                 1.6956                 2.3863
 Frc consts  --      2.8025                 1.2504                 1.8092
 IR Inten    --     16.9808                38.1320                80.7708

                     49                     50                     51
                      A                      A                      A
 Frequencies --   1182.3620              1192.7048              1208.0530
 Red. masses --      1.1220                 1.4144                 1.1338
 Frc consts  --      0.9242                 1.1854                 0.9749
 IR Inten    --      3.3562                22.2029                20.9263

                     52                     53                     54
                      A                      A                      A
 Frequencies --   1265.0461              1277.7145              1348.8399
 Red. masses --      3.2769                 3.2113                 1.5610
 Frc consts  --      3.0898                 3.0888                 1.6733
 IR Inten    --    508.6962               105.0687               125.6665

                     55                     56                     57
                      A                      A                      A
 Frequencies --   1348.9459              1360.8690              1414.4255
 Red. masses --      2.6860                 1.5463                 1.2446
 Frc consts  --      2.8796                 1.6873                 1.4670
 IR Inten    --    486.3227                11.6639                23.3333

                     58                     59                     60
                      A                      A                      A
 Frequencies --   1449.1068              1463.3278              1477.3420
 Red. masses --      1.6786                 1.3071                 1.0536
 Frc consts  --      2.0768                 1.6491                 1.3548
 IR Inten    --    376.0549               142.1307                 9.6556

                     61                     62                     63
                      A                      A                      A
 Frequencies --   1483.6487              1490.1341              1494.6119
 Red. masses --      2.1807                 1.1852                 1.3984
 Frc consts  --      2.8282                 1.5506                 1.8405
 IR Inten    --    321.5231               100.1427               197.5726

                     64                     65                     66
                      A                      A                      A
 Frequencies --   1509.0869              1546.7023              1579.8510
 Red. masses --      1.0379                 2.4276                 2.1368
 Frc consts  --      1.3926                 3.4217                 3.1424
 IR Inten    --      2.3995               127.9096               898.3406

                     67                     68                     69
                      A                      A                      A
 Frequencies --   1641.6552              1663.1321              1671.2831
 Red. masses --      1.2398                 4.7239                 3.9129
 Frc consts  --      1.9686                 7.6985                 6.4395
 IR Inten    --    173.3769               142.6057                23.0375

                     70                     71                     72
                      A                      A                      A
 Frequencies --   1687.6902              3055.7370              3072.3519
 Red. masses --      5.4468                 1.0340                 1.0371
 Frc consts  --      9.1406                 5.6884                 5.7676
 IR Inten    --    254.2626                47.6345                 6.0882

                     73                     74                     75
                      A                      A                      A
 Frequencies --   3123.8433              3147.7176              3156.8731
 Red. masses --      1.1041                 1.1008                 1.1041
 Frc consts  --      6.3478                 6.4264                 6.4827
 IR Inten    --     19.1388                 7.1842                21.6751

                     76                     77                     78
                      A                      A                      A
 Frequencies --   3173.5091              3188.1125              3197.9548
 Red. masses --      1.1033                 1.0883                 1.0883
 Frc consts  --      6.5468                 6.5171                 6.5576
 IR Inten    --     11.6698                11.9638                 2.1491

                     79                     80                     81
                      A                      A                      A
 Frequencies --   3207.7461              3222.5224              3276.6341
 Red. masses --      1.0932                 1.0980                 1.0920
 Frc consts  --      6.6273                 6.7182                 6.9078
 IR Inten    --     28.1916                22.3418                 5.8475

                     82                     83                     84
                      A                      A                      A
 Frequencies --   3506.3236              3611.1785              3632.1078
 Red. masses --      1.0527                 1.0950                 1.0765
 Frc consts  --      7.6251                 8.4132                 8.3675
 IR Inten    --     40.1066                92.7754                88.4801

 - Thermochemistry -
 -------------------
 Temperature   298.150 Kelvin.  Pressure   1.00000 Atm.
 Atom     1 has atomic number  6 and mass  12.00000

 Molecular mass:   347.94729 amu.
 Principal axes and moments of inertia in atomic units:
                           1         2         3
     Eigenvalues --  4068.502669498.58232**********
           X            0.99945   0.02593   0.02079
           Y           -0.02525   0.99917  -0.03210
           Z           -0.02161   0.03155   0.99927
 This molecule is an asymmetric top.
 Rotational symmetry number  1.
 Warning -- assumption of classical behavior for rotation
           may cause significant error
 Rotational temperatures (Kelvin)      0.02129     0.00912     0.00747
 Rotational constants (GHZ):           0.44359     0.19000     0.15559
    1 imaginary frequencies ignored.
 Zero-point vibrational energy     623146.0 (Joules/Mol)
                                  148.93546 (Kcal/Mol)
 Warning -- explicit consideration of  25 degrees of freedom as
           vibrations may cause significant error
 Vibrational temperatures:     15.08    43.37    84.88   113.23   118.77
          (Kelvin)            137.38   198.80   210.40   224.36   273.74
                              302.82   331.97   352.57   371.75   378.21
                              411.52   448.59   519.87   560.23   600.81
                              608.11   681.91   760.59   834.61   846.63
                              898.38   914.47   995.05  1033.59  1109.46
                             1129.34  1170.02  1239.91  1255.63  1346.28
                             1398.52  1442.43  1467.05  1467.76  1469.89
                             1479.90  1504.69  1524.83  1545.94  1569.93
                             1609.66  1632.12  1701.16  1716.04  1738.12
                             1820.12  1838.35  1940.68  1940.83  1957.99
                             2035.04  2084.94  2105.40  2125.57  2134.64
                             2143.97  2150.41  2171.24  2225.36  2273.05
                             2361.98  2392.88  2404.60  2428.21  4396.52
                             4420.43  4494.51  4528.86  4542.04  4565.97
                             4586.98  4601.14  4615.23  4636.49  4714.35
                             5044.82  5195.68  5225.79

 Zero-point correction=                           0.237344 (Hartree/Particle)
 Thermal correction to Energy=                    0.254436
 Thermal correction to Enthalpy=                  0.255380
 Thermal correction to Gibbs Free Energy=         0.189033
 Sum of electronic and zero-point Energies=          -5760.527555
 Sum of electronic and thermal Energies=             -5760.510463
 Sum of electronic and thermal Enthalpies=           -5760.509518
 Sum of electronic and thermal Free Energies=        -5760.575866

                     E (Thermal)             CV                S
                      KCal/Mol        Cal/Mol-Kelvin    Cal/Mol-Kelvin
 Total                  159.661             61.457            139.640
 Electronic               0.000              0.000              0.000
 Translational            0.889              2.981             43.435
 Rotational               0.889              2.981             34.460
 Vibrational            157.883             55.496             61.745
 Vibration     1          0.593              1.987              7.917
 Vibration     2          0.594              1.984              5.820
 Vibration     3          0.596              1.974              4.490
 Vibration     4          0.600              1.963              3.923
 Vibration     5          0.600              1.961              3.829
 Vibration     6          0.603              1.952              3.544
 Vibration     7          0.614              1.915              2.829
 Vibration     8          0.617              1.907              2.721
 Vibration     9          0.620              1.896              2.598
 Vibration    10          0.634              1.853              2.225
 Vibration    11          0.643              1.825              2.040
 Vibration    12          0.652              1.794              1.873
 Vibration    13          0.660              1.771              1.766
 Vibration    14          0.667              1.749              1.673
 Vibration    15          0.670              1.741              1.643
 Vibration    16          0.684              1.700              1.497
 Vibration    17          0.700              1.651              1.353
 Vibration    18          0.736              1.552              1.116
 Vibration    19          0.757              1.493              1.003
 Vibration    20          0.781              1.432              0.900
 Vibration    21          0.785              1.421              0.883
 Vibration    22          0.831              1.308              0.727
 Vibration    23          0.884              1.187              0.590
 Vibration    24          0.937              1.074              0.485
 Vibration    25          0.946              1.056              0.470

 Optimization completed.
    -- Stationary point found.
 Normal termination of Gaussian 16 at Wed Feb 17 05:23:38 2021.
