 Gaussian 16, Revision A.03,
 Gaussian 16:  ES64L-G16RevA.03 25-Dec-2016

 ----------------------------------------------------------------------
 # wB97XD def2tzvp, opt=(ts, noeigen, calcfc, maxcycles=70, maxstep=3),
  freq=noraman, scrf=(iefpcm, solvent=water)
 ----------------------------------------------------------------------

 ------------------------
 3_iteration/TS-526-3.out
 ------------------------
 Symbolic Z-matrix:
 Charge =  0 Multiplicity = 1

 SCF Done:  E(RwB97XD) =  -3265.77091387     A.U. after   15 cycles
 Optimization completed.
    -- Stationary point found.
 Normal termination of Gaussian 16 at Thu Feb 18 01:06:44 2021.

 ---------------------------------------------------------------------
 #N Geom=AllCheck Guess=TCheck SCRF=Check GenChk RwB97XD/def2TZVP Freq
 ---------------------------------------------------------------------

 Structure from the checkpoint file:  "/beegfs/scratch/user/q/tla25/Gau-19700.chk"
 ------------------------
 3_iteration/TS-526-3.out
 ------------------------
 Charge =  0 Multiplicity = 1

                         Standard orientation:
 ---------------------------------------------------------------------
 Center     Atomic      Atomic             Coordinates (Angstroms)
 Number     Number       Type             X           Y           Z
 ---------------------------------------------------------------------
      1          6           0        0.058780    0.019480   -0.048618
      2          6           0       -0.186292    1.393279    0.416662
      3          8           0       -1.054652    1.654779    1.270852
      4          6           0       -1.003509   -0.867451   -0.096398
      5          6           0       -0.793279   -1.654971    2.608832
      6          1           0       -1.030569   -1.442281    3.652262
      7          1           0       -0.791477   -2.732951    2.457922
      8          1           0        0.201591   -1.264390    2.390072
      9          7           0       -1.738299   -1.027322    1.699732
     10          1           0       -2.656189   -1.453923    1.721642
     11          1           0       -1.800760   -0.019622    1.858302
     12          6           0       -0.853218   -2.316301   -0.460858
     13          1           0        0.013913   -2.743730    0.041912
     14          1           0       -1.741327   -2.877482   -0.177688
     15          1           0       -0.716648   -2.425841   -1.535928
     16         35           0       -2.698680   -0.181133   -0.894428
     17          6           0        1.465320   -0.451679   -0.128248
     18          6           0        1.949221   -1.206158   -1.199968
     19          6           0        3.271721   -1.619857   -1.255168
     20          6           0        4.160101   -1.266976   -0.249798
     21          6           0        3.705960   -0.497367    0.812642
     22          6           0        2.378860   -0.103808    0.872902
     23          1           0        1.284821   -1.453899   -2.017588
     24          1           0        3.612922   -2.206577   -2.099458
     25          1           0        5.195011   -1.581345   -0.296708
     26          1           0        4.386480   -0.209476    1.604772
     27          1           0        2.038959    0.487752    1.715432
     28          7           0        0.590697    2.392350   -0.075168
     29          6           0        1.364507    2.295881   -1.293978
     30          6           0        0.570486    3.696430    0.550192
     31          1           0        1.033098    1.448071   -1.886568
     32          1           0        1.214417    3.205361   -1.879518
     33          1           0        2.433558    2.186862   -1.088848
     34          1           0        0.222566    3.607280    1.575162
     35          1           0        1.580336    4.111061    0.545722
     36          1           0       -0.088435    4.388360    0.016172
 ---------------------------------------------------------------------

 SCF Done:  E(RwB97XD) =  -3265.77091387     A.U. after    1 cycles

 The electronic state is 1-A.
 Alpha  occ. eigenvalues -- -483.11728 -62.66578 -56.45674 -56.45349 -56.45341
 Alpha  occ. eigenvalues --  -19.20576 -14.46647 -14.45685 -10.38945 -10.37757
 Alpha  occ. eigenvalues --  -10.31126 -10.30587 -10.30352 -10.29947 -10.28765
 Alpha  occ. eigenvalues --  -10.28613 -10.28605 -10.28346 -10.28245 -10.28212
 Alpha  occ. eigenvalues --  -10.26223  -8.80678  -6.62760  -6.61737  -6.61708
 Alpha  occ. eigenvalues --   -2.73150  -2.72868  -2.72845  -2.72017  -2.72016
 Alpha  occ. eigenvalues --   -1.13168  -1.03238  -1.02456  -0.96502  -0.92946
 Alpha  occ. eigenvalues --   -0.87128  -0.84650  -0.83065  -0.82075  -0.80718
 Alpha  occ. eigenvalues --   -0.78192  -0.77485  -0.70054  -0.69644  -0.66295
 Alpha  occ. eigenvalues --   -0.62685  -0.62020  -0.60656  -0.57698  -0.56866
 Alpha  occ. eigenvalues --   -0.56298  -0.56005  -0.54674  -0.53868  -0.53296
 Alpha  occ. eigenvalues --   -0.51495  -0.51356  -0.50414  -0.49395  -0.48563
 Alpha  occ. eigenvalues --   -0.48376  -0.47703  -0.47229  -0.46484  -0.45430
 Alpha  occ. eigenvalues --   -0.45242  -0.44709  -0.42737  -0.42063  -0.41359
 Alpha  occ. eigenvalues --   -0.36675  -0.36274  -0.35276  -0.33407  -0.32956
 Alpha  occ. eigenvalues --   -0.31793  -0.25967
 Alpha virt. eigenvalues --    0.03568   0.05496   0.06443   0.06494   0.10447
 Alpha virt. eigenvalues --    0.12236   0.13073   0.14075   0.14175   0.15543
 Alpha virt. eigenvalues --    0.15800   0.16809   0.17436   0.17928   0.18179

 Mulliken charges:
               1
     1  C   -0.312961
     2  C    0.317029
     3  O   -0.572333
     4  C    0.191211
     5  C   -0.302810
     6  H    0.151626
     7  H    0.155327
     8  H    0.143872
     9  N   -0.317405
    10  H    0.273602
    11  H    0.272430
    12  C   -0.419719
    13  H    0.164165
    14  H    0.158103
    15  H    0.159913
    16  Br  -0.180362
    17  C    0.152607
    18  C   -0.229178
    19  C   -0.164245
    20  C   -0.135335
    21  C   -0.184837
    22  C   -0.217827
    23  H    0.148384
    24  H    0.136940
    25  H    0.139861
    26  H    0.136873
    27  H    0.154875
    28  N   -0.079459
    29  C   -0.300960
    30  C   -0.295402
    31  H    0.157579
    32  H    0.147878
    33  H    0.135762
    34  H    0.140931
    35  H    0.138049
    36  H    0.135817
 Sum of Mulliken charges =   0.00000

 Dipole moment (field-independent basis, Debye):
    X=              1.9125    Y=             -3.1384    Z=              1.6275  Tot=              4.0194
 Quadrupole moment (field-independent basis, Debye-Ang):
   XX=           -114.9231   YY=           -105.4639   ZZ=           -108.2347
   XY=             10.5955   XZ=             -5.2840   YZ=             -6.3107

  Exact polarizability: 332.703  -0.036 257.084  -6.778   7.066 254.643
 Approx polarizability: 251.802  -2.429 204.639  -4.215   9.287 215.403

 ******    1 imaginary frequencies (negative Signs) ******

                      1                      2                      3
                      A                      A                      A
 Frequencies --   -414.9631                40.2149                59.7110
 Red. masses --      5.5515                 4.6433                 4.9389
 Frc consts  --      0.5632                 0.0044                 0.0104
 IR Inten    --    745.3701                 3.9140                 4.1288

                      4                      5                      6
                      A                      A                      A
 Frequencies --     69.6239                72.6790                92.0358
 Red. masses --      3.4633                 3.3760                 2.2189
 Frc consts  --      0.0099                 0.0105                 0.0111
 IR Inten    --      0.3531                 2.1446                 0.6701

                      7                      8                      9
                      A                      A                      A
 Frequencies --    101.6171               107.7669               147.9566
 Red. masses --      1.4981                 2.8758                 5.4924
 Frc consts  --      0.0091                 0.0197                 0.0708
 IR Inten    --      0.4554                 0.4238                12.2083

                     10                     11                     12
                      A                      A                      A
 Frequencies --    155.4961               157.9097               189.8178
 Red. masses --      3.0092                 2.2924                 1.5345
 Frc consts  --      0.0429                 0.0337                 0.0326
 IR Inten    --      8.6366                 7.3989                 1.7836

                     13                     14                     15
                      A                      A                      A
 Frequencies --    198.5848               222.0414               246.4572
 Red. masses --      1.5384                 2.4739                 3.5865
 Frc consts  --      0.0357                 0.0719                 0.1284
 IR Inten    --      2.1543                13.7121                10.8906

                     16                     17                     18
                      A                      A                      A
 Frequencies --    256.0000               265.7227               272.9071
 Red. masses --      3.7036                 2.2397                 2.9309
 Frc consts  --      0.1430                 0.0932                 0.1286
 IR Inten    --     24.1323                 4.5702                24.7566

                     19                     20                     21
                      A                      A                      A
 Frequencies --    309.6826               317.6608               325.7926
 Red. masses --      2.4386                 1.3429                 3.2002
 Frc consts  --      0.1378                 0.0798                 0.2001
 IR Inten    --     35.9755                 3.3879                 2.3566

                     22                     23                     24
                      A                      A                      A
 Frequencies --    362.5023               408.9780               425.0288
 Red. masses --      3.0992                 2.8936                 5.1441
 Frc consts  --      0.2399                 0.2852                 0.5475
 IR Inten    --     16.6725                18.7882                 6.5077

                     25                     26                     27
                      A                      A                      A
 Frequencies --    429.9270               489.9920               522.3919
 Red. masses --      2.9744                 3.9320                 3.6298
 Frc consts  --      0.3239                 0.5562                 0.5836
 IR Inten    --      2.3006                25.3458                63.9670

                     28                     29                     30
                      A                      A                      A
 Frequencies --    528.7677               625.2743               643.1850
 Red. masses --      4.6078                 3.4783                 4.5143
 Frc consts  --      0.7591                 0.8012                 1.1003
 IR Inten    --     55.8947                39.4579                 7.9580

                     31                     32                     33
                      A                      A                      A
 Frequencies --    667.7144               720.5107               731.0867
 Red. masses --      4.4188                 2.5372                 1.5991
 Frc consts  --      1.1608                 0.7760                 0.5036
 IR Inten    --     69.4695                73.2195                70.7893

                     34                     35                     36
                      A                      A                      A
 Frequencies --    745.0074               791.1925               809.8335
 Red. masses --      2.2162                 4.5348                 2.9091
 Frc consts  --      0.7247                 1.6725                 1.1241
 IR Inten    --    178.8590                27.2225                60.1681

                     37                     38                     39
                      A                      A                      A
 Frequencies --    878.7840               906.3071               953.1553
 Red. masses --      1.2502                 4.6389                 1.4546
 Frc consts  --      0.5688                 2.2450                 0.7786
 IR Inten    --      1.2576                23.0884                 1.7080

                     40                     41                     42
                      A                      A                      A
 Frequencies --    990.8446              1012.1760              1015.6700
 Red. masses --      1.0930                 1.5873                 2.2348
 Frc consts  --      0.6323                 0.9581                 1.3583
 IR Inten    --     69.8254                 6.1156                11.6596

                     43                     44                     45
                      A                      A                      A
 Frequencies --   1023.5103              1026.3224              1045.6811
 Red. masses --      1.4816                 3.4013                 2.1744
 Frc consts  --      0.9145                 2.1109                 1.4008
 IR Inten    --      0.4835                 1.3290                48.5059

                     46                     47                     48
                      A                      A                      A
 Frequencies --   1058.7980              1068.0200              1076.9319
 Red. masses --      1.4165                 1.8887                 1.3759
 Frc consts  --      0.9356                 1.2694                 0.9402
 IR Inten    --     46.8610                23.5398               190.2558

                     49                     50                     51
                      A                      A                      A
 Frequencies --   1088.1268              1089.2547              1115.9980
 Red. masses --      1.5570                 2.9129                 1.5772
 Frc consts  --      1.0862                 2.0363                 1.1574
 IR Inten    --     31.9020                 2.0171                18.9369

                     52                     53                     54
                      A                      A                      A
 Frequencies --   1121.3847              1132.7843              1170.1129
 Red. masses --      2.0845                 1.2292                 1.4070
 Frc consts  --      1.5444                 0.9293                 1.1350
 IR Inten    --    166.4548                 0.2782                 2.7883

                     55                     56                     57
                      A                      A                      A
 Frequencies --   1181.6336              1201.9748              1213.3486
 Red. masses --      1.1243                 1.6569                 2.0627
 Frc consts  --      0.9249                 1.4104                 1.7892
 IR Inten    --      1.3810               150.0809               115.3176

                     58                     59                     60
                      A                      A                      A
 Frequencies --   1214.6457              1289.5292              1312.7557
 Red. masses --      1.1312                 4.4202                 5.1122
 Frc consts  --      0.9833                 4.3307                 5.1907
 IR Inten    --      3.9453                60.8369                21.0412

                     61                     62                     63
                      A                      A                      A
 Frequencies --   1324.3051              1354.3940              1363.2156
 Red. masses --      5.4872                 1.3049                 1.4369
 Frc consts  --      5.6699                 1.4103                 1.5732
 IR Inten    --     80.6865                 9.4221                13.8265

                     64                     65                     66
                      A                      A                      A
 Frequencies --   1413.6763              1427.2371              1441.3119
 Red. masses --      1.3440                 1.6197                 1.4204
 Frc consts  --      1.5825                 1.9439                 1.7385
 IR Inten    --    135.0129               331.4679               264.6306

                     67                     68                     69
                      A                      A                      A
 Frequencies --   1451.0994              1465.1950              1472.5907
 Red. masses --      1.5474                 1.4900                 1.1735
 Frc consts  --      1.9197                 1.8846                 1.4993
 IR Inten    --    102.3269               152.6309                34.3303

                     70                     71                     72
                      A                      A                      A
 Frequencies --   1481.5032              1484.3153              1487.0990
 Red. masses --      1.0711                 1.1314                 1.4177
 Frc consts  --      1.3851                 1.4686                 1.8471
 IR Inten    --     14.9317                 5.0162                 0.5285

                     73                     74                     75
                      A                      A                      A
 Frequencies --   1493.4503              1494.5263              1501.5314
 Red. masses --      1.1195                 1.0954                 1.2335
 Frc consts  --      1.4712                 1.4416                 1.6386
 IR Inten    --     17.8731                34.0689                90.9535

                     76                     77                     78
                      A                      A                      A
 Frequencies --   1502.1864              1510.3179              1537.6447
 Red. masses --      1.1413                 1.1555                 1.7684
 Frc consts  --      1.5174                 1.5529                 2.4635
 IR Inten    --     36.3810                19.6876               138.9975

                     79                     80                     81
                      A                      A                      A
 Frequencies --   1542.0622              1611.2094              1640.9206
 Red. masses --      2.1910                 3.2028                 4.7993
 Frc consts  --      3.0697                 4.8987                 7.6139
 IR Inten    --    158.0251               922.2468                12.0920

                     82                     83                     84
                      A                      A                      A
 Frequencies --   1651.3131              1669.1414              3033.1807
 Red. masses --      1.3766                 5.8364                 1.0415
 Frc consts  --      2.2117                 9.5804                 5.6457
 IR Inten    --     82.2852                31.7924                71.3526

                     85                     86                     87
                      A                      A                      A
 Frequencies --   3038.5704              3059.3264              3075.1323
 Red. masses --      1.0415                 1.0338                 1.0357
 Frc consts  --      5.6654                 5.7008                 5.7705
 IR Inten    --    122.6603                58.6996                11.2362

                     88                     89                     90
                      A                      A                      A
 Frequencies --   3094.8994              3101.9675              3131.1369
 Red. masses --      1.0994                 1.1006                 1.1035
 Frc consts  --      6.2046                 6.2393                 6.3740
 IR Inten    --     81.6072                12.8855                13.8216

                     91                     92                     93
                      A                      A                      A
 Frequencies --   3153.3593              3156.5464              3161.4130
 Red. masses --      1.1023                 1.1046                 1.1035
 Frc consts  --      6.4582                 6.4845                 6.4979
 IR Inten    --      9.8541                27.5746                18.5784

                     94                     95                     96
                      A                      A                      A
 Frequencies --   3175.1403              3175.3041              3183.3892
 Red. masses --      1.0991                 1.0982                 1.0870
 Frc consts  --      6.5283                 6.5239                 6.4905
 IR Inten    --      7.4151                13.9511                12.1344

                     97                     98                     99
                      A                      A                      A
 Frequencies --   3191.8455              3201.3036              3211.7130
 Red. masses --      1.0871                 1.0922                 1.0934
 Frc consts  --      6.5255                 6.5952                 6.6453
 IR Inten    --      0.7056                25.7583                43.7343

                    100                    101                    102
                      A                      A                      A
 Frequencies --   3219.9247              3383.8721              3587.4620
 Red. masses --      1.0981                 1.0652                 1.0858
 Frc consts  --      6.7077                 7.1864                 8.2332
 IR Inten    --     16.6615               204.6542                94.7042

 - Thermochemistry -
 -------------------
 Temperature   298.150 Kelvin.  Pressure   1.00000 Atm.
 Atom     1 has atomic number  6 and mass  12.00000

 Molecular mass:   298.06807 amu.
 Principal axes and moments of inertia in atomic units:
                           1         2         3
     Eigenvalues --  3695.974586338.585867527.44920
           X            0.99930   0.01099  -0.03577
           Y           -0.01203   0.99950  -0.02910
           Z            0.03543   0.02951   0.99894
 This molecule is an asymmetric top.
 Rotational symmetry number  1.
 Warning -- assumption of classical behavior for rotation
           may cause significant error
 Rotational temperatures (Kelvin)      0.02343     0.01366     0.01151
 Rotational constants (GHZ):           0.48830     0.28472     0.23975
    1 imaginary frequencies ignored.
 Zero-point vibrational energy     797637.4 (Joules/Mol)
                                  190.63990 (Kcal/Mol)
 Warning -- explicit consideration of  27 degrees of freedom as
           vibrations may cause significant error
 Vibrational temperatures:     57.86    85.91   100.17   104.57   132.42
          (Kelvin)            146.20   155.05   212.88   223.72   227.20
                              273.11   285.72   319.47   354.60   368.33
                              382.32   392.65   445.56   457.04   468.74
                              521.56   588.43   611.52   618.57   704.99
                              751.61   760.78   899.63   925.40   960.69
                             1036.65  1051.87  1071.90  1138.35  1165.17
                             1264.37  1303.97  1371.38  1425.60  1456.30
                             1461.32  1472.60  1476.65  1504.50  1523.37
                             1536.64  1549.46  1565.57  1567.19  1605.67
                             1613.42  1629.82  1683.53  1700.11  1729.37
                             1745.74  1747.60  1855.34  1888.76  1905.38
                             1948.67  1961.36  2033.96  2053.48  2073.73
                             2087.81  2108.09  2118.73  2131.55  2135.60
                             2139.60  2148.74  2150.29  2160.37  2161.31
                             2173.01  2212.33  2218.68  2318.17  2360.92
                             2375.87  2401.52  4364.07  4371.83  4401.69
                             4424.43  4452.87  4463.04  4505.01  4536.98
                             4541.57  4548.57  4568.32  4568.55  4580.19
                             4592.35  4605.96  4620.94  4632.75  4868.64
                             5161.56

 Zero-point correction=                           0.303804 (Hartree/Particle)
 Thermal correction to Energy=                    0.322279
 Thermal correction to Enthalpy=                  0.323223
 Thermal correction to Gibbs Free Energy=         0.256878
 Sum of electronic and zero-point Energies=          -3265.467110
 Sum of electronic and thermal Energies=             -3265.448635
 Sum of electronic and thermal Enthalpies=           -3265.447691
 Sum of electronic and thermal Free Energies=        -3265.514036

                     E (Thermal)             CV                S
                      KCal/Mol        Cal/Mol-Kelvin    Cal/Mol-Kelvin
 Total                  202.233             67.760            139.636
 Electronic               0.000              0.000              0.000
 Translational            0.889              2.981             42.973
 Rotational               0.889              2.981             33.533
 Vibrational            200.456             61.799             63.129
 Vibration     1          0.594              1.981              5.248
 Vibration     2          0.597              1.974              4.467
 Vibration     3          0.598              1.969              4.164
 Vibration     4          0.599              1.967              4.079
 Vibration     5          0.602              1.955              3.616
 Vibration     6          0.604              1.948              3.423
 Vibration     7          0.606              1.943              3.309
 Vibration     8          0.617              1.905              2.698
 Vibration     9          0.620              1.897              2.604
 Vibration    10          0.621              1.894              2.575
 Vibration    11          0.633              1.854              2.230
 Vibration    12          0.637              1.842              2.146
 Vibration    13          0.648              1.808              1.942
 Vibration    14          0.661              1.769              1.756
 Vibration    15          0.666              1.753              1.689
 Vibration    16          0.672              1.736              1.624
 Vibration    17          0.676              1.723              1.578
 Vibration    18          0.699              1.655              1.364
 Vibration    19          0.704              1.640              1.322
 Vibration    20          0.710              1.624              1.281
 Vibration    21          0.736              1.549              1.111
 Vibration    22          0.773              1.451              0.930
 Vibration    23          0.787              1.416              0.875
 Vibration    24          0.791              1.405              0.859
 Vibration    25          0.846              1.272              0.684
 Vibration    26          0.877              1.200              0.604
 Vibration    27          0.884              1.186              0.590

 Optimization completed.
    -- Stationary point found.
 Normal termination of Gaussian 16 at Thu Feb 18 02:59:28 2021.
