 Gaussian 16, Revision A.03,
 Gaussian 16:  ES64L-G16RevA.03 25-Dec-2016

 ----------------------------------------------------------------------
 # wB97XD def2tzvp, opt=(ts, noeigen, calcfc, maxcycles=70, maxstep=8),
  freq=noraman, scrf=(iefpcm, solvent=water)
 ----------------------------------------------------------------------

 ------------------------
 1_iteration/TS-552-1.out
 ------------------------
 Symbolic Z-matrix:
 Charge =  0 Multiplicity = 1

 SCF Done:  E(RwB97XD) =  -5705.37059562     A.U. after   15 cycles
 SCF Done:  E(RwB97XD) =  -5705.37255476     A.U. after   14 cycles
 SCF Done:  E(RwB97XD) =  -5705.37418039     A.U. after   13 cycles
 SCF Done:  E(RwB97XD) =  -5705.37550796     A.U. after   13 cycles
 SCF Done:  E(RwB97XD) =  -5705.37688680     A.U. after   13 cycles
 SCF Done:  E(RwB97XD) =  -5705.37810696     A.U. after   13 cycles
 SCF Done:  E(RwB97XD) =  -5705.37919977     A.U. after   13 cycles
 SCF Done:  E(RwB97XD) =  -5705.38021500     A.U. after   13 cycles
 SCF Done:  E(RwB97XD) =  -5705.38089283     A.U. after   13 cycles
 SCF Done:  E(RwB97XD) =  -5705.38144100     A.U. after   12 cycles
 SCF Done:  E(RwB97XD) =  -5705.38234356     A.U. after   12 cycles
 SCF Done:  E(RwB97XD) =  -5705.38234735     A.U. after   11 cycles
 SCF Done:  E(RwB97XD) =  -5705.38235271     A.U. after   10 cycles
 SCF Done:  E(RwB97XD) =  -5705.38235454     A.U. after   10 cycles
 SCF Done:  E(RwB97XD) =  -5705.38235568     A.U. after   10 cycles
 SCF Done:  E(RwB97XD) =  -5705.38235695     A.U. after    8 cycles
 SCF Done:  E(RwB97XD) =  -5705.38235112     A.U. after   10 cycles
 SCF Done:  E(RwB97XD) =  -5705.38235526     A.U. after    9 cycles
 SCF Done:  E(RwB97XD) =  -5705.38235643     A.U. after   10 cycles
 Optimization completed.
    -- Stationary point found.
 Normal termination of Gaussian 16 at Wed Feb 17 04:11:49 2021.

 ---------------------------------------------------------------------
 #N Geom=AllCheck Guess=TCheck SCRF=Check GenChk RwB97XD/def2TZVP Freq
 ---------------------------------------------------------------------

 Structure from the checkpoint file:  "/beegfs/scratch/user/q/tla25/Gau-31188.chk"
 ------------------------
 1_iteration/TS-552-1.out
 ------------------------
 Charge =  0 Multiplicity = 1

                         Standard orientation:
 ---------------------------------------------------------------------
 Center     Atomic      Atomic             Coordinates (Angstroms)
 Number     Number       Type             X           Y           Z
 ---------------------------------------------------------------------
      1          6           0       -0.971633   -0.402698   -0.199971
      2          6           0        0.029795   -1.429892   -0.318612
      3          8           0       -0.236097   -2.591940   -0.617788
      4          6           0       -0.851948    0.983241   -0.113689
      5          6           0       -1.133653    0.753979    2.732054
      6          1           0       -1.113028   -0.295788    2.434672
      7          1           0       -0.711406    0.848518    3.732574
      8          1           0       -2.167988    1.090588    2.747160
      9          7           0       -0.384543    1.529566    1.753351
     10          1           0       -0.535588    2.526361    1.858071
     11          1           0        0.611975    1.358041    1.822897
     12          6           0       -2.050954    1.880794   -0.266531
     13          1           0       -2.825914    1.615359    0.449629
     14          1           0       -1.773622    2.922756   -0.129534
     15          1           0       -2.461408    1.760502   -1.269946
     16         35           0        0.683278    1.826231   -0.966910
     17         35           0       -2.759885   -1.109904   -0.205457
     18          6           0        1.472362   -1.122076   -0.023064
     19          6           0        2.422037   -1.239442   -1.032202
     20          6           0        3.760768   -1.018013   -0.757769
     21          6           0        4.166415   -0.703520    0.533624
     22          6           0        3.227844   -0.626071    1.550778
     23          6           0        1.883943   -0.834637    1.271992
     24          1           0        2.105091   -1.483342   -2.038533
     25          1           0        4.492332   -1.091410   -1.552476
     26          1           0        5.213660   -0.531555    0.746843
     27          1           0        3.538951   -0.407505    2.564324
     28          1           0        1.158939   -0.805382    2.076358
 ---------------------------------------------------------------------

 SCF Done:  E(RwB97XD) =  -5705.38235643     A.U. after    1 cycles

 The electronic state is 1-A.
 Alpha  occ. eigenvalues -- -483.13697-483.12331 -62.68534 -62.67159 -56.47660
 Alpha  occ. eigenvalues --  -56.47298 -56.47278 -56.46275 -56.45925 -56.45914
 Alpha  occ. eigenvalues --  -19.22401 -14.48551 -10.41255 -10.37498 -10.32279
 Alpha  occ. eigenvalues --  -10.31993 -10.30494 -10.29836 -10.29666 -10.29579
 Alpha  occ. eigenvalues --  -10.29525 -10.29452 -10.29388  -8.82634  -8.81267
 Alpha  occ. eigenvalues --   -6.64808  -6.63659  -6.63595  -6.63410  -6.62293
 Alpha  occ. eigenvalues --   -6.62261  -2.75189  -2.74872  -2.74823  -2.73892
 Alpha  occ. eigenvalues --   -2.73892  -2.73799  -2.73478  -2.73453  -2.72549
 Alpha  occ. eigenvalues --   -2.72549  -1.13450  -1.04231  -0.97340  -0.96039
 Alpha  occ. eigenvalues --   -0.89684  -0.87143  -0.85739  -0.84090  -0.80645
 Alpha  occ. eigenvalues --   -0.79137  -0.73259  -0.71132  -0.68892  -0.64039
 Alpha  occ. eigenvalues --   -0.63078  -0.59330  -0.58109  -0.57670  -0.55715
 Alpha  occ. eigenvalues --   -0.55107  -0.54349  -0.53335  -0.51605  -0.50725
 Alpha  occ. eigenvalues --   -0.50488  -0.49937  -0.48101  -0.47701  -0.46872
 Alpha  occ. eigenvalues --   -0.45129  -0.43824  -0.43299  -0.43115  -0.39425
 Alpha  occ. eigenvalues --   -0.38538  -0.37491  -0.36717  -0.34740  -0.34339
 Alpha  occ. eigenvalues --   -0.32328  -0.28873
 Alpha virt. eigenvalues --    0.00989   0.03155   0.04586   0.05105   0.09603
 Alpha virt. eigenvalues --    0.10411   0.12930   0.13654   0.13851   0.14524
 Alpha virt. eigenvalues --    0.15726   0.16309   0.17004   0.18021   0.18615

 Mulliken charges:
               1
     1  C   -0.249908
     2  C    0.227674
     3  O   -0.448386
     4  C    0.188529
     5  C   -0.323765
     6  H    0.159829
     7  H    0.167523
     8  H    0.167832
     9  N   -0.352703
    10  H    0.287864
    11  H    0.280151
    12  C   -0.375667
    13  H    0.156898
    14  H    0.157395
    15  H    0.166620
    16  Br  -0.079598
    17  Br  -0.136450
    18  C    0.188822
    19  C   -0.231767
    20  C   -0.124932
    21  C   -0.153778
    22  C   -0.128954
    23  C   -0.321613
    24  H    0.142925
    25  H    0.146207
    26  H    0.146912
    27  H    0.145414
    28  H    0.196926
 Sum of Mulliken charges =  -0.00000

 Dipole moment (field-independent basis, Debye):
    X=              1.7627    Y=              9.3793    Z=              6.3365  Tot=             11.4556
 Quadrupole moment (field-independent basis, Debye-Ang):
   XX=           -106.3697   YY=           -124.9233   ZZ=            -99.4025
   XY=             -8.6796   XZ=             -3.2206   YZ=              4.9759

  Exact polarizability: 293.682  14.742 245.073  -6.147  23.037 240.538
 Approx polarizability: 229.663  14.908 202.796  -5.051  18.459 205.862

 ******    1 imaginary frequencies (negative Signs) ******

                      1                      2                      3
                      A                      A                      A
 Frequencies --   -353.0256                35.8674                53.5355
 Red. masses --      5.6094                 6.7615                 5.3622
 Frc consts  --      0.4119                 0.0051                 0.0091
 IR Inten    --    756.2815                 4.1748                 3.6985

                      4                      5                      6
                      A                      A                      A
 Frequencies --     66.4623                82.1124                98.3014
 Red. masses --      7.4181                 4.2282                 3.4143
 Frc consts  --      0.0193                 0.0168                 0.0194
 IR Inten    --      1.8973                 3.9050                 0.5236

                      7                      8                      9
                      A                      A                      A
 Frequencies --    138.2181               148.2944               184.1159
 Red. masses --      8.2651                 3.1194                 1.8945
 Frc consts  --      0.0930                 0.0404                 0.0378
 IR Inten    --      4.7533                 3.2730                 3.9005

                     10                     11                     12
                      A                      A                      A
 Frequencies --    193.1125               194.9638               209.7380
 Red. masses --      3.6214                 2.3221                 6.4248
 Frc consts  --      0.0796                 0.0520                 0.1665
 IR Inten    --      2.2657                 1.7724                 7.7742

                     13                     14                     15
                      A                      A                      A
 Frequencies --    253.6288               261.2362               269.5862
 Red. masses --      5.5062                 3.1213                 3.1900
 Frc consts  --      0.2087                 0.1255                 0.1366
 IR Inten    --     22.4304                 0.3313                 7.5528

                     16                     17                     18
                      A                      A                      A
 Frequencies --    290.9735               332.1475               350.6815
 Red. masses --      2.3628                 1.8754                 2.3454
 Frc consts  --      0.1179                 0.1219                 0.1699
 IR Inten    --      6.6745                10.1321                 8.8021

                     19                     20                     21
                      A                      A                      A
 Frequencies --    380.2518               423.1921               473.9000
 Red. masses --      4.9368                 2.9838                 4.1779
 Frc consts  --      0.4206                 0.3148                 0.5528
 IR Inten    --     14.9680                 1.8043                33.4045

                     22                     23                     24
                      A                      A                      A
 Frequencies --    519.3446               561.6746               635.6350
 Red. masses --      4.4571                 5.1621                 6.2126
 Frc consts  --      0.7083                 0.9595                 1.4789
 IR Inten    --     70.5219                25.6451                 0.4367

                     25                     26                     27
                      A                      A                      A
 Frequencies --    642.5037               664.9109               702.1610
 Red. masses --      1.4771                 4.9163                 3.7308
 Frc consts  --      0.3593                 1.2806                 1.0837
 IR Inten    --     89.7276                51.9690               141.4986

                     28                     29                     30
                      A                      A                      A
 Frequencies --    735.0463               768.0353               804.1011
 Red. masses --      1.5572                 5.4908                 3.7366
 Frc consts  --      0.4957                 1.9083                 1.4235
 IR Inten    --     61.0945                67.7988                62.0941

                     31                     32                     33
                      A                      A                      A
 Frequencies --    832.0607               887.5845               968.9244
 Red. masses --      3.8139                 1.2573                 1.4156
 Frc consts  --      1.5557                 0.5836                 0.7830
 IR Inten    --     43.7772                 1.5486                19.2036

                     34                     35                     36
                      A                      A                      A
 Frequencies --    998.4638              1018.7032              1023.4851
 Red. masses --      1.1238                 1.5774                 1.3654
 Frc consts  --      0.6601                 0.9644                 0.8427
 IR Inten    --     21.6407                10.3518                87.9161

                     37                     38                     39
                      A                      A                      A
 Frequencies --   1029.3560              1036.4122              1045.8141
 Red. masses --      2.1248                 1.4163                 2.1109
 Frc consts  --      1.3265                 0.8963                 1.3603
 IR Inten    --      9.1289                 5.2104                35.8020

                     40                     41                     42
                      A                      A                      A
 Frequencies --   1052.1211              1065.0280              1084.2569
 Red. masses --      1.9075                 1.7738                 3.8979
 Frc consts  --      1.2440                 1.1854                 2.6999
 IR Inten    --     65.3690                15.5896                10.3098

                     43                     44                     45
                      A                      A                      A
 Frequencies --   1097.5573              1114.0000              1163.4436
 Red. masses --      2.8352                 1.5546                 3.0922
 Frc consts  --      2.0123                 1.1367                 2.4661
 IR Inten    --     64.8761                16.3873                25.2068

                     46                     47                     48
                      A                      A                      A
 Frequencies --   1184.9757              1208.1202              1210.2886
 Red. masses --      1.1394                 1.1322                 1.3872
 Frc consts  --      0.9426                 0.9737                 1.1972
 IR Inten    --      0.0680                 2.4833                19.7054

                     49                     50                     51
                      A                      A                      A
 Frequencies --   1317.7174              1328.9309              1342.1670
 Red. masses --      4.2876                 5.5818                 1.3287
 Frc consts  --      4.3864                 5.8080                 1.4102
 IR Inten    --    115.8327               120.3467                10.3671

                     52                     53                     54
                      A                      A                      A
 Frequencies --   1360.4703              1408.6973              1427.0253
 Red. masses --      1.4609                 2.7758                 1.5088
 Frc consts  --      1.5932                 3.2455                 1.8103
 IR Inten    --      3.3689               874.7716               294.8454

                     55                     56                     57
                      A                      A                      A
 Frequencies --   1459.4880              1477.7042              1489.4594
 Red. masses --      1.2373                 1.0525                 1.8844
 Frc consts  --      1.5529                 1.3541                 2.4632
 IR Inten    --     53.9195                 1.4351                 5.0398

                     58                     59                     60
                      A                      A                      A
 Frequencies --   1491.2369              1494.7313              1503.9101
 Red. masses --      1.1981                 1.0421                 1.0399
 Frc consts  --      1.5698                 1.3717                 1.3857
 IR Inten    --     35.1884                27.5277                21.3532

                     61                     62                     63
                      A                      A                      A
 Frequencies --   1541.9617              1648.3245              1649.0247
 Red. masses --      2.3137                 1.1031                 6.1032
 Frc consts  --      3.2412                 1.7659                 9.7783
 IR Inten    --      5.8302                85.8184               120.4143

                     64                     65                     66
                      A                      A                      A
 Frequencies --   1657.6384              1674.6966              3064.2690
 Red. masses --     10.0704                 5.8624                 1.0340
 Frc consts  --     16.3033                 9.6871                 5.7206
 IR Inten    --    495.1081                 0.1746                29.5023

                     67                     68                     69
                      A                      A                      A
 Frequencies --   3077.9859              3137.2022              3155.8116
 Red. masses --      1.0368                 1.1042                 1.1007
 Frc consts  --      5.7875                 6.4031                 6.4585
 IR Inten    --      5.0241                12.8363                 7.1269

                     70                     71                     72
                      A                      A                      A
 Frequencies --   3166.9856              3177.4030              3196.0491
 Red. masses --      1.1045                 1.1042                 1.0858
 Frc consts  --      6.5266                 6.5684                 6.5345
 IR Inten    --     15.6311                12.5554                 2.0010

                     73                     74                     75
                      A                      A                      A
 Frequencies --   3200.8620              3208.3808              3215.6279
 Red. masses --      1.0877                 1.0915                 1.0953
 Frc consts  --      6.5658                 6.6198                 6.6731
 IR Inten    --      0.3537                10.7517                34.0661

                     76                     77                     78
                      A                      A                      A
 Frequencies --   3224.6475              3519.3326              3603.1379
 Red. masses --      1.0989                 1.0510                 1.0962
 Frc consts  --      6.7326                 7.6699                 8.3851
 IR Inten    --     15.0426                46.6919                78.8448

 - Thermochemistry -
 -------------------
 Temperature   298.150 Kelvin.  Pressure   1.00000 Atm.
 Atom     1 has atomic number  6 and mass  12.00000

 Molecular mass:   332.93639 amu.
 Principal axes and moments of inertia in atomic units:
                           1         2         3
     Eigenvalues --  3638.246176443.985657649.42079
           X            0.99618  -0.08707  -0.00690
           Y            0.08735   0.99317   0.07734
           Z            0.00012  -0.07765   0.99698
 This molecule is an asymmetric top.
 Rotational symmetry number  1.
 Warning -- assumption of classical behavior for rotation
           may cause significant error
 Rotational temperatures (Kelvin)      0.02381     0.01344     0.01132
 Rotational constants (GHZ):           0.49605     0.28007     0.23593
    1 imaginary frequencies ignored.
 Zero-point vibrational energy     578485.4 (Joules/Mol)
                                  138.26133 (Kcal/Mol)
 Warning -- explicit consideration of  22 degrees of freedom as
           vibrations may cause significant error
 Vibrational temperatures:     51.61    77.03    95.62   118.14   141.43
          (Kelvin)            198.86   213.36   264.90   277.85   280.51
                              301.77   364.92   375.86   387.87   418.65
                              477.89   504.55   547.10   608.88   681.84
                              747.22   808.12   914.54   924.42   956.66
                             1010.25  1057.57  1105.03  1156.92  1197.15
                             1277.04  1394.07  1436.57  1465.69  1472.57
                             1481.01  1491.17  1504.69  1513.77  1532.34
                             1560.00  1579.14  1602.80  1673.94  1704.92
                             1738.22  1741.34  1895.90  1912.04  1931.08
                             1957.41  2026.80  2053.17  2099.88  2126.09
                             2143.00  2145.56  2150.58  2163.79  2218.54
                             2371.57  2372.58  2384.97  2409.51  4408.80
                             4428.54  4513.73  4540.51  4556.59  4571.57
                             4598.40  4605.33  4616.14  4626.57  4639.55
                             5063.53  5184.11

 Zero-point correction=                           0.220333 (Hartree/Particle)
 Thermal correction to Energy=                    0.236041
 Thermal correction to Enthalpy=                  0.236985
 Thermal correction to Gibbs Free Energy=         0.175568
 Sum of electronic and zero-point Energies=          -5705.162023
 Sum of electronic and thermal Energies=             -5705.146316
 Sum of electronic and thermal Enthalpies=           -5705.145371
 Sum of electronic and thermal Free Energies=        -5705.206789

                     E (Thermal)             CV                S
                      KCal/Mol        Cal/Mol-Kelvin    Cal/Mol-Kelvin
 Total                  148.118             56.794            129.264
 Electronic               0.000              0.000              0.000
 Translational            0.889              2.981             43.303
 Rotational               0.889              2.981             33.550
 Vibrational            146.340             50.832             52.411
 Vibration     1          0.594              1.982              5.475
 Vibration     2          0.596              1.976              4.682
 Vibration     3          0.598              1.970              4.255
 Vibration     4          0.600              1.961              3.840
 Vibration     5          0.604              1.950              3.488
 Vibration     6          0.614              1.915              2.828
 Vibration     7          0.618              1.905              2.694
 Vibration     8          0.631              1.861              2.286
 Vibration     9          0.635              1.849              2.198
 Vibration    10          0.636              1.847              2.180
 Vibration    11          0.642              1.826              2.046
 Vibration    12          0.665              1.757              1.705
 Vibration    13          0.669              1.744              1.653
 Vibration    14          0.674              1.729              1.599
 Vibration    15          0.687              1.691              1.468
 Vibration    16          0.714              1.611              1.250
 Vibration    17          0.728              1.574              1.163
 Vibration    18          0.750              1.512              1.038
 Vibration    19          0.785              1.420              0.881
 Vibration    20          0.831              1.308              0.727
 Vibration    21          0.874              1.207              0.611
 Vibration    22          0.917              1.114              0.520

 Optimization completed.
    -- Stationary point found.
 Normal termination of Gaussian 16 at Wed Feb 17 05:10:42 2021.
