 Gaussian 16, Revision A.03,
 Gaussian 16:  ES64L-G16RevA.03 25-Dec-2016

 ----------------------------------------------------------------------
 # wB97XD def2tzvp, opt=(ts, noeigen, calcfc, maxcycles=70, maxstep=1),
  freq=noraman, scrf=(iefpcm, solvent=water)
 ----------------------------------------------------------------------

 ------------------------
 0_iteration/TS-581-0.out
 ------------------------
 Symbolic Z-matrix:
 Charge =  0 Multiplicity = 1

 SCF Done:  E(RwB97XD) =  -920.717600410     A.U. after   15 cycles
 SCF Done:  E(RwB97XD) =  -920.717566113     A.U. after   10 cycles
 SCF Done:  E(RwB97XD) =  -920.717534718     A.U. after   10 cycles
 SCF Done:  E(RwB97XD) =  -920.717507166     A.U. after   10 cycles
 SCF Done:  E(RwB97XD) =  -920.717484137     A.U. after   10 cycles
 SCF Done:  E(RwB97XD) =  -920.717466271     A.U. after   10 cycles
 SCF Done:  E(RwB97XD) =  -920.717458543     A.U. after   10 cycles
 SCF Done:  E(RwB97XD) =  -920.717448076     A.U. after   10 cycles
 SCF Done:  E(RwB97XD) =  -920.717442207     A.U. after   10 cycles
 SCF Done:  E(RwB97XD) =  -920.717450706     A.U. after   10 cycles
 SCF Done:  E(RwB97XD) =  -920.718602706     A.U. after   10 cycles
 SCF Done:  E(RwB97XD) =  -920.718628613     A.U. after   10 cycles
 SCF Done:  E(RwB97XD) =  -920.718653350     A.U. after   10 cycles
 SCF Done:  E(RwB97XD) =  -920.718676925     A.U. after   10 cycles
 SCF Done:  E(RwB97XD) =  -920.718699211     A.U. after   10 cycles
 SCF Done:  E(RwB97XD) =  -920.718719682     A.U. after   10 cycles
 SCF Done:  E(RwB97XD) =  -920.718735196     A.U. after   10 cycles
 SCF Done:  E(RwB97XD) =  -920.718742457     A.U. after   10 cycles
 SCF Done:  E(RwB97XD) =  -920.718742983     A.U. after    9 cycles
 Optimization completed.
    -- Stationary point found.
 Normal termination of Gaussian 16 at Tue Feb 16 02:10:34 2021.

 ---------------------------------------------------------------------
 #N Geom=AllCheck Guess=TCheck SCRF=Check GenChk RwB97XD/def2TZVP Freq
 ---------------------------------------------------------------------

 Structure from the checkpoint file:  "/beegfs/scratch/user/q/tla25/Gau-88549.chk"
 ------------------------
 0_iteration/TS-581-0.out
 ------------------------
 Charge =  0 Multiplicity = 1

                         Standard orientation:
 ---------------------------------------------------------------------
 Center     Atomic      Atomic             Coordinates (Angstroms)
 Number     Number       Type             X           Y           Z
 ---------------------------------------------------------------------
      1          6           0       -0.001842    0.822269   -0.595772
      2          6           0       -1.390579    0.556071   -0.270061
      3          8           0       -2.260437    1.438706   -0.307435
      4          6           0        1.054213   -0.044403   -0.355742
      5          6           0        1.170447    0.706216    2.320824
      6          1           0        0.911476    0.488139    3.356287
      7          1           0        2.168835    1.135685    2.283400
      8          1           0        0.453764    1.421471    1.915638
      9          7           0        1.121184   -0.494190    1.494809
     10          1           0        1.883542   -1.134218    1.685905
     11          1           0        0.245474   -0.987795    1.632906
     12          6           0        2.467692    0.406927   -0.595791
     13          1           0        2.653428    1.356249   -0.094464
     14          1           0        3.183778   -0.330497   -0.240163
     15          1           0        2.627921    0.549545   -1.664982
     16         17           0        0.940924   -1.812983   -0.908490
     17          6           0        0.316951    2.246199   -1.000349
     18          1           0        1.073179    2.294047   -1.785747
     19          1           0       -0.589214    2.711111   -1.383640
     20          1           0        0.670723    2.869456   -0.170440
     21          7           0       -1.745821   -0.700973    0.171804
     22          6           0       -3.139224   -1.013911    0.402578
     23          1           0       -1.178091   -1.465452   -0.153262
     24          1           0       -3.206300   -2.034454    0.776398
     25          1           0       -3.558837   -0.342357    1.150199
     26          1           0       -3.745387   -0.929950   -0.504627
 ---------------------------------------------------------------------

 SCF Done:  E(RwB97XD) =  -920.718742983     A.U. after    1 cycles

 The electronic state is 1-A.
 Alpha  occ. eigenvalues -- -101.68966 -19.19275 -14.48886 -14.43678 -10.39719
 Alpha  occ. eigenvalues --  -10.36698 -10.31784 -10.30129 -10.28952 -10.26499
 Alpha  occ. eigenvalues --  -10.25583  -9.57590  -7.32155  -7.31405  -7.31379
 Alpha  occ. eigenvalues --   -1.11881  -1.04687  -1.00327  -0.95999  -0.88339
 Alpha  occ. eigenvalues --   -0.83116  -0.79487  -0.78947  -0.74555  -0.67564
 Alpha  occ. eigenvalues --   -0.64296  -0.63454  -0.59128  -0.57993  -0.55507
 Alpha  occ. eigenvalues --   -0.55363  -0.52835  -0.51404  -0.50610  -0.49766
 Alpha  occ. eigenvalues --   -0.48913  -0.47790  -0.47371  -0.46731  -0.45285
 Alpha  occ. eigenvalues --   -0.44650  -0.44010  -0.43306  -0.39345  -0.38636
 Alpha  occ. eigenvalues --   -0.33888  -0.32629  -0.26321
 Alpha virt. eigenvalues --    0.05768   0.07343   0.10049   0.12792   0.13180
 Alpha virt. eigenvalues --    0.14962   0.15752   0.16722   0.16952   0.17744
 Alpha virt. eigenvalues --    0.18433   0.19125   0.19959   0.20301   0.20962

 Mulliken charges:
               1
     1  C   -0.266391
     2  C    0.326927
     3  O   -0.554769
     4  C    0.172248
     5  C   -0.309881
     6  H    0.160677
     7  H    0.163424
     8  H    0.160031
     9  N   -0.297821
    10  H    0.287711
    11  H    0.272899
    12  C   -0.406776
    13  H    0.156896
    14  H    0.153537
    15  H    0.165919
    16  Cl  -0.186835
    17  C   -0.391344
    18  H    0.126728
    19  H    0.132792
    20  H    0.119872
    21  N   -0.341683
    22  C   -0.259388
    23  H    0.234698
    24  H    0.135308
    25  H    0.127794
    26  H    0.117426
 Sum of Mulliken charges =  -0.00000

 Dipole moment (field-independent basis, Debye):
    X=              6.8002    Y=             -3.9314    Z=              5.6026  Tot=              9.6483
 Quadrupole moment (field-independent basis, Debye-Ang):
   XX=            -75.8694   YY=            -79.9716   ZZ=            -68.7719
   XY=             12.1271   XZ=              2.9442   YZ=             -1.7634

  Exact polarizability: 184.573 -11.108 172.596   5.083  -3.489 148.982
 Approx polarizability: 143.106 -10.556 143.436   3.330  -2.548 123.953

 ******    1 imaginary frequencies (negative Signs) ******

                      1                      2                      3
                      A                      A                      A
 Frequencies --   -414.2665                66.2304                85.7091
 Red. masses --      5.4364                 3.0649                 4.2718
 Frc consts  --      0.5497                 0.0079                 0.0185
 IR Inten    --    542.3251                 2.4465                 8.5107

                      4                      5                      6
                      A                      A                      A
 Frequencies --     98.2547               128.1219               146.1532
 Red. masses --      1.9966                 1.2133                 1.3914
 Frc consts  --      0.0114                 0.0117                 0.0175
 IR Inten    --     18.3957                 2.9597                 7.1596

                      7                      8                      9
                      A                      A                      A
 Frequencies --    149.5887               163.8606               184.0900
 Red. masses --      2.3980                 1.9811                 2.3541
 Frc consts  --      0.0316                 0.0313                 0.0470
 IR Inten    --      2.2895                 7.6105                 2.3405

                     10                     11                     12
                      A                      A                      A
 Frequencies --    200.3086               221.8525               262.7653
 Red. masses --      1.5432                 4.0165                 3.5709
 Frc consts  --      0.0365                 0.1165                 0.1453
 IR Inten    --      3.4458                21.8903                 5.2695

                     13                     14                     15
                      A                      A                      A
 Frequencies --    289.9089               301.2234               335.8416
 Red. masses --      1.6503                 2.4087                 2.0704
 Frc consts  --      0.0817                 0.1288                 0.1376
 IR Inten    --      0.8015                15.7078                22.7395

                     16                     17                     18
                      A                      A                      A
 Frequencies --    340.9349               367.1498               376.4127
 Red. masses --      3.9198                 2.7860                 3.4532
 Frc consts  --      0.2684                 0.2213                 0.2883
 IR Inten    --     33.1620                 2.1125                28.4736

                     19                     20                     21
                      A                      A                      A
 Frequencies --    425.6866               526.9736               549.4015
 Red. masses --      4.4936                 2.7443                 2.2738
 Frc consts  --      0.4798                 0.4490                 0.4044
 IR Inten    --     67.6999                42.5441               191.6573

                     22                     23                     24
                      A                      A                      A
 Frequencies --    569.2572               661.7867               712.9608
 Red. masses --      2.1894                 2.4060                 1.6322
 Frc consts  --      0.4180                 0.6209                 0.4888
 IR Inten    --     59.4684                58.9771               111.0112

                     25                     26                     27
                      A                      A                      A
 Frequencies --    795.9574               845.9224               953.9889
 Red. masses --      7.4688                 2.8245                 1.8808
 Frc consts  --      2.7879                 1.1908                 1.0085
 IR Inten    --     55.0191               130.3701               111.0646

                     28                     29                     30
                      A                      A                      A
 Frequencies --   1003.5466              1048.5491              1053.6117
 Red. masses --      1.1016                 1.2662                 1.5962
 Frc consts  --      0.6537                 0.8202                 1.0440
 IR Inten    --     27.3292                20.1076                67.1411

                     31                     32                     33
                      A                      A                      A
 Frequencies --   1057.5389              1070.8903              1084.5307
 Red. masses --      1.9859                 1.5527                 2.7326
 Frc consts  --      1.3086                 1.0491                 1.8937
 IR Inten    --     76.1641                28.0494                 6.3577

                     34                     35                     36
                      A                      A                      A
 Frequencies --   1098.3051              1128.4096              1147.5995
 Red. masses --      1.9212                 2.4606                 1.3173
 Frc consts  --      1.3654                 1.8460                 1.0222
 IR Inten    --    134.5799                 3.3832                 8.6132

                     37                     38                     39
                      A                      A                      A
 Frequencies --   1177.4834              1217.2328              1224.9581
 Red. masses --      1.7387                 3.3406                 1.3948
 Frc consts  --      1.4203                 2.9162                 1.2331
 IR Inten    --     76.0405                45.4431                38.5770

                     40                     41                     42
                      A                      A                      A
 Frequencies --   1340.3841              1354.7571              1399.3058
 Red. masses --      2.5817                 1.4688                 1.3087
 Frc consts  --      2.7328                 1.5883                 1.5098
 IR Inten    --    301.1336                56.3092                 6.1023

                     43                     44                     45
                      A                      A                      A
 Frequencies --   1422.3286              1446.4776              1456.0317
 Red. masses --      1.2387                 1.3896                 1.2147
 Frc consts  --      1.4764                 1.7131                 1.5173
 IR Inten    --     46.8334               196.8437                17.6465

                     46                     47                     48
                      A                      A                      A
 Frequencies --   1465.5652              1477.2769              1480.4376
 Red. masses --      1.5825                 1.0614                 1.0511
 Frc consts  --      2.0027                 1.3648                 1.3573
 IR Inten    --    216.2917                36.3560                 8.7179

                     49                     50                     51
                      A                      A                      A
 Frequencies --   1486.2698              1494.4401              1501.8680
 Red. masses --      1.0711                 1.0773                 1.0752
 Frc consts  --      1.3941                 1.4176                 1.4289
 IR Inten    --     18.3536                10.2993                 8.8250

                     52                     53                     54
                      A                      A                      A
 Frequencies --   1502.6601              1505.8922              1510.5229
 Red. masses --      1.0923                 1.0476                 1.3750
 Frc consts  --      1.4531                 1.3997                 1.8484
 IR Inten    --     29.5483                 6.7449               282.5496

                     55                     56                     57
                      A                      A                      A
 Frequencies --   1547.0292              1633.6279              1645.0975
 Red. masses --      1.7063                 1.3667                 2.9250
 Frc consts  --      2.4060                 2.1490                 4.6640
 IR Inten    --    374.2678               384.8086               501.7045

                     58                     59                     60
                      A                      A                      A
 Frequencies --   3011.8337              3035.8190              3069.7474
 Red. masses --      1.0539                 1.0457                 1.0334
 Frc consts  --      5.6328                 5.6780                 5.7374
 IR Inten    --    114.1131                98.7493                36.6777

                     61                     62                     63
                      A                      A                      A
 Frequencies --   3073.6173              3088.4798              3114.6895
 Red. masses --      1.0365                 1.0852                 1.0900
 Frc consts  --      5.7690                 6.0987                 6.2302
 IR Inten    --     10.7063                58.1160                43.1477

                     64                     65                     66
                      A                      A                      A
 Frequencies --   3145.9794              3148.3097              3149.5618
 Red. masses --      1.1046                 1.0990                 1.1000
 Frc consts  --      6.4413                 6.4181                 6.4288
 IR Inten    --      9.1451                 7.5115                14.0774

                     67                     68                     69
                      A                      A                      A
 Frequencies --   3153.9702              3166.6096              3172.0871
 Red. masses --      1.1043                 1.1039                 1.1051
 Frc consts  --      6.4723                 6.5217                 6.5517
 IR Inten    --     27.0154                15.8737                12.5123

                     70                     71                     72
                      A                      A                      A
 Frequencies --   3514.2227              3600.2105              3629.3808
 Red. masses --      1.0510                 1.0965                 1.0766
 Frc consts  --      7.6470                 8.3734                 8.3551
 IR Inten    --     33.3049                77.0215               115.3285

 - Thermochemistry -
 -------------------
 Temperature   298.150 Kelvin.  Pressure   1.00000 Atm.
 Atom     1 has atomic number  6 and mass  12.00000

 Molecular mass:   178.08729 amu.
 Principal axes and moments of inertia in atomic units:
                           1         2         3
     Eigenvalues --  1685.921912435.082262787.82337
           X            0.99411   0.10834   0.00131
           Y           -0.10786   0.99072  -0.08273
           Z           -0.01026   0.08211   0.99657
 This molecule is an asymmetric top.
 Rotational symmetry number  1.
 Warning -- assumption of classical behavior for rotation
           may cause significant error
 Rotational temperatures (Kelvin)      0.05137     0.03557     0.03107
 Rotational constants (GHZ):           1.07048     0.74114     0.64737
    1 imaginary frequencies ignored.
 Zero-point vibrational energy     585078.5 (Joules/Mol)
                                  139.83712 (Kcal/Mol)
 Warning -- explicit consideration of  21 degrees of freedom as
           vibrations may cause significant error
 Vibrational temperatures:     95.29   123.32   141.37   184.34   210.28
          (Kelvin)            215.22   235.76   264.86   288.20   319.20
                              378.06   417.11   433.39   483.20   490.53
                              528.25   541.57   612.47   758.20   790.47
                              819.03   952.16  1025.79  1145.21  1217.09
                             1372.58  1443.88  1508.63  1515.91  1521.56
                             1540.77  1560.40  1580.22  1623.53  1651.14
                             1694.14  1751.33  1762.44  1928.51  1949.19
                             2013.29  2046.41  2081.16  2094.90  2108.62
                             2125.47  2130.02  2138.41  2150.17  2160.85
                             2161.99  2166.64  2173.31  2225.83  2350.43
                             2366.93  4333.36  4367.87  4416.68  4422.25
                             4443.63  4481.34  4526.36  4529.72  4531.52
                             4537.86  4556.04  4563.93  5056.18  5179.90
                             5221.87

 Zero-point correction=                           0.222845 (Hartree/Particle)
 Thermal correction to Energy=                    0.236675
 Thermal correction to Enthalpy=                  0.237619
 Thermal correction to Gibbs Free Energy=         0.183094
 Sum of electronic and zero-point Energies=           -920.495898
 Sum of electronic and thermal Energies=              -920.482068
 Sum of electronic and thermal Enthalpies=            -920.481124
 Sum of electronic and thermal Free Energies=         -920.535649

                     E (Thermal)             CV                S
                      KCal/Mol        Cal/Mol-Kelvin    Cal/Mol-Kelvin
 Total                  148.516             49.361            114.759
 Electronic               0.000              0.000              0.000
 Translational            0.889              2.981             41.438
 Rotational               0.889              2.981             30.816
 Vibrational            146.738             43.400             42.505
 Vibration     1          0.598              1.970              4.262
 Vibration     2          0.601              1.959              3.756
 Vibration     3          0.604              1.950              3.489
 Vibration     4          0.611              1.925              2.974
 Vibration     5          0.617              1.907              2.722
 Vibration     6          0.618              1.903              2.677
 Vibration     7          0.623              1.887              2.505
 Vibration     8          0.631              1.862              2.287
 Vibration     9          0.638              1.839              2.130
 Vibration    10          0.648              1.808              1.944
 Vibration    11          0.670              1.741              1.643
 Vibration    12          0.686              1.693              1.474
 Vibration    13          0.693              1.671              1.410
 Vibration    14          0.717              1.604              1.232
 Vibration    15          0.720              1.594              1.208
 Vibration    16          0.740              1.540              1.092
 Vibration    17          0.747              1.520              1.054
 Vibration    18          0.788              1.414              0.873
 Vibration    19          0.882              1.190              0.594
 Vibration    20          0.905              1.141              0.545
 Vibration    21          0.925              1.098              0.506

 Optimization completed.
    -- Stationary point found.
 Normal termination of Gaussian 16 at Tue Feb 16 02:39:13 2021.
