 Gaussian 16, Revision A.03,
 Gaussian 16:  ES64L-G16RevA.03 25-Dec-2016

 ----------------------------------------------------------------------
 # wB97XD def2tzvp, opt=(ts, noeigen, calcfc, maxcycles=70, maxstep=1),
  freq=noraman, scrf=(iefpcm, solvent=water)
 ----------------------------------------------------------------------

 -----------------------
 0_iteration/TS-51-0.out
 -----------------------
 Symbolic Z-matrix:
 Charge =  0 Multiplicity = 1

 SCF Done:  E(RwB97XD) =  -574.227095730     A.U. after   15 cycles
 SCF Done:  E(RwB97XD) =  -574.227025829     A.U. after   10 cycles
 SCF Done:  E(RwB97XD) =  -574.226959473     A.U. after   10 cycles
 SCF Done:  E(RwB97XD) =  -574.226896673     A.U. after   10 cycles
 SCF Done:  E(RwB97XD) =  -574.226837442     A.U. after   10 cycles
 SCF Done:  E(RwB97XD) =  -574.226781800     A.U. after   10 cycles
 SCF Done:  E(RwB97XD) =  -574.226729773     A.U. after   10 cycles
 SCF Done:  E(RwB97XD) =  -574.226681396     A.U. after   10 cycles
 SCF Done:  E(RwB97XD) =  -574.226636716     A.U. after   11 cycles
 SCF Done:  E(RwB97XD) =  -574.226595799     A.U. after    9 cycles
 SCF Done:  E(RwB97XD) =  -574.226626328     A.U. after   11 cycles
 SCF Done:  E(RwB97XD) =  -574.226635104     A.U. after   11 cycles
 SCF Done:  E(RwB97XD) =  -574.226638911     A.U. after   11 cycles
 SCF Done:  E(RwB97XD) =  -574.226639890     A.U. after   11 cycles
 SCF Done:  E(RwB97XD) =  -574.226645152     A.U. after   10 cycles
 SCF Done:  E(RwB97XD) =  -574.226649056     A.U. after   10 cycles
 SCF Done:  E(RwB97XD) =  -574.226649016     A.U. after   10 cycles
 SCF Done:  E(RwB97XD) =  -574.226649685     A.U. after   10 cycles
 SCF Done:  E(RwB97XD) =  -574.226649694     A.U. after    8 cycles
 Optimization completed.
    -- Stationary point found.
 Normal termination of Gaussian 16 at Sat Jan 30 09:49:19 2021.

 ---------------------------------------------------------------------
 #N Geom=AllCheck Guess=TCheck SCRF=Check GenChk RwB97XD/def2TZVP Freq
 ---------------------------------------------------------------------

 Structure from the checkpoint file:  "/beegfs/scratch/user/q/tla25/Gau-16137.chk"
 -----------------------
 0_iteration/TS-51-0.out
 -----------------------
 Charge =  0 Multiplicity = 1

                         Standard orientation:
 ---------------------------------------------------------------------
 Center     Atomic      Atomic             Coordinates (Angstroms)
 Number     Number       Type             X           Y           Z
 ---------------------------------------------------------------------
      1          6           0       -1.479658   -0.781374   -0.261001
      2          6           0       -2.851730   -0.809247    0.098503
      3          8           0       -3.648983   -1.685179   -0.293651
      4          6           0       -0.544986    0.190951    0.169295
      5          6           0        0.110602    2.830312   -0.390943
      6          1           0       -0.015439    3.671566   -1.070720
      7          1           0       -0.286496    3.093467    0.587863
      8          1           0        1.168385    2.594760   -0.296112
      9          7           0       -0.596185    1.643995   -0.883083
     10          1           0       -1.586901    1.823301   -1.009855
     11          1           0       -0.235089    1.341370   -1.782406
     12          6           0        0.909189   -0.160185    0.138928
     13          6           0        1.492567   -0.738817   -0.986827
     14          6           0        2.838925   -1.063870   -0.994508
     15          6           0        3.623462   -0.818305    0.125117
     16          6           0        3.053009   -0.239852    1.248345
     17          6           0        1.705694    0.093158    1.250758
     18          1           0        0.890996   -0.938927   -1.865732
     19          1           0        3.278296   -1.510750   -1.877334
     20          1           0        4.675291   -1.074165    0.118686
     21          1           0        3.657197   -0.041292    2.124476
     22          1           0        1.266544    0.551862    2.128911
     23          1           0       -0.795380    0.716251    1.089869
     24          1           0       -1.157783   -1.557768   -0.941626
     25          7           0       -3.344229    0.148987    0.980872
     26          1           0       -2.878968    1.034621    1.074504
     27          1           0       -4.348332    0.209640    0.998171
 ---------------------------------------------------------------------

 SCF Done:  E(RwB97XD) =  -574.226649694     A.U. after    1 cycles

 The electronic state is 1-A.
 Alpha  occ. eigenvalues --  -19.18065 -14.50289 -14.42488 -10.35944 -10.34392
 Alpha  occ. eigenvalues --  -10.32426 -10.30580 -10.29447 -10.29433 -10.29378
 Alpha  occ. eigenvalues --  -10.29340 -10.29235 -10.23422  -1.10230  -1.05709
 Alpha  occ. eigenvalues --   -0.97586  -0.97233  -0.89697  -0.85578  -0.83377
 Alpha  occ. eigenvalues --   -0.79633  -0.74733  -0.71154  -0.68270  -0.64836
 Alpha  occ. eigenvalues --   -0.64141  -0.61208  -0.60336  -0.58122  -0.55940
 Alpha  occ. eigenvalues --   -0.55434  -0.54710  -0.51991  -0.51589  -0.50934
 Alpha  occ. eigenvalues --   -0.48953  -0.48333  -0.47773  -0.46810  -0.45307
 Alpha  occ. eigenvalues --   -0.44962  -0.43180  -0.42585  -0.34327  -0.34198
 Alpha  occ. eigenvalues --   -0.33995  -0.32092  -0.25934
 Alpha virt. eigenvalues --    0.03435   0.04824   0.09217   0.10729   0.12578
 Alpha virt. eigenvalues --    0.13031   0.13778   0.15756   0.15998   0.17021
 Alpha virt. eigenvalues --    0.17416   0.17513   0.18793   0.19076   0.19213

 Mulliken charges:
               1
     1  C   -0.393998
     2  C    0.273813
     3  O   -0.585881
     4  C   -0.136340
     5  C   -0.291692
     6  H    0.164968
     7  H    0.157375
     8  H    0.165223
     9  N   -0.223863
    10  H    0.283575
    11  H    0.283398
    12  C    0.179264
    13  C   -0.253828
    14  C   -0.149569
    15  C   -0.145833
    16  C   -0.127510
    17  C   -0.224809
    18  H    0.162321
    19  H    0.145185
    20  H    0.146660
    21  H    0.145100
    22  H    0.143230
    23  H    0.160989
    24  H    0.112434
    25  N   -0.495948
    26  H    0.253233
    27  H    0.252502
 Sum of Mulliken charges =  -0.00000

 Dipole moment (field-independent basis, Debye):
    X=              7.4375    Y=             11.6983    Z=             -1.2540  Tot=             13.9190
 Quadrupole moment (field-independent basis, Debye-Ang):
   XX=            -96.2868   YY=            -76.7011   ZZ=            -71.7725
   XY=            -26.7048   XZ=             -2.9118   YZ=             -1.0978

  Exact polarizability: 248.705  11.586 170.791  -0.040  16.828 171.181
 Approx polarizability: 181.714   5.226 139.813   1.688  15.702 148.491

 ******    1 imaginary frequencies (negative Signs) ******

                      1                      2                      3
                      A                      A                      A
 Frequencies --   -332.0751                48.6869                56.2114
 Red. masses --      6.6403                 3.0507                 3.3654
 Frc consts  --      0.4314                 0.0043                 0.0063
 IR Inten    --    905.3499                 1.7222                 7.7817

                      4                      5                      6
                      A                      A                      A
 Frequencies --     77.6764                96.8037               102.6016
 Red. masses --      4.0937                 4.0793                 4.7229
 Frc consts  --      0.0146                 0.0225                 0.0293
 IR Inten    --      3.3982                10.5926                 7.4360

                      7                      8                      9
                      A                      A                      A
 Frequencies --    148.3726               214.9305               225.1342
 Red. masses --      1.6905                 1.6091                 3.0153
 Frc consts  --      0.0219                 0.0438                 0.0900
 IR Inten    --      2.7492                 3.4115                 4.6021

                     10                     11                     12
                      A                      A                      A
 Frequencies --    245.4074               306.3447               350.3656
 Red. masses --      4.9502                 3.7393                 3.2317
 Frc consts  --      0.1757                 0.2068                 0.2337
 IR Inten    --      2.1655                 8.9556                16.8718

                     13                     14                     15
                      A                      A                      A
 Frequencies --    405.0119               421.6348               436.4549
 Red. masses --      1.7790                 2.8617                 1.3394
 Frc consts  --      0.1719                 0.2997                 0.1503
 IR Inten    --    107.6304                 1.7517               396.5739

                     16                     17                     18
                      A                      A                      A
 Frequencies --    465.7634               540.0108               559.5559
 Red. masses --      1.8472                 3.3470                 2.2030
 Frc consts  --      0.2361                 0.5751                 0.4064
 IR Inten    --     36.8659                 4.7322                64.1837

                     19                     20                     21
                      A                      A                      A
 Frequencies --    619.7806               635.3747               642.4331
 Red. masses --      4.6336                 2.7222                 3.1619
 Frc consts  --      1.0487                 0.6475                 0.7689
 IR Inten    --     32.5766                59.0440                11.4002

                     22                     23                     24
                      A                      A                      A
 Frequencies --    646.5167               726.0011               742.3285
 Red. masses --      1.7886                 1.7136                 1.4460
 Frc consts  --      0.4405                 0.5322                 0.4695
 IR Inten    --    140.9013                62.4748                81.1179

                     25                     26                     27
                      A                      A                      A
 Frequencies --    788.2238               804.1700               880.8339
 Red. masses --      8.5326                 2.1321                 1.3622
 Frc consts  --      3.1234                 0.8124                 0.6227
 IR Inten    --     84.1191                 3.9469                 2.0495

                     28                     29                     30
                      A                      A                      A
 Frequencies --    881.7840               945.4047               965.3349
 Red. masses --      2.5070                 2.7355                 1.6446
 Frc consts  --      1.1485                 1.4405                 0.9029
 IR Inten    --     17.6085                 6.0210                 5.5582

                     31                     32                     33
                      A                      A                      A
 Frequencies --   1015.6211              1025.9886              1032.1473
 Red. masses --      1.3665                 5.4087                 1.3222
 Frc consts  --      0.8305                 3.3545                 0.8299
 IR Inten    --      0.6032                 0.5555                 5.6421

                     34                     35                     36
                      A                      A                      A
 Frequencies --   1036.4525              1047.5313              1064.2822
 Red. masses --      1.2817                 1.8793                 2.0969
 Frc consts  --      0.8112                 1.2150                 1.3994
 IR Inten    --     24.0147                23.8908                11.3111

                     37                     38                     39
                      A                      A                      A
 Frequencies --   1096.2467              1106.5486              1114.6548
 Red. masses --      1.5610                 1.6657                 1.5848
 Frc consts  --      1.1053                 1.2016                 1.1601
 IR Inten    --    234.3106                30.4958                33.9729

                     40                     41                     42
                      A                      A                      A
 Frequencies --   1185.3490              1213.7844              1221.8381
 Red. masses --      1.1359                 1.1248                 2.3469
 Frc consts  --      0.9404                 0.9764                 2.0643
 IR Inten    --      0.4068                 1.2008               104.9342

                     43                     44                     45
                      A                      A                      A
 Frequencies --   1242.8122              1263.6701              1274.1972
 Red. masses --      1.3838                 1.3636                 1.3815
 Frc consts  --      1.2593                 1.2829                 1.3215
 IR Inten    --    202.9034                51.1776                 1.4384

                     46                     47                     48
                      A                      A                      A
 Frequencies --   1295.8582              1339.9313              1345.2184
 Red. masses --      1.7826                 2.6728                 1.3208
 Frc consts  --      1.7637                 2.8273                 1.4082
 IR Inten    --     36.4191                17.3791                 7.1411

                     49                     50                     51
                      A                      A                      A
 Frequencies --   1364.4910              1380.8182              1463.1858
 Red. masses --      1.8289                 2.3959                 1.2049
 Frc consts  --      2.0063                 2.6915                 1.5198
 IR Inten    --    100.0704               356.7601                14.7834

                     52                     53                     54
                      A                      A                      A
 Frequencies --   1477.2276              1493.8024              1504.2446
 Red. masses --      2.3349                 1.0419                 1.0469
 Frc consts  --      3.0020                 1.3698                 1.3957
 IR Inten    --    176.6393                19.1244                10.2877

                     55                     56                     57
                      A                      A                      A
 Frequencies --   1515.1963              1549.6193              1611.9452
 Red. masses --      2.2671                 2.4489                 3.4462
 Frc consts  --      3.0666                 3.4648                 5.2758
 IR Inten    --     62.8077                 4.3078              1389.7746

                     58                     59                     60
                      A                      A                      A
 Frequencies --   1635.5024              1644.6058              1657.2241
 Red. masses --      1.3250                 1.1778                 4.9397
 Frc consts  --      2.0882                 1.8769                 7.9930
 IR Inten    --    428.4867                78.7801                 8.2914

                     61                     62                     63
                      A                      A                      A
 Frequencies --   1678.3161              3078.3592              3116.0360
 Red. masses --      5.8509                 1.0325                 1.0880
 Frc consts  --      9.7101                 5.7648                 6.2242
 IR Inten    --      0.5263                30.1555                30.4208

                     64                     65                     66
                      A                      A                      A
 Frequencies --   3163.2267              3174.6522              3190.7975
 Red. masses --      1.1066                 1.1062                 1.0871
 Frc consts  --      6.5240                 6.5687                 6.5211
 IR Inten    --     10.7530                 9.4815                 8.2705

                     67                     68                     69
                      A                      A                      A
 Frequencies --   3192.9966              3202.8792              3208.3954
 Red. masses --      1.0887                 1.0904                 1.0882
 Frc consts  --      6.5395                 6.5906                 6.5999
 IR Inten    --      1.9511                 8.0012                 5.6743

                     70                     71                     72
                      A                      A                      A
 Frequencies --   3212.3254              3222.9685              3510.0510
 Red. masses --      1.0945                 1.0988                 1.0517
 Frc consts  --      6.6544                 6.7248                 7.6343
 IR Inten    --     38.6268                17.3245                23.8058

                     73                     74                     75
                      A                      A                      A
 Frequencies --   3587.0310              3614.1408              3724.8033
 Red. masses --      1.0963                 1.0473                 1.0998
 Frc consts  --      8.3111                 8.0601                 8.9905
 IR Inten    --     53.1605                32.5711                31.0143

 - Thermochemistry -
 -------------------
 Temperature   298.150 Kelvin.  Pressure   1.00000 Atm.
 Atom     1 has atomic number  6 and mass  12.00000

 Molecular mass:   178.11061 amu.
 Principal axes and moments of inertia in atomic units:
                           1         2         3
     Eigenvalues --  1372.460564066.622954606.55471
           X            0.99983  -0.01811  -0.00292
           Y            0.01815   0.99975   0.01317
           Z            0.00268  -0.01322   0.99991
 This molecule is an asymmetric top.
 Rotational symmetry number  1.
 Warning -- assumption of classical behavior for rotation
           may cause significant error
 Rotational temperatures (Kelvin)      0.06311     0.02130     0.01880
 Rotational constants (GHZ):           1.31497     0.44379     0.39178
    1 imaginary frequencies ignored.
 Zero-point vibrational energy     604569.5 (Joules/Mol)
                                  144.49558 (Kcal/Mol)
 Warning -- explicit consideration of  18 degrees of freedom as
           vibrations may cause significant error
 Vibrational temperatures:     70.05    80.88   111.76   139.28   147.62
          (Kelvin)            213.48   309.24   323.92   353.09   440.76
                              504.10   582.72   606.64   627.96   670.13
                              776.96   805.08   891.73   914.16   924.32
                              930.19  1044.55  1068.05  1134.08  1157.02
                             1267.32  1268.69  1360.23  1388.90  1461.25
                             1476.17  1485.03  1491.22  1507.16  1531.26
                             1577.25  1592.08  1603.74  1705.45  1746.37
                             1757.95  1788.13  1818.14  1833.29  1864.45
                             1927.86  1935.47  1963.20  1986.69  2105.20
                             2125.40  2149.25  2164.27  2180.03  2229.56
                             2319.23  2353.12  2366.22  2384.38  2414.72
                             4429.07  4483.28  4551.18  4567.62  4590.85
                             4594.01  4608.23  4616.17  4621.82  4637.13
                             5050.18  5160.94  5199.94  5359.16

 Zero-point correction=                           0.230268 (Hartree/Particle)
 Thermal correction to Energy=                    0.243051
 Thermal correction to Enthalpy=                  0.243995
 Thermal correction to Gibbs Free Energy=         0.190322
 Sum of electronic and zero-point Energies=           -573.996381
 Sum of electronic and thermal Energies=              -573.983599
 Sum of electronic and thermal Enthalpies=            -573.982654
 Sum of electronic and thermal Free Energies=         -574.036328

                     E (Thermal)             CV                S
                      KCal/Mol        Cal/Mol-Kelvin    Cal/Mol-Kelvin
 Total                  152.517             48.051            112.966
 Electronic               0.000              0.000              0.000
 Translational            0.889              2.981             41.439
 Rotational               0.889              2.981             31.620
 Vibrational            150.739             42.089             39.908
 Vibration     1          0.595              1.978              4.870
 Vibration     2          0.596              1.975              4.586
 Vibration     3          0.599              1.964              3.949
 Vibration     4          0.603              1.951              3.518
 Vibration     5          0.605              1.947              3.404
 Vibration     6          0.618              1.904              2.693
 Vibration     7          0.645              1.818              2.001
 Vibration     8          0.650              1.803              1.917
 Vibration     9          0.660              1.770              1.763
 Vibration    10          0.697              1.662              1.382
 Vibration    11          0.727              1.575              1.165
 Vibration    12          0.770              1.459              0.944
 Vibration    13          0.784              1.423              0.886
 Vibration    14          0.797              1.391              0.838
 Vibration    15          0.823              1.326              0.750
 Vibration    16          0.895              1.162              0.565
 Vibration    17          0.915              1.119              0.525
 Vibration    18          0.980              0.990              0.417

 Optimization completed.
    -- Stationary point found.
 Normal termination of Gaussian 16 at Sat Jan 30 10:27:32 2021.
