 Gaussian 16, Revision A.03,
 Gaussian 16:  ES64L-G16RevA.03 25-Dec-2016

 ----------------------------------------------------------------------
 # wB97XD def2tzvp, opt=(ts, noeigen, calcfc, maxcycles=70, maxstep=8),
  freq=noraman, scrf=(iefpcm, solvent=water)
 ----------------------------------------------------------------------

 ------------------------
 1_iteration/TS-518-1.out
 ------------------------
 Symbolic Z-matrix:
 Charge =  0 Multiplicity = 1

 SCF Done:  E(RwB97XD) =  -960.018363500     A.U. after   14 cycles
 SCF Done:  E(RwB97XD) =  -960.018748416     A.U. after   13 cycles
 SCF Done:  E(RwB97XD) =  -960.019114704     A.U. after   13 cycles
 SCF Done:  E(RwB97XD) =  -960.019454236     A.U. after   12 cycles
 SCF Done:  E(RwB97XD) =  -960.019465990     A.U. after   12 cycles
 SCF Done:  E(RwB97XD) =  -960.019529679     A.U. after   11 cycles
 SCF Done:  E(RwB97XD) =  -960.019531487     A.U. after   10 cycles
 SCF Done:  E(RwB97XD) =  -960.019502798     A.U. after   12 cycles
 SCF Done:  E(RwB97XD) =  -960.019532471     A.U. after   12 cycles
 SCF Done:  E(RwB97XD) =  -960.019535824     A.U. after   10 cycles
 SCF Done:  E(RwB97XD) =  -960.019536220     A.U. after    8 cycles
 SCF Done:  E(RwB97XD) =  -960.019536291     A.U. after    7 cycles
 Optimization completed.
    -- Stationary point found.
 Normal termination of Gaussian 16 at Tue Feb 16 17:49:43 2021.

 ---------------------------------------------------------------------
 #N Geom=AllCheck Guess=TCheck SCRF=Check GenChk RwB97XD/def2TZVP Freq
 ---------------------------------------------------------------------

 Structure from the checkpoint file:  "/beegfs/scratch/user/q/tla25/Gau-41126.chk"
 ------------------------
 1_iteration/TS-518-1.out
 ------------------------
 Charge =  0 Multiplicity = 1

                         Standard orientation:
 ---------------------------------------------------------------------
 Center     Atomic      Atomic             Coordinates (Angstroms)
 Number     Number       Type             X           Y           Z
 ---------------------------------------------------------------------
      1          6           0        0.004778    0.581875    0.417137
      2          6           0        1.257427    0.554563   -0.308680
      3          8           0        1.599219    1.413657   -1.134905
      4          6           0       -0.981847   -0.464549    0.474033
      5          6           0       -3.080581   -1.120648   -1.345189
      6          1           0       -3.383316   -1.008530   -2.385765
      7          1           0       -2.948689   -2.177349   -1.125618
      8          1           0       -3.854418   -0.710640   -0.702083
      9          7           0       -1.820009   -0.406356   -1.101326
     10          1           0       -1.105883   -0.702719   -1.758968
     11          1           0       -1.946080    0.592849   -1.239930
     12          6           0       -2.135365   -0.275923    1.444658
     13          1           0       -1.722656   -0.236194    2.453304
     14          1           0       -2.682092    0.647651    1.268094
     15          1           0       -2.829695   -1.114712    1.398807
     16          6           0       -0.497118   -1.901448    0.499250
     17          1           0       -0.109956   -2.132305    1.490344
     18          1           0       -1.330093   -2.579135    0.314764
     19          1           0        0.288434   -2.089345   -0.228487
     20         17           0       -0.720220    2.223405    0.405130
     21          7           0        2.122656   -0.497740   -0.046423
     22          6           0        2.347967   -1.002867    1.292693
     23          6           0        3.258527   -0.660428   -0.927093
     24          1           0        1.583278   -0.623264    1.964320
     25          1           0        2.329615   -2.095572    1.313164
     26          1           0        3.328765   -0.674087    1.656839
     27          1           0        2.968617   -0.464607   -1.956315
     28          1           0        4.084154    0.013863   -0.668068
     29          1           0        3.618754   -1.687827   -0.848989
 ---------------------------------------------------------------------

 SCF Done:  E(RwB97XD) =  -960.019536291     A.U. after    1 cycles

 The electronic state is 1-A.
 Alpha  occ. eigenvalues -- -101.67098 -19.19071 -14.50314 -14.44175 -10.36641
 Alpha  occ. eigenvalues --  -10.35898 -10.32481 -10.30076 -10.29766 -10.28599
 Alpha  occ. eigenvalues --  -10.28000 -10.27760  -9.55637  -7.30213  -7.29467
 Alpha  occ. eigenvalues --   -7.29432  -1.11783  -1.05908  -1.01662  -0.94674
 Alpha  occ. eigenvalues --   -0.89365  -0.81714  -0.80564  -0.79516  -0.79303
 Alpha  occ. eigenvalues --   -0.74057  -0.66679  -0.64282  -0.61081  -0.60158
 Alpha  occ. eigenvalues --   -0.57057  -0.56098  -0.55378  -0.54706  -0.52189
 Alpha  occ. eigenvalues --   -0.50966  -0.50131  -0.49154  -0.47983  -0.47622
 Alpha  occ. eigenvalues --   -0.47497  -0.46611  -0.46131  -0.45026  -0.44470
 Alpha  occ. eigenvalues --   -0.43109  -0.42593  -0.40336  -0.37581  -0.33446
 Alpha  occ. eigenvalues --   -0.30706  -0.25158
 Alpha virt. eigenvalues --    0.07907   0.09386   0.12333   0.12751   0.13044
 Alpha virt. eigenvalues --    0.13566   0.15228   0.16194   0.16399   0.16872
 Alpha virt. eigenvalues --    0.17622   0.17921   0.18870   0.19596   0.20032

 Mulliken charges:
               1
     1  C   -0.178562
     2  C    0.200669
     3  O   -0.535081
     4  C    0.068477
     5  C   -0.305896
     6  H    0.165041
     7  H    0.157945
     8  H    0.169979
     9  N   -0.245359
    10  H    0.291632
    11  H    0.275980
    12  C   -0.385609
    13  H    0.145489
    14  H    0.147347
    15  H    0.146261
    16  C   -0.393947
    17  H    0.152377
    18  H    0.140557
    19  H    0.153481
    20  Cl  -0.238455
    21  N   -0.155848
    22  C   -0.303481
    23  C   -0.286127
    24  H    0.155586
    25  H    0.142518
    26  H    0.128719
    27  H    0.133788
    28  H    0.120642
    29  H    0.131879
 Sum of Mulliken charges =  -0.00000

 Dipole moment (field-independent basis, Debye):
    X=             -6.5188    Y=             -9.1764    Z=             -1.0978  Tot=             11.3096
 Quadrupole moment (field-independent basis, Debye-Ang):
   XX=            -67.9654   YY=            -90.3842   ZZ=            -78.5763
   XY=             -2.4251   XZ=             11.2179   YZ=              3.9363

  Exact polarizability: 203.919   1.904 178.288   2.162  -3.937 159.372
 Approx polarizability: 151.862   0.402 148.626   0.656  -4.302 136.716

 ******    1 imaginary frequencies (negative Signs) ******

                      1                      2                      3
                      A                      A                      A
 Frequencies --   -311.2855                45.0860                67.5063
 Red. masses --      5.8695                 3.5022                 7.9464
 Frc consts  --      0.3351                 0.0042                 0.0213
 IR Inten    --    648.1375                 4.9904                 9.8837

                      4                      5                      6
                      A                      A                      A
 Frequencies --     93.0361               104.3529               131.2327
 Red. masses --      1.8574                 2.8863                 4.0865
 Frc consts  --      0.0095                 0.0185                 0.0415
 IR Inten    --      4.7141                 0.2481                22.8182

                      7                      8                      9
                      A                      A                      A
 Frequencies --    161.7498               181.8372               208.5728
 Red. masses --      1.5679                 1.2605                 1.5118
 Frc consts  --      0.0242                 0.0246                 0.0387
 IR Inten    --      9.3086                 0.4295                 5.6771

                     10                     11                     12
                      A                      A                      A
 Frequencies --    214.6814               246.2279               260.5846
 Red. masses --      3.4250                 2.5151                 1.7382
 Frc consts  --      0.0930                 0.0898                 0.0695
 IR Inten    --      7.9015                11.2565                19.3179

                     13                     14                     15
                      A                      A                      A
 Frequencies --    288.2310               300.9195               306.0948
 Red. masses --      2.2235                 1.4383                 1.8045
 Frc consts  --      0.1088                 0.0767                 0.0996
 IR Inten    --      1.2726                 8.7381                13.1966

                     16                     17                     18
                      A                      A                      A
 Frequencies --    313.9633               357.7466               377.6965
 Red. masses --      2.3231                 1.3315                 2.7612
 Frc consts  --      0.1349                 0.1004                 0.2321
 IR Inten    --     20.2261                 4.7395                19.2941

                     19                     20                     21
                      A                      A                      A
 Frequencies --    393.8277               411.2650               431.7323
 Red. masses --      2.4856                 2.8593                 2.9715
 Frc consts  --      0.2271                 0.2849                 0.3263
 IR Inten    --      5.5944                 1.5365                 0.2363

                     22                     23                     24
                      A                      A                      A
 Frequencies --    472.6512               514.7994               581.1147
 Red. masses --      3.3138                 4.8537                 3.9010
 Frc consts  --      0.4362                 0.7579                 0.7762
 IR Inten    --     35.6685                77.6820                30.4896

                     25                     26                     27
                      A                      A                      A
 Frequencies --    685.1059               744.0545               778.8168
 Red. masses --      5.3058                 1.2981                 8.0699
 Frc consts  --      1.4673                 0.4234                 2.8839
 IR Inten    --     20.0546                32.6146                21.8556

                     28                     29                     30
                      A                      A                      A
 Frequencies --    847.1750               898.3016               966.7366
 Red. masses --      6.5936                 3.5141                 1.3729
 Frc consts  --      2.7882                 1.6707                 0.7560
 IR Inten    --     85.6581                63.5379                 0.6967

                     31                     32                     33
                      A                      A                      A
 Frequencies --   1010.6271              1024.7998              1045.7588
 Red. masses --      1.9418                 1.3200                 2.9700
 Frc consts  --      1.1685                 0.8168                 1.9137
 IR Inten    --     63.7772                31.3525                71.4011

                     34                     35                     36
                      A                      A                      A
 Frequencies --   1064.8054              1081.6755              1089.6457
 Red. masses --      1.2174                 1.4102                 1.6817
 Frc consts  --      0.8133                 0.9721                 1.1765
 IR Inten    --     16.1502                35.9826                12.8945

                     37                     38                     39
                      A                      A                      A
 Frequencies --   1099.2381              1129.8638              1134.9159
 Red. masses --      1.2993                 1.8774                 1.2360
 Frc consts  --      0.9250                 1.4121                 0.9380
 IR Inten    --    275.3331                24.0479                 1.0899

                     40                     41                     42
                      A                      A                      A
 Frequencies --   1173.8005              1217.4012              1272.0296
 Red. masses --      1.3830                 3.2054                 3.5724
 Frc consts  --      1.1227                 2.7989                 3.4056
 IR Inten    --     25.5623               105.6517                27.6931

                     43                     44                     45
                      A                      A                      A
 Frequencies --   1290.4666              1304.7943              1363.7084
 Red. masses --      1.5165                 3.3256                 1.7286
 Frc consts  --      1.4880                 3.3359                 1.8941
 IR Inten    --     37.2189                47.1878               226.1681

                     46                     47                     48
                      A                      A                      A
 Frequencies --   1364.2930              1398.9093              1413.7145
 Red. masses --      2.1260                 2.8630                 1.2854
 Frc consts  --      2.3315                 3.3010                 1.5136
 IR Inten    --    412.8362               287.4579                24.9915

                     49                     50                     51
                      A                      A                      A
 Frequencies --   1427.7224              1440.6696              1463.7292
 Red. masses --      1.2352                 1.1641                 1.1878
 Frc consts  --      1.4835                 1.4235                 1.4994
 IR Inten    --     36.5177                 8.1903                 3.8694

                     52                     53                     54
                      A                      A                      A
 Frequencies --   1467.3900              1480.5475              1481.9788
 Red. masses --      1.1946                 1.0574                 1.0664
 Frc consts  --      1.5156                 1.3656                 1.3799
 IR Inten    --     54.7745                 8.6373                10.1208

                     55                     56                     57
                      A                      A                      A
 Frequencies --   1488.3148              1494.9244              1498.9098
 Red. masses --      1.0616                 1.0561                 1.0440
 Frc consts  --      1.3855                 1.3905                 1.3820
 IR Inten    --     18.5241                 5.0535                22.8804

                     58                     59                     60
                      A                      A                      A
 Frequencies --   1502.6733              1505.6505              1510.7555
 Red. masses --      1.0577                 1.0490                 1.0487
 Frc consts  --      1.4071                 1.4011                 1.4102
 IR Inten    --     18.8387                25.3952                28.3541

                     61                     62                     63
                      A                      A                      A
 Frequencies --   1521.7620              1532.5073              1612.9176
 Red. masses --      1.1270                 1.1412                 8.8954
 Frc consts  --      1.5376                 1.5791                13.6345
 IR Inten    --     29.5155               105.0595               761.2990

                     64                     65                     66
                      A                      A                      A
 Frequencies --   1644.3970              3009.6871              3011.7566
 Red. masses --      1.0813                 1.0464                 1.0512
 Frc consts  --      1.7228                 5.5845                 5.6179
 IR Inten    --     59.7174                52.0930               212.5736

                     67                     68                     69
                      A                      A                      A
 Frequencies --   3071.2109              3074.7625              3080.4099
 Red. masses --      1.0369                 1.0939                 1.0368
 Frc consts  --      5.7623                 6.0931                 5.7963
 IR Inten    --     15.9385                71.5477                21.9439

                     70                     71                     72
                      A                      A                      A
 Frequencies --   3083.5941              3093.6626              3142.9212
 Red. masses --      1.0351                 1.0886                 1.1023
 Frc consts  --      5.7986                 6.1387                 6.4153
 IR Inten    --     50.7486                42.2637                20.7927

                     73                     74                     75
                      A                      A                      A
 Frequencies --   3152.5039              3163.8561              3164.0790
 Red. masses --      1.1005                 1.1035                 1.0993
 Frc consts  --      6.4439                 6.5083                 6.4842
 IR Inten    --     32.3457                 4.5021                20.0693

                     76                     77                     78
                      A                      A                      A
 Frequencies --   3167.2219              3169.5026              3176.8168
 Red. masses --      1.1021                 1.0974                 1.1032
 Frc consts  --      6.5140                 6.4952                 6.5600
 IR Inten    --     23.0614                 7.0028                15.5952

                     79                     80                     81
                      A                      A                      A
 Frequencies --   3189.0680              3497.9115              3572.5584
 Red. masses --      1.1065                 1.0534                 1.0944
 Frc consts  --      6.6302                 7.5941                 8.2297
 IR Inten    --      8.6976                29.5028                61.7315

 - Thermochemistry -
 -------------------
 Temperature   298.150 Kelvin.  Pressure   1.00000 Atm.
 Atom     1 has atomic number  6 and mass  12.00000

 Molecular mass:   192.10294 amu.
 Principal axes and moments of inertia in atomic units:
                           1         2         3
     Eigenvalues --  1769.906033034.552113612.23581
           X            0.99987   0.00986   0.01251
           Y           -0.00965   0.99982  -0.01615
           Z           -0.01266   0.01603   0.99979
 This molecule is an asymmetric top.
 Rotational symmetry number  1.
 Warning -- assumption of classical behavior for rotation
           may cause significant error
 Rotational temperatures (Kelvin)      0.04894     0.02854     0.02398
 Rotational constants (GHZ):           1.01968     0.59473     0.49962
    1 imaginary frequencies ignored.
 Zero-point vibrational energy     662503.4 (Joules/Mol)
                                  158.34211 (Kcal/Mol)
 Warning -- explicit consideration of  23 degrees of freedom as
           vibrations may cause significant error
 Vibrational temperatures:     64.87    97.13   133.86   150.14   188.81
          (Kelvin)            232.72   261.62   300.09   308.88   354.27
                              374.92   414.70   432.96   440.40   451.72
                              514.72   543.42   566.63   591.72   621.17
                              680.04   740.68   836.09   985.71  1070.53
                             1120.54  1218.90  1292.46  1390.92  1454.07
                             1474.46  1504.61  1532.02  1556.29  1567.76
                             1581.56  1625.62  1632.89  1688.84  1751.57
                             1830.17  1856.69  1877.31  1962.07  1962.91
                             2012.72  2034.02  2054.17  2072.80  2105.98
                             2111.25  2130.18  2132.24  2141.35  2150.86
                             2156.60  2162.01  2166.30  2173.64  2189.48
                             2204.94  2320.63  2365.92  4330.27  4333.25
                             4418.79  4423.90  4432.02  4436.60  4451.09
                             4521.96  4535.75  4552.08  4552.40  4556.93
                             4560.21  4570.73  4588.36  5032.71  5140.11

 Zero-point correction=                           0.252334 (Hartree/Particle)
 Thermal correction to Energy=                    0.266992
 Thermal correction to Enthalpy=                  0.267937
 Thermal correction to Gibbs Free Energy=         0.211326
 Sum of electronic and zero-point Energies=           -959.767202
 Sum of electronic and thermal Energies=              -959.752544
 Sum of electronic and thermal Enthalpies=            -959.751600
 Sum of electronic and thermal Free Energies=         -959.808211

                     E (Thermal)             CV                S
                      KCal/Mol        Cal/Mol-Kelvin    Cal/Mol-Kelvin
 Total                  167.540             53.369            119.148
 Electronic               0.000              0.000              0.000
 Translational            0.889              2.981             41.664
 Rotational               0.889              2.981             31.340
 Vibrational            165.763             47.408             46.144
 Vibration     1          0.595              1.979              5.022
 Vibration     2          0.598              1.970              4.225
 Vibration     3          0.602              1.954              3.595
 Vibration     4          0.605              1.946              3.371
 Vibration     5          0.612              1.922              2.928
 Vibration     6          0.622              1.889              2.529
 Vibration     7          0.630              1.864              2.309
 Vibration     8          0.642              1.828              2.056
 Vibration     9          0.645              1.819              2.004
 Vibration    10          0.661              1.769              1.757
 Vibration    11          0.669              1.745              1.658
 Vibration    12          0.685              1.696              1.484
 Vibration    13          0.693              1.672              1.412
 Vibration    14          0.696              1.662              1.383
 Vibration    15          0.702              1.647              1.341
 Vibration    16          0.733              1.559              1.132
 Vibration    17          0.748              1.518              1.048
 Vibration    18          0.761              1.483              0.986
 Vibration    19          0.775              1.446              0.922
 Vibration    20          0.793              1.401              0.853
 Vibration    21          0.830              1.311              0.730
 Vibration    22          0.870              1.217              0.622
 Vibration    23          0.938              1.072              0.483

 Optimization completed.
    -- Stationary point found.
 Normal termination of Gaussian 16 at Tue Feb 16 18:30:16 2021.
