 Gaussian 16, Revision A.03,
 Gaussian 16:  ES64L-G16RevA.03 25-Dec-2016

 ----------------------------------------------------------------------
 # wB97XD def2tzvp, opt=(ts, noeigen, calcfc, maxcycles=70, maxstep=8),
  freq=noraman, scrf=(iefpcm, solvent=water)
 ----------------------------------------------------------------------

 ------------------------
 1_iteration/TS-521-1.out
 ------------------------
 Symbolic Z-matrix:
 Charge =  0 Multiplicity = 1

 SCF Done:  E(RwB97XD) =  -3131.77180296     A.U. after   15 cycles
 SCF Done:  E(RwB97XD) =  -3131.77179706     A.U. after   10 cycles
 SCF Done:  E(RwB97XD) =  -3131.77180103     A.U. after    8 cycles
 SCF Done:  E(RwB97XD) =  -3131.77180001     A.U. after    7 cycles
 Optimization completed.
    -- Stationary point found.
 Normal termination of Gaussian 16 at Wed Feb 17 09:35:09 2021.

 ---------------------------------------------------------------------
 #N Geom=AllCheck Guess=TCheck SCRF=Check GenChk RwB97XD/def2TZVP Freq
 ---------------------------------------------------------------------

 Structure from the checkpoint file:  "/beegfs/scratch/user/q/tla25/Gau-11274.chk"
 ------------------------
 1_iteration/TS-521-1.out
 ------------------------
 Charge =  0 Multiplicity = 1

                         Standard orientation:
 ---------------------------------------------------------------------
 Center     Atomic      Atomic             Coordinates (Angstroms)
 Number     Number       Type             X           Y           Z
 ---------------------------------------------------------------------
      1          6           0       -0.120806   -0.115745    0.547209
      2          6           0        0.214913    0.088364    1.906885
      3          8           0       -0.583406    0.211454    2.843151
      4          6           0        0.822478   -0.198973   -0.489638
      5          6           0        1.450923    2.526767   -0.118452
      6          1           0        1.427217    3.544138   -0.506070
      7          1           0        0.688669    2.420042    0.653770
      8          1           0        2.427675    2.326160    0.316198
      9          7           0        1.183364    1.554679   -1.169743
     10          1           0        1.942500    1.505922   -1.840686
     11          1           0        0.336290    1.791090   -1.676112
     12          6           0        0.458737   -0.848727   -1.799697
     13          1           0       -0.482571   -0.447345   -2.174104
     14          1           0        1.234661   -0.706122   -2.549220
     15          1           0        0.327485   -1.918990   -1.638073
     16         35           0        2.652532   -0.686788   -0.005031
     17          6           0       -1.567637   -0.131524    0.177276
     18          6           0       -2.256582    1.056584   -0.059266
     19          6           0       -3.601458    1.048560   -0.402223
     20          6           0       -4.283325   -0.154773   -0.510078
     21          6           0       -3.612767   -1.346154   -0.269535
     22          6           0       -2.268184   -1.331419    0.071328
     23          1           0       -1.734907    2.002292    0.034353
     24          1           0       -4.117086    1.983535   -0.583471
     25          1           0       -5.332490   -0.164447   -0.777552
     26          1           0       -4.138557   -2.289790   -0.347610
     27          1           0       -1.747369   -2.263368    0.256880
     28          1           0        1.295822    0.122330    2.127933
 ---------------------------------------------------------------------

 SCF Done:  E(RwB97XD) =  -3131.77180001     A.U. after    1 cycles

 The electronic state is 1-A.
 Alpha  occ. eigenvalues -- -483.13333 -62.68178 -56.47291 -56.46944 -56.46930
 Alpha  occ. eigenvalues --  -19.20400 -14.49668 -10.40519 -10.34126 -10.32058
 Alpha  occ. eigenvalues --  -10.29847 -10.29358 -10.28905 -10.28868 -10.28781
 Alpha  occ. eigenvalues --  -10.28744 -10.28588 -10.26624  -8.82283  -6.64419
 Alpha  occ. eigenvalues --   -6.63319  -6.63276  -2.74806  -2.74498  -2.74465
 Alpha  occ. eigenvalues --   -2.73574  -2.73573  -1.10517  -1.05160  -0.96940
 Alpha  occ. eigenvalues --   -0.94380  -0.87620  -0.84884  -0.84135  -0.81431
 Alpha  occ. eigenvalues --   -0.79048  -0.70246  -0.70173  -0.69689  -0.64375
 Alpha  occ. eigenvalues --   -0.63281  -0.59245  -0.58110  -0.57363  -0.56093
 Alpha  occ. eigenvalues --   -0.54398  -0.53973  -0.52392  -0.50719  -0.50410
 Alpha  occ. eigenvalues --   -0.49697  -0.48553  -0.48082  -0.46213  -0.45995
 Alpha  occ. eigenvalues --   -0.45638  -0.43402  -0.42461  -0.41803  -0.38158
 Alpha  occ. eigenvalues --   -0.37640  -0.33632  -0.33114  -0.31761  -0.28250
 Alpha virt. eigenvalues --    0.03824   0.04365   0.05411   0.06812   0.09828
 Alpha virt. eigenvalues --    0.12782   0.13449   0.14096   0.14628   0.15158
 Alpha virt. eigenvalues --    0.16375   0.17090   0.17793   0.18589   0.18922

 Mulliken charges:
               1
     1  C   -0.219601
     2  C    0.114205
     3  O   -0.519982
     4  C    0.108282
     5  C   -0.313722
     6  H    0.169137
     7  H    0.162997
     8  H    0.162507
     9  N   -0.310477
    10  H    0.297429
    11  H    0.287973
    12  C   -0.344291
    13  H    0.163556
    14  H    0.156143
    15  H    0.159156
    16  Br  -0.106898
    17  C    0.180610
    18  C   -0.254625
    19  C   -0.162793
    20  C   -0.135197
    21  C   -0.152128
    22  C   -0.233080
    23  H    0.151398
    24  H    0.139704
    25  H    0.142903
    26  H    0.139774
    27  H    0.141327
    28  H    0.075692
 Sum of Mulliken charges =  -0.00000

 Dipole moment (field-independent basis, Debye):
    X=              3.3407    Y=              4.1447    Z=            -10.3907  Tot=             11.6750
 Quadrupole moment (field-independent basis, Debye-Ang):
   XX=            -91.4233   YY=            -81.9138   ZZ=           -110.9485
   XY=              7.0865   XZ=              4.1758   YZ=             -5.8080

  Exact polarizability: 265.780   1.787 215.442  -3.011  -8.465 205.491
 Approx polarizability: 205.029  -0.162 182.884  -1.254  -6.594 173.316

 ******    1 imaginary frequencies (negative Signs) ******

                      1                      2                      3
                      A                      A                      A
 Frequencies --   -356.5452                32.2423                37.9308
 Red. masses --      5.6889                 3.8330                 4.5035
 Frc consts  --      0.4261                 0.0023                 0.0038
 IR Inten    --    825.8767                 1.1056                 2.4649

                      4                      5                      6
                      A                      A                      A
 Frequencies --     74.9661                83.9508               110.5413
 Red. masses --      5.8094                 2.7672                 3.9913
 Frc consts  --      0.0192                 0.0115                 0.0287
 IR Inten    --      5.3869                 0.7968                 4.8621

                      7                      8                      9
                      A                      A                      A
 Frequencies --    151.0740               176.7911               195.4410
 Red. masses --      1.3483                 8.3863                 3.0928
 Frc consts  --      0.0181                 0.1544                 0.0696
 IR Inten    --      0.5871                10.7808                13.7180

                     10                     11                     12
                      A                      A                      A
 Frequencies --    211.6977               225.3806               264.3045
 Red. masses --      4.6656                 2.6092                 3.1686
 Frc consts  --      0.1232                 0.0781                 0.1304
 IR Inten    --      5.0680                 8.8581                 1.9575

                     13                     14                     15
                      A                      A                      A
 Frequencies --    269.9577               281.4534               318.8530
 Red. masses --      2.0854                 1.7575                 1.8842
 Frc consts  --      0.0895                 0.0820                 0.1129
 IR Inten    --      8.3337                 5.8534                 7.6050

                     16                     17                     18
                      A                      A                      A
 Frequencies --    349.1095               409.2137               423.1462
 Red. masses --      3.2370                 3.3913                 2.8685
 Frc consts  --      0.2324                 0.3346                 0.3026
 IR Inten    --      2.8446                 6.6488                 0.0820

                     19                     20                     21
                      A                      A                      A
 Frequencies --    501.5377               517.1332               555.9650
 Red. masses --      5.3916                 3.5397                 5.1178
 Frc consts  --      0.7991                 0.5577                 0.9320
 IR Inten    --     22.3559                40.4446                22.2774

                     22                     23                     24
                      A                      A                      A
 Frequencies --    596.4776               642.0988               657.1001
 Red. masses --      3.4178                 3.7903                 2.7051
 Frc consts  --      0.7165                 0.9207                 0.6882
 IR Inten    --     47.0095                 3.0358                46.7269

                     25                     26                     27
                      A                      A                      A
 Frequencies --    727.2982               733.2199               775.0814
 Red. masses --      2.2135                 1.6166                 3.3177
 Frc consts  --      0.6899                 0.5121                 1.1743
 IR Inten    --     20.5700               221.7136                81.2643

                     28                     29                     30
                      A                      A                      A
 Frequencies --    818.3362               880.3781               956.6275
 Red. masses --      2.4113                 1.2462                 1.4561
 Frc consts  --      0.9514                 0.5691                 0.7851
 IR Inten    --     36.8309                 0.0651                 3.3968

                     31                     32                     33
                      A                      A                      A
 Frequencies --   1009.3534              1012.2332              1025.8209
 Red. masses --      1.1331                 1.3588                 1.4861
 Frc consts  --      0.6802                 0.8203                 0.9214
 IR Inten    --     29.5118                 2.0703               106.6707

                     34                     35                     36
                      A                      A                      A
 Frequencies --   1026.5474              1028.4787              1031.0468
 Red. masses --      3.5571                 1.3139                 1.6884
 Frc consts  --      2.2085                 0.8188                 1.0575
 IR Inten    --     10.5618                11.7795                11.6494

                     37                     38                     39
                      A                      A                      A
 Frequencies --   1044.9259              1056.0831              1068.6042
 Red. masses --      2.4539                 1.8934                 1.6961
 Frc consts  --      1.5786                 1.2442                 1.1412
 IR Inten    --     24.9065                37.6011                 6.7294

                     40                     41                     42
                      A                      A                      A
 Frequencies --   1087.4656              1106.8073              1116.3968
 Red. masses --      3.3557                 1.5500                 2.3599
 Frc consts  --      2.3381                 1.1187                 1.7329
 IR Inten    --     15.6802                22.6468                98.0204

                     43                     44                     45
                      A                      A                      A
 Frequencies --   1176.2370              1181.7114              1204.4173
 Red. masses --      2.7636                 1.1373                 1.1222
 Frc consts  --      2.2528                 0.9358                 0.9591
 IR Inten    --     38.1297                 0.1232                 0.0083

                     46                     47                     48
                      A                      A                      A
 Frequencies --   1231.8176              1307.8482              1348.7792
 Red. masses --      1.3712                 4.4179                 1.3307
 Frc consts  --      1.2258                 4.4522                 1.4263
 IR Inten    --     46.1736                 3.5349                19.6536

                     49                     50                     51
                      A                      A                      A
 Frequencies --   1354.9434              1361.4318              1393.7524
 Red. masses --      1.4756                 2.2854                 4.0946
 Frc consts  --      1.5961                 2.4958                 4.6864
 IR Inten    --      8.1418               647.5442               240.5171

                     52                     53                     54
                      A                      A                      A
 Frequencies --   1426.7145              1446.2944              1471.2978
 Red. masses --      1.2434                 1.2101                 1.7935
 Frc consts  --      1.4912                 1.4913                 2.2875
 IR Inten    --     37.7327                17.2439               143.1676

                     55                     56                     57
                      A                      A                      A
 Frequencies --   1478.2884              1486.0084              1492.3158
 Red. masses --      1.0462                 2.0586                 1.0812
 Frc consts  --      1.3471                 2.6784                 1.4187
 IR Inten    --      3.2168                 4.2048                44.8266

                     58                     59                     60
                      A                      A                      A
 Frequencies --   1497.1366              1501.5766              1544.2259
 Red. masses --      1.1111                 1.0771                 2.4690
 Frc consts  --      1.4673                 1.4308                 3.4690
 IR Inten    --     10.5594                41.5613                46.9463

                     61                     62                     63
                      A                      A                      A
 Frequencies --   1641.2459              1645.3380              1647.6155
 Red. masses --      1.1427                 5.6239                 5.5366
 Frc consts  --      1.8136                 8.9700                 8.8554
 IR Inten    --    228.0321               116.1844               659.2954

                     64                     65                     66
                      A                      A                      A
 Frequencies --   1673.7195              2965.8321              3070.9201
 Red. masses --      6.0105                 1.0818                 1.0334
 Frc consts  --      9.9203                 5.6065                 5.7421
 IR Inten    --     94.6365               117.9584                23.9722

                     67                     68                     69
                      A                      A                      A
 Frequencies --   3072.1268              3149.4012              3150.2970
 Red. masses --      1.0356                 1.1039                 1.1024
 Frc consts  --      5.7587                 6.4510                 6.4458
 IR Inten    --     10.0529                 2.9141                11.8484

                     70                     71                     72
                      A                      A                      A
 Frequencies --   3163.0066              3171.1231              3185.6352
 Red. masses --      1.1040                 1.1057                 1.0872
 Frc consts  --      6.5076                 6.5513                 6.5007
 IR Inten    --     20.8915                 8.6551                11.6271

                     73                     74                     75
                      A                      A                      A
 Frequencies --   3190.1995              3200.0969              3207.9921
 Red. masses --      1.0873                 1.0909                 1.0950
 Frc consts  --      6.5200                 6.5822                 6.6392
 IR Inten    --      2.5665                11.0571                46.7843

                     76                     77                     78
                      A                      A                      A
 Frequencies --   3219.2192              3512.7558              3595.7415
 Red. masses --      1.0988                 1.0509                 1.0963
 Frc consts  --      6.7090                 7.6404                 8.3514
 IR Inten    --     20.5609                54.2704                63.0059

 - Thermochemistry -
 -------------------
 Temperature   298.150 Kelvin.  Pressure   1.00000 Atm.
 Atom     1 has atomic number  6 and mass  12.00000

 Molecular mass:   255.02588 amu.
 Principal axes and moments of inertia in atomic units:
                           1         2         3
     Eigenvalues --  1960.866615907.616425936.84752
           X            0.99957   0.02889   0.00400
           Y           -0.02881   0.99938  -0.02036
           Z           -0.00459   0.02024   0.99978
 This molecule is an asymmetric top.
 Rotational symmetry number  1.
 Warning -- assumption of classical behavior for rotation
           may cause significant error
 Rotational temperatures (Kelvin)      0.04417     0.01466     0.01459
 Rotational constants (GHZ):           0.92038     0.30549     0.30399
    1 imaginary frequencies ignored.
 Zero-point vibrational energy     603863.7 (Joules/Mol)
                                  144.32690 (Kcal/Mol)
 Warning -- explicit consideration of  21 degrees of freedom as
           vibrations may cause significant error
 Vibrational temperatures:     46.39    54.57   107.86   120.79   159.04
          (Kelvin)            217.36   254.36   281.20   304.59   324.27
                              380.28   388.41   404.95   458.76   502.29
                              588.77   608.81   721.60   744.04   799.91
                              858.20   923.84   945.42  1046.42  1054.94
                             1115.17  1177.40  1266.67  1376.37  1452.23
                             1456.38  1475.93  1476.97  1479.75  1483.45
                             1503.42  1519.47  1537.48  1564.62  1592.45
                             1606.25  1692.34  1700.22  1732.89  1772.31
                             1881.70  1940.59  1949.46  1958.80  2005.30
                             2052.72  2080.90  2116.87  2126.93  2138.03
                             2147.11  2154.05  2160.43  2221.80  2361.39
                             2367.27  2370.55  2408.11  4267.17  4418.37
                             4420.11  4531.29  4532.57  4550.86  4562.54
                             4583.42  4589.99  4604.23  4615.59  4631.74
                             5054.07  5173.47

 Zero-point correction=                           0.230000 (Hartree/Particle)
 Thermal correction to Energy=                    0.244470
 Thermal correction to Enthalpy=                  0.245414
 Thermal correction to Gibbs Free Energy=         0.186977
 Sum of electronic and zero-point Energies=          -3131.541800
 Sum of electronic and thermal Energies=             -3131.527330
 Sum of electronic and thermal Enthalpies=           -3131.526386
 Sum of electronic and thermal Free Energies=        -3131.584823

                     E (Thermal)             CV                S
                      KCal/Mol        Cal/Mol-Kelvin    Cal/Mol-Kelvin
 Total                  153.407             52.846            122.992
 Electronic               0.000              0.000              0.000
 Translational            0.889              2.981             42.509
 Rotational               0.889              2.981             32.597
 Vibrational            151.630             46.885             47.886
 Vibration     1          0.594              1.983              5.686
 Vibration     2          0.594              1.982              5.364
 Vibration     3          0.599              1.966              4.019
 Vibration     4          0.601              1.960              3.796
 Vibration     5          0.606              1.941              3.259
 Vibration     6          0.618              1.901              2.659
 Vibration     7          0.628              1.871              2.362
 Vibration     8          0.636              1.846              2.176
 Vibration     9          0.643              1.823              2.029
 Vibration    10          0.650              1.802              1.915
 Vibration    11          0.671              1.738              1.633
 Vibration    12          0.674              1.728              1.596
 Vibration    13          0.681              1.708              1.525
 Vibration    14          0.705              1.638              1.316
 Vibration    15          0.726              1.577              1.170
 Vibration    16          0.774              1.450              0.929
 Vibration    17          0.785              1.420              0.881
 Vibration    18          0.857              1.247              0.654
 Vibration    19          0.872              1.212              0.617
 Vibration    20          0.911              1.127              0.532
 Vibration    21          0.954              1.039              0.456

 Optimization completed.
    -- Stationary point found.
 Normal termination of Gaussian 16 at Wed Feb 17 10:28:57 2021.
