 Gaussian 16, Revision A.03,
 Gaussian 16:  ES64L-G16RevA.03 25-Dec-2016

 ----------------------------------------------------------------------
 # wB97XD def2tzvp, opt=(ts, noeigen, calcfc, maxcycles=70, maxstep=3),
  freq=noraman, scrf=(iefpcm, solvent=water)
 ----------------------------------------------------------------------

 ------------------------
 0_iteration/TS-586-0.out
 ------------------------
 Symbolic Z-matrix:
 Charge =  0 Multiplicity = 1

 SCF Done:  E(RwB97XD) =  -3399.62616527     A.U. after   16 cycles
 SCF Done:  E(RwB97XD) =  -3399.62573030     A.U. after   13 cycles
 SCF Done:  E(RwB97XD) =  -3399.62536444     A.U. after   13 cycles
 SCF Done:  E(RwB97XD) =  -3399.62509237     A.U. after   13 cycles
 SCF Done:  E(RwB97XD) =  -3399.62496924     A.U. after   13 cycles
 SCF Done:  E(RwB97XD) =  -3399.62527447     A.U. after   14 cycles
 SCF Done:  E(RwB97XD) =  -3399.62613821     A.U. after   14 cycles
 SCF Done:  E(RwB97XD) =  -3399.62692686     A.U. after   13 cycles
 SCF Done:  E(RwB97XD) =  -3399.62771356     A.U. after   13 cycles
 SCF Done:  E(RwB97XD) =  -3399.62853720     A.U. after   13 cycles
 SCF Done:  E(RwB97XD) =  -3399.64581109     A.U. after   11 cycles
 SCF Done:  E(RwB97XD) =  -3399.64581160     A.U. after    9 cycles
 SCF Done:  E(RwB97XD) =  -3399.64581084     A.U. after    9 cycles
 SCF Done:  E(RwB97XD) =  -3399.64581091     A.U. after    9 cycles
 SCF Done:  E(RwB97XD) =  -3399.64577297     A.U. after   11 cycles
 SCF Done:  E(RwB97XD) =  -3399.64581157     A.U. after   11 cycles
 SCF Done:  E(RwB97XD) =  -3399.64580976     A.U. after   10 cycles
 SCF Done:  E(RwB97XD) =  -3399.64581134     A.U. after    9 cycles
 SCF Done:  E(RwB97XD) =  -3399.64581109     A.U. after    7 cycles
 Optimization completed.
    -- Stationary point found.
 Normal termination of Gaussian 16 at Mon Apr 12 22:02:19 2021.

 ---------------------------------------------------------------------
 #N Geom=AllCheck Guess=TCheck SCRF=Check GenChk RwB97XD/def2TZVP Freq
 ---------------------------------------------------------------------

 Structure from the checkpoint file:  "/beegfs/scratch/user/q/tla25/Gau-191274.chk"
 ------------------------
 0_iteration/TS-586-0.out
 ------------------------
 Charge =  0 Multiplicity = 1

                         Standard orientation:
 ---------------------------------------------------------------------
 Center     Atomic      Atomic             Coordinates (Angstroms)
 Number     Number       Type             X           Y           Z
 ---------------------------------------------------------------------
      1          6           0        0.231458    0.333607   -0.185045
      2          6           0        0.261406    1.725153    0.173607
      3          8           0        1.316590    2.350504    0.285161
      4          6           0       -0.856001   -0.518280   -0.409918
      5          6           0       -0.730281   -1.149994    2.339896
      6          1           0       -0.075621   -0.278874    2.347308
      7          1           0       -1.213491   -1.244692    3.311663
      8          1           0       -0.133636   -2.038773    2.145973
      9          7           0       -1.711610   -0.983118    1.274115
     10          1           0       -2.259972   -1.823645    1.128741
     11          1           0       -2.360213   -0.234117    1.486482
     12          6           0       -0.655111   -1.916027   -0.935417
     13          1           0       -0.007821   -2.490576   -0.276404
     14          1           0       -1.611152   -2.424004   -1.038637
     15          1           0       -0.182621   -1.864476   -1.916496
     16         17           0       -2.303825    0.192849   -1.185615
     17         35           0        1.974249   -0.474770   -0.240009
     18          6           0       -1.024149    2.481782    0.453451
     19          1           0       -1.796513    1.886869    0.934624
     20          1           0       -0.769496    3.325038    1.092398
     21          1           0       -1.438535    2.866118   -0.479434
 ---------------------------------------------------------------------

 SCF Done:  E(RwB97XD) =  -3399.64581109     A.U. after    1 cycles

 The electronic state is 1-A.
 Alpha  occ. eigenvalues -- -483.11968-101.70397 -62.66801 -56.45912 -56.45568
 Alpha  occ. eigenvalues --  -56.45557 -19.21113 -14.49392 -10.41692 -10.36552
 Alpha  occ. eigenvalues --  -10.32088 -10.31328 -10.29597 -10.27784  -9.59006
 Alpha  occ. eigenvalues --   -8.80914  -7.33649  -7.32791  -7.32743  -6.63046
 Alpha  occ. eigenvalues --   -6.61947  -6.61916  -2.73437  -2.73120  -2.73096
 Alpha  occ. eigenvalues --   -2.72207  -2.72206  -1.12206  -1.05157  -0.98596
 Alpha  occ. eigenvalues --   -0.91131  -0.85171  -0.84308  -0.79430  -0.78606
 Alpha  occ. eigenvalues --   -0.69501  -0.63965  -0.60534  -0.58742  -0.57062
 Alpha  occ. eigenvalues --   -0.55618  -0.54392  -0.52277  -0.50741  -0.50441
 Alpha  occ. eigenvalues --   -0.49791  -0.48206  -0.47335  -0.45180  -0.44608
 Alpha  occ. eigenvalues --   -0.44181  -0.40332  -0.39233  -0.38674  -0.36456
 Alpha  occ. eigenvalues --   -0.32817  -0.28273
 Alpha virt. eigenvalues --    0.02745   0.05634   0.09545   0.10244   0.13391
 Alpha virt. eigenvalues --    0.14095   0.14150   0.15778   0.16779   0.17961
 Alpha virt. eigenvalues --    0.18723   0.19609   0.20086   0.20814   0.21454

 Mulliken charges:
               1
     1  C   -0.183774
     2  C    0.200597
     3  O   -0.485071
     4  C    0.149618
     5  C   -0.299215
     6  H    0.159154
     7  H    0.164756
     8  H    0.162446
     9  N   -0.325962
    10  H    0.291532
    11  H    0.282891
    12  C   -0.378993
    13  H    0.154366
    14  H    0.155817
    15  H    0.165012
    16  Cl  -0.099053
    17  Br  -0.149445
    18  C   -0.352014
    19  H    0.104528
    20  H    0.131964
    21  H    0.150847
 Sum of Mulliken charges =  -0.00000

 Dipole moment (field-independent basis, Debye):
    X=             -8.8725    Y=             -6.9675    Z=              3.9071  Tot=             11.9387
 Quadrupole moment (field-independent basis, Debye-Ang):
   XX=            -81.4778   YY=            -81.7646   ZZ=            -73.4750
   XY=             -3.3496   XZ=             -7.9054   YZ=             -3.7154

  Exact polarizability: 191.843  12.081 175.727   0.544  -2.070 140.105
 Approx polarizability: 156.848   8.632 141.601   1.514  -1.815 119.625

 ******    1 imaginary frequencies (negative Signs) ******

                      1                      2                      3
                      A                      A                      A
 Frequencies --   -355.8296                57.5911                78.6527
 Red. masses --      5.5595                 3.6543                 5.4207
 Frc consts  --      0.4147                 0.0071                 0.0198
 IR Inten    --    810.7094                 0.0356                 9.2883

                      4                      5                      6
                      A                      A                      A
 Frequencies --     86.0682               135.7247               174.3899
 Red. masses --      2.8283                 3.1585                 1.2974
 Frc consts  --      0.0123                 0.0343                 0.0232
 IR Inten    --      4.4074                 5.8088                 0.8237

                      7                      8                      9
                      A                      A                      A
 Frequencies --    198.8419               201.4116               223.4533
 Red. masses --      4.1275                 3.7390                 4.7609
 Frc consts  --      0.0962                 0.0894                 0.1401
 IR Inten    --      7.2670                 2.4816                 3.5036

                     10                     11                     12
                      A                      A                      A
 Frequencies --    252.3459               278.9955               291.1611
 Red. masses --      1.3797                 1.9363                 3.4446
 Frc consts  --      0.0518                 0.0888                 0.1721
 IR Inten    --      0.9296                 6.2640                 0.5008

                     13                     14                     15
                      A                      A                      A
 Frequencies --    317.2723               332.3485               365.7847
 Red. masses --      3.1606                 1.6979                 2.7345
 Frc consts  --      0.1874                 0.1105                 0.2156
 IR Inten    --     41.4083                 2.6056                 3.2252

                     16                     17                     18
                      A                      A                      A
 Frequencies --    384.0661               482.4645               537.1357
 Red. masses --      3.5304                 4.1793                 5.0436
 Frc consts  --      0.3068                 0.5732                 0.8574
 IR Inten    --      6.9991                42.5716                77.7446

                     19                     20                     21
                      A                      A                      A
 Frequencies --    603.8193               641.9024               670.4404
 Red. masses --      3.0783                 3.1756                 1.4234
 Frc consts  --      0.6613                 0.7709                 0.3770
 IR Inten    --     19.2801                42.5378                38.2674

                     22                     23                     24
                      A                      A                      A
 Frequencies --    724.5968               894.1405               997.4409
 Red. masses --      4.1331                 4.2123                 1.1420
 Frc consts  --      1.2786                 1.9842                 0.6694
 IR Inten    --    209.0463                25.5860                 9.1963

                     25                     26                     27
                      A                      A                      A
 Frequencies --   1012.5876              1034.7463              1043.1173
 Red. masses --      1.5520                 1.1184                 1.7735
 Frc consts  --      0.9376                 0.7055                 1.1370
 IR Inten    --    105.9763                79.3359                46.4689

                     28                     29                     30
                      A                      A                      A
 Frequencies --   1058.1334              1074.7238              1084.9622
 Red. masses --      1.8636                 1.9719                 3.0305
 Frc consts  --      1.2294                 1.3419                 2.1018
 IR Inten    --     70.4150                12.6879                 1.5024

                     31                     32                     33
                      A                      A                      A
 Frequencies --   1122.6027              1228.1092              1306.1410
 Red. masses --      2.6628                 1.3957                 4.4600
 Frc consts  --      1.9772                 1.2402                 4.4830
 IR Inten    --     44.9844                29.2588               156.8845

                     34                     35                     36
                      A                      A                      A
 Frequencies --   1340.4946              1391.2263              1406.7936
 Red. masses --      1.3339                 1.3634                 2.3486
 Frc consts  --      1.4123                 1.5548                 2.7386
 IR Inten    --      2.9176               110.0323               753.2733

                     37                     38                     39
                      A                      A                      A
 Frequencies --   1426.9734              1463.6311              1470.0038
 Red. masses --      1.5473                 1.1802                 1.1150
 Frc consts  --      1.8564                 1.4896                 1.4196
 IR Inten    --    321.8978                35.0256                 4.3565

                     40                     41                     42
                      A                      A                      A
 Frequencies --   1477.6437              1493.0711              1494.4895
 Red. masses --      1.0567                 1.0412                 1.0850
 Frc consts  --      1.3593                 1.3676                 1.4279
 IR Inten    --      2.4556                30.7088                14.9328

                     43                     44                     45
                      A                      A                      A
 Frequencies --   1495.9866              1503.5444              1647.9826
 Red. masses --      1.0668                 1.0354                 1.1446
 Frc consts  --      1.4067                 1.3791                 1.8316
 IR Inten    --     19.7456                27.1952               168.6416

                     46                     47                     48
                      A                      A                      A
 Frequencies --   1654.1781              3071.7119              3077.7528
 Red. masses --      6.8827                 1.0330                 1.0372
 Frc consts  --     11.0962                 5.7425                 5.7886
 IR Inten    --    543.7665                23.8410                11.4252

                     49                     50                     51
                      A                      A                      A
 Frequencies --   3079.8992              3150.2468              3153.9710
 Red. masses --      1.0361                 1.1050                 1.0994
 Frc consts  --      5.7905                 6.4612                 6.4436
 IR Inten    --      5.2450                 8.7117                13.5821

                     52                     53                     54
                      A                      A                      A
 Frequencies --   3159.2079              3169.5751              3175.4363
 Red. masses --      1.1020                 1.1057                 1.1042
 Frc consts  --      6.4799                 6.5450                 6.5600
 IR Inten    --      8.5827                12.8131                 7.4774

                     55                     56                     57
                      A                      A                      A
 Frequencies --   3176.4044              3527.1710              3606.8320
 Red. masses --      1.1030                 1.0508                 1.0957
 Frc consts  --      6.5566                 7.7025                 8.3983
 IR Inten    --     37.1542                56.7580                51.4370

 - Thermochemistry -
 -------------------
 Temperature   298.150 Kelvin.  Pressure   1.00000 Atm.
 Atom     1 has atomic number  6 and mass  12.00000

 Molecular mass:   226.97125 amu.
 Principal axes and moments of inertia in atomic units:
                           1         2         3
     Eigenvalues --  1903.209552873.859353418.35726
           X            0.99911   0.03451  -0.02410
           Y           -0.03480   0.99933  -0.01164
           Z            0.02369   0.01247   0.99964
 This molecule is an asymmetric top.
 Rotational symmetry number  1.
 Warning -- assumption of classical behavior for rotation
           may cause significant error
 Rotational temperatures (Kelvin)      0.04551     0.03014     0.02534
 Rotational constants (GHZ):           0.94826     0.62799     0.52796
    1 imaginary frequencies ignored.
 Zero-point vibrational energy     439683.8 (Joules/Mol)
                                  105.08696 (Kcal/Mol)
 Warning -- explicit consideration of  18 degrees of freedom as
           vibrations may cause significant error
 Vibrational temperatures:     82.86   113.16   123.83   195.28   250.91
          (Kelvin)            286.09   289.79   321.50   363.07   401.41
                              418.92   456.48   478.18   526.28   552.59
                              694.16   772.82   868.76   923.55   964.61
                             1042.53  1286.47  1435.09  1456.89  1488.77
                             1500.81  1522.42  1546.29  1561.02  1615.17
                             1766.98  1879.25  1928.67  2001.66  2024.06
                             2053.10  2105.84  2115.01  2126.00  2148.20
                             2150.24  2152.39  2163.27  2371.08  2379.99
                             4419.51  4428.20  4431.29  4532.50  4537.86
                             4545.40  4560.31  4568.74  4570.14  5074.81
                             5189.43

 Zero-point correction=                           0.167467 (Hartree/Particle)
 Thermal correction to Energy=                    0.179740
 Thermal correction to Enthalpy=                  0.180684
 Thermal correction to Gibbs Free Energy=         0.128301
 Sum of electronic and zero-point Energies=          -3399.478344
 Sum of electronic and thermal Energies=             -3399.466071
 Sum of electronic and thermal Enthalpies=           -3399.465127
 Sum of electronic and thermal Free Energies=        -3399.517510

                     E (Thermal)             CV                S
                      KCal/Mol        Cal/Mol-Kelvin    Cal/Mol-Kelvin
 Total                  112.788             43.200            110.248
 Electronic               0.000              0.000              0.000
 Translational            0.889              2.981             42.161
 Rotational               0.889              2.981             31.303
 Vibrational            111.011             37.238             36.784
 Vibration     1          0.596              1.974              4.538
 Vibration     2          0.600              1.964              3.924
 Vibration     3          0.601              1.959              3.748
 Vibration     4          0.614              1.918              2.863
 Vibration     5          0.627              1.874              2.388
 Vibration     6          0.637              1.842              2.144
 Vibration     7          0.638              1.838              2.120
 Vibration     8          0.649              1.805              1.931
 Vibration     9          0.664              1.759              1.714
 Vibration    10          0.679              1.712              1.540
 Vibration    11          0.687              1.690              1.467
 Vibration    12          0.704              1.641              1.324
 Vibration    13          0.714              1.611              1.249
 Vibration    14          0.739              1.543              1.097
 Vibration    15          0.753              1.504              1.023
 Vibration    16          0.839              1.289              0.703
 Vibration    17          0.892              1.168              0.571
 Vibration    18          0.962              1.024              0.443

 Optimization completed.
    -- Stationary point found.
 Normal termination of Gaussian 16 at Mon Apr 12 22:09:52 2021.
