 Gaussian 16, Revision A.03,
 Gaussian 16:  ES64L-G16RevA.03 25-Dec-2016

 ----------------------------------------------------------------------
 # wB97XD def2tzvp, opt=(ts, noeigen, calcfc, maxcycles=70, maxstep=1),
  freq=noraman, scrf=(iefpcm, solvent=water)
 ----------------------------------------------------------------------

 ------------------------
 0_iteration/TS-571-0.out
 ------------------------
 Symbolic Z-matrix:
 Charge =  0 Multiplicity = 1

 SCF Done:  E(RwB97XD) =  -842.095476689     A.U. after   14 cycles
 SCF Done:  E(RwB97XD) =  -842.095472066     A.U. after   10 cycles
 SCF Done:  E(RwB97XD) =  -842.095475958     A.U. after   10 cycles
 SCF Done:  E(RwB97XD) =  -842.095488958     A.U. after   10 cycles
 SCF Done:  E(RwB97XD) =  -842.095528247     A.U. after   10 cycles
 SCF Done:  E(RwB97XD) =  -842.095588998     A.U. after   10 cycles
 SCF Done:  E(RwB97XD) =  -842.095667851     A.U. after   10 cycles
 SCF Done:  E(RwB97XD) =  -842.095764568     A.U. after   10 cycles
 SCF Done:  E(RwB97XD) =  -842.095877431     A.U. after   10 cycles
 SCF Done:  E(RwB97XD) =  -842.096002897     A.U. after   10 cycles
 SCF Done:  E(RwB97XD) =  -842.099919387     A.U. after   10 cycles
 SCF Done:  E(RwB97XD) =  -842.099982489     A.U. after   10 cycles
 SCF Done:  E(RwB97XD) =  -842.099953683     A.U. after   10 cycles
 SCF Done:  E(RwB97XD) =  -842.099957959     A.U. after   10 cycles
 SCF Done:  E(RwB97XD) =  -842.099955796     A.U. after   10 cycles
 SCF Done:  E(RwB97XD) =  -842.099957437     A.U. after    9 cycles
 SCF Done:  E(RwB97XD) =  -842.099957618     A.U. after    8 cycles
 SCF Done:  E(RwB97XD) =  -842.099956550     A.U. after   10 cycles
 SCF Done:  E(RwB97XD) =  -842.099957712     A.U. after    9 cycles
 Optimization completed.
    -- Stationary point found.
 Normal termination of Gaussian 16 at Mon Feb 15 19:55:08 2021.

 ---------------------------------------------------------------------
 #N Geom=AllCheck Guess=TCheck SCRF=Check GenChk RwB97XD/def2TZVP Freq
 ---------------------------------------------------------------------

 Structure from the checkpoint file:  "/beegfs/scratch/user/q/tla25/Gau-20839.chk"
 ------------------------
 0_iteration/TS-571-0.out
 ------------------------
 Charge =  0 Multiplicity = 1

                         Standard orientation:
 ---------------------------------------------------------------------
 Center     Atomic      Atomic             Coordinates (Angstroms)
 Number     Number       Type             X           Y           Z
 ---------------------------------------------------------------------
      1          6           0        0.932136   -0.846235   -0.419459
      2          6           0        2.050408    0.030200   -0.217861
      3          8           0        3.160873   -0.196537   -0.721208
      4          6           0       -0.397371   -0.694076   -0.051492
      5          6           0       -2.486643    1.248105   -0.872806
      6          1           0       -2.665160    2.135561   -1.481002
      7          1           0       -3.177628    0.465669   -1.178375
      8          1           0       -2.657937    1.491249    0.173428
      9          7           0       -1.111778    0.770752   -1.031498
     10          1           0       -0.928323    0.470418   -1.982785
     11          1           0       -0.438776    1.500442   -0.816636
     12          6           0       -1.365207   -1.788352   -0.408781
     13          1           0       -2.396291   -1.491413   -0.230237
     14          1           0       -1.245106   -2.058392   -1.457938
     15          1           0       -1.153250   -2.664709    0.203420
     16         17           0       -0.786636   -0.059805    1.605609
     17          1           0        1.121570   -1.652916   -1.116103
     18          7           0        1.875033    1.199540    0.495266
     19          1           0        1.151808    1.236811    1.194497
     20          1           0        2.732207    1.666357    0.742061
 ---------------------------------------------------------------------

 SCF Done:  E(RwB97XD) =  -842.099957712     A.U. after    1 cycles

 The electronic state is 1-A.
 Alpha  occ. eigenvalues -- -101.69769 -19.19304 -14.49172 -14.43190 -10.40419
 Alpha  occ. eigenvalues --  -10.37316 -10.32027 -10.29138 -10.24856  -9.58387
 Alpha  occ. eigenvalues --   -7.32979  -7.32190  -7.32161  -1.11708  -1.04829
 Alpha  occ. eigenvalues --   -0.98849  -0.96600  -0.87314  -0.81350  -0.79141
 Alpha  occ. eigenvalues --   -0.69305  -0.64521  -0.63686  -0.60871  -0.58555
 Alpha  occ. eigenvalues --   -0.56290  -0.55630  -0.52651  -0.50431  -0.50112
 Alpha  occ. eigenvalues --   -0.48721  -0.48416  -0.47056  -0.45494  -0.44284
 Alpha  occ. eigenvalues --   -0.40084  -0.39352  -0.35189  -0.33237  -0.27749
 Alpha virt. eigenvalues --    0.05551   0.08108   0.09914   0.13655   0.14339
 Alpha virt. eigenvalues --    0.14879   0.16129   0.17808   0.18025   0.18857
 Alpha virt. eigenvalues --    0.19793   0.20057   0.20940   0.21369   0.22600

 Mulliken charges:
               1
     1  C   -0.427877
     2  C    0.318001
     3  O   -0.552938
     4  C    0.151880
     5  C   -0.284090
     6  H    0.159175
     7  H    0.156569
     8  H    0.150859
     9  N   -0.304903
    10  H    0.284487
    11  H    0.275981
    12  C   -0.377158
    13  H    0.151562
    14  H    0.151094
    15  H    0.156429
    16  Cl  -0.154347
    17  H    0.128206
    18  N   -0.485810
    19  H    0.247643
    20  H    0.255237
 Sum of Mulliken charges =  -0.00000

 Dipole moment (field-independent basis, Debye):
    X=             -9.9324    Y=              3.2421    Z=             -1.3106  Tot=             10.5300
 Quadrupole moment (field-independent basis, Debye-Ang):
   XX=            -77.6454   YY=            -56.0690   ZZ=            -59.2369
   XY=              3.7344   XZ=             13.6204   YZ=              0.9381

  Exact polarizability: 169.918  -7.913 121.733  -3.978   5.273 119.596
 Approx polarizability: 127.738  -6.039 101.712  -5.171   5.208 103.035

 ******    1 imaginary frequencies (negative Signs) ******

                      1                      2                      3
                      A                      A                      A
 Frequencies --   -385.2903                40.7679                82.5886
 Red. masses --      5.5782                 2.1989                 5.2539
 Frc consts  --      0.4879                 0.0022                 0.0211
 IR Inten    --    668.4245                 2.2695                19.1234

                      4                      5                      6
                      A                      A                      A
 Frequencies --     97.5039               175.9364               183.7216
 Red. masses --      3.0980                 1.3722                 4.1501
 Frc consts  --      0.0174                 0.0250                 0.0825
 IR Inten    --      6.3073                 1.8016                16.3806

                      7                      8                      9
                      A                      A                      A
 Frequencies --    209.9507               246.7611               279.2364
 Red. masses --      2.1460                 1.4722                 2.3096
 Frc consts  --      0.0557                 0.0528                 0.1061
 IR Inten    --      4.3555                 2.0127                10.9032

                     10                     11                     12
                      A                      A                      A
 Frequencies --    313.3190               341.6246               373.0141
 Red. masses --      3.4887                 3.7924                 3.7234
 Frc consts  --      0.2018                 0.2608                 0.3052
 IR Inten    --      3.2456                12.7981                 6.8873

                     13                     14                     15
                      A                      A                      A
 Frequencies --    427.8944               485.9002               500.2033
 Red. masses --      2.5133                 2.3916                 1.4310
 Frc consts  --      0.2711                 0.3327                 0.2110
 IR Inten    --     30.4559                92.3780               359.0504

                     16                     17                     18
                      A                      A                      A
 Frequencies --    530.5333               585.5996               626.1991
 Red. masses --      1.3584                 2.7179                 2.7449
 Frc consts  --      0.2253                 0.5491                 0.6342
 IR Inten    --     77.7490                63.7224                34.9474

                     19                     20                     21
                      A                      A                      A
 Frequencies --    664.8228               709.0909               797.1540
 Red. masses --      1.6295                 1.3869                 7.4156
 Frc consts  --      0.4243                 0.4109                 2.7764
 IR Inten    --     88.5949                46.1148               119.7484

                     22                     23                     24
                      A                      A                      A
 Frequencies --    918.9654              1018.8625              1032.5352
 Red. masses --      3.2066                 1.2619                 1.8622
 Frc consts  --      1.5955                 0.7718                 1.1697
 IR Inten    --     16.5272                25.4963               281.0326

                     25                     26                     27
                      A                      A                      A
 Frequencies --   1050.8876              1061.2494              1084.2275
 Red. masses --      1.5913                 1.4619                 1.6744
 Frc consts  --      1.0354                 0.9701                 1.1597
 IR Inten    --      9.1020                31.1219                76.9246

                     28                     29                     30
                      A                      A                      A
 Frequencies --   1102.6663              1144.1580              1244.5082
 Red. masses --      1.9122                 2.3237                 1.3749
 Frc consts  --      1.3699                 1.7922                 1.2546
 IR Inten    --     28.1859                51.9778                49.5866

                     31                     32                     33
                      A                      A                      A
 Frequencies --   1276.3627              1346.9261              1383.9628
 Red. masses --      1.3976                 1.3323                 3.6825
 Frc consts  --      1.3414                 1.4240                 4.1557
 IR Inten    --    379.7801                21.5111               340.1736

                     34                     35                     36
                      A                      A                      A
 Frequencies --   1417.3745              1455.9795              1475.5999
 Red. masses --      1.2422                 1.1992                 1.1267
 Frc consts  --      1.4704                 1.4978                 1.4455
 IR Inten    --     12.4952                29.7326                45.8072

                     37                     38                     39
                      A                      A                      A
 Frequencies --   1482.9896              1493.7996              1500.7338
 Red. masses --      1.1646                 1.0863                 1.8652
 Frc consts  --      1.5090                 1.4282                 2.4750
 IR Inten    --     78.1980                42.1922               354.1477

                     40                     41                     42
                      A                      A                      A
 Frequencies --   1509.7942              1609.2925              1638.8161
 Red. masses --      1.1602                 1.4034                 1.1866
 Frc consts  --      1.5581                 2.1414                 1.8777
 IR Inten    --     81.7101               464.5810               307.2397

                     43                     44                     45
                      A                      A                      A
 Frequencies --   1651.3407              3072.1488              3074.6009
 Red. masses --      2.9835                 1.0354                 1.0362
 Frc consts  --      4.7934                 5.7575                 5.7711
 IR Inten    --    743.3945                38.6328                10.0328

                     46                     47                     48
                      A                      A                      A
 Frequencies --   3151.7739              3152.3769              3169.0947
 Red. masses --      1.1024                 1.1030                 1.1028
 Frc consts  --      6.4521                 6.4578                 6.5253
 IR Inten    --     10.9339                10.0554                14.7302

                     49                     50                     51
                      A                      A                      A
 Frequencies --   3177.9950              3198.6884              3506.2317
 Red. masses --      1.1061                 1.0876                 1.0523
 Frc consts  --      6.5818                 6.5563                 7.6221
 IR Inten    --     10.6034                 4.8550                26.6336

                     52                     53                     54
                      A                      A                      A
 Frequencies --   3585.1968              3589.4601              3703.3757
 Red. masses --      1.0942                 1.0484                 1.1010
 Frc consts  --      8.2868                 7.9587                 8.8964
 IR Inten    --     66.3699                26.4685                99.4464

 - Thermochemistry -
 -------------------
 Temperature   298.150 Kelvin.  Pressure   1.00000 Atm.
 Atom     1 has atomic number  6 and mass  12.00000

 Molecular mass:   150.05599 amu.
 Principal axes and moments of inertia in atomic units:
                           1         2         3
     Eigenvalues --   979.407292080.512232126.42213
           X            0.99877   0.04856   0.00980
           Y           -0.00276  -0.14305   0.98971
           Z           -0.04946   0.98852   0.14274
 This molecule is an asymmetric top.
 Rotational symmetry number  1.
 Warning -- assumption of classical behavior for rotation
           may cause significant error
 Rotational temperatures (Kelvin)      0.08844     0.04163     0.04073
 Rotational constants (GHZ):           1.84269     0.86745     0.84872
    1 imaginary frequencies ignored.
 Zero-point vibrational energy     436360.6 (Joules/Mol)
                                  104.29269 (Kcal/Mol)
 Warning -- explicit consideration of  16 degrees of freedom as
           vibrations may cause significant error
 Vibrational temperatures:     58.66   118.83   140.29   253.13   264.33
          (Kelvin)            302.07   355.03   401.76   450.80   491.52
                              536.68   615.64   699.10   719.68   763.32
                              842.55   900.96   956.53  1020.22  1146.93
                             1322.19  1465.92  1485.59  1511.99  1526.90
                             1559.96  1586.49  1646.19  1790.57  1836.40
                             1937.93  1991.21  2039.29  2094.83  2123.06
                             2133.69  2149.24  2159.22  2172.26  2315.41
                             2357.89  2375.91  4420.14  4423.66  4534.70
                             4535.57  4559.62  4572.43  4602.20  5044.69
                             5158.30  5164.43  5328.33

 Zero-point correction=                           0.166201 (Hartree/Particle)
 Thermal correction to Energy=                    0.177089
 Thermal correction to Enthalpy=                  0.178033
 Thermal correction to Gibbs Free Energy=         0.129412
 Sum of electronic and zero-point Energies=           -841.933757
 Sum of electronic and thermal Energies=              -841.922869
 Sum of electronic and thermal Enthalpies=            -841.921925
 Sum of electronic and thermal Free Energies=         -841.970546

                     E (Thermal)             CV                S
                      KCal/Mol        Cal/Mol-Kelvin    Cal/Mol-Kelvin
 Total                  111.125             39.109            102.332
 Electronic               0.000              0.000              0.000
 Translational            0.889              2.981             40.928
 Rotational               0.889              2.981             29.850
 Vibrational            109.348             33.147             31.554
 Vibration     1          0.594              1.981              5.221
 Vibration     2          0.600              1.961              3.828
 Vibration     3          0.603              1.951              3.504
 Vibration     4          0.628              1.872              2.371
 Vibration     5          0.631              1.862              2.290
 Vibration     6          0.642              1.826              2.044
 Vibration     7          0.661              1.768              1.754
 Vibration     8          0.680              1.712              1.538
 Vibration     9          0.701              1.648              1.345
 Vibration    10          0.721              1.592              1.205
 Vibration    11          0.744              1.528              1.067
 Vibration    12          0.789              1.410              0.866
 Vibration    13          0.842              1.281              0.694
 Vibration    14          0.856              1.250              0.658
 Vibration    15          0.885              1.182              0.586
 Vibration    16          0.943              1.063              0.475

 Optimization completed.
    -- Stationary point found.
 Normal termination of Gaussian 16 at Mon Feb 15 20:05:27 2021.
