 Gaussian 16, Revision A.03,
 Gaussian 16:  ES64L-G16RevA.03 25-Dec-2016

 ----------------------------------------------------------------------
 # wB97XD def2tzvp, opt=(ts, noeigen, calcfc, maxcycles=70, maxstep=1),
  freq=noraman, scrf=(iefpcm, solvent=water)
 ----------------------------------------------------------------------

 ------------------------
 0_iteration/TS-534-0.out
 ------------------------
 Symbolic Z-matrix:
 Charge =  0 Multiplicity = 1

 SCF Done:  E(RwB97XD) =  -3034.70333939     A.U. after   15 cycles
 SCF Done:  E(RwB97XD) =  -3034.70320056     A.U. after   10 cycles
 SCF Done:  E(RwB97XD) =  -3034.70307041     A.U. after   10 cycles
 SCF Done:  E(RwB97XD) =  -3034.70294883     A.U. after   10 cycles
 SCF Done:  E(RwB97XD) =  -3034.70283304     A.U. after   10 cycles
 SCF Done:  E(RwB97XD) =  -3034.70272288     A.U. after   10 cycles
 SCF Done:  E(RwB97XD) =  -3034.70261940     A.U. after   10 cycles
 SCF Done:  E(RwB97XD) =  -3034.70252277     A.U. after   10 cycles
 SCF Done:  E(RwB97XD) =  -3034.70243703     A.U. after   10 cycles
 SCF Done:  E(RwB97XD) =  -3034.70237210     A.U. after   11 cycles
 SCF Done:  E(RwB97XD) =  -3034.70247046     A.U. after   11 cycles
 SCF Done:  E(RwB97XD) =  -3034.70247868     A.U. after   10 cycles
 SCF Done:  E(RwB97XD) =  -3034.70248410     A.U. after   11 cycles
 SCF Done:  E(RwB97XD) =  -3034.70248442     A.U. after    9 cycles
 SCF Done:  E(RwB97XD) =  -3034.70248380     A.U. after   10 cycles
 SCF Done:  E(RwB97XD) =  -3034.70248390     A.U. after   10 cycles
 SCF Done:  E(RwB97XD) =  -3034.70248455     A.U. after   10 cycles
 SCF Done:  E(RwB97XD) =  -3034.70248427     A.U. after    9 cycles
 SCF Done:  E(RwB97XD) =  -3034.70248441     A.U. after    9 cycles
 Optimization completed.
    -- Stationary point found.
 Normal termination of Gaussian 16 at Mon Feb 15 23:40:45 2021.

 ---------------------------------------------------------------------
 #N Geom=AllCheck Guess=TCheck SCRF=Check GenChk RwB97XD/def2TZVP Freq
 ---------------------------------------------------------------------

 Structure from the checkpoint file:  "/beegfs/scratch/user/q/tla25/Gau-43808.chk"
 ------------------------
 0_iteration/TS-534-0.out
 ------------------------
 Charge =  0 Multiplicity = 1

                         Standard orientation:
 ---------------------------------------------------------------------
 Center     Atomic      Atomic             Coordinates (Angstroms)
 Number     Number       Type             X           Y           Z
 ---------------------------------------------------------------------
      1          6           0        0.228344    0.745811    1.121275
      2          6           0        1.543907    0.801482    0.495104
      3          8           0        2.168788    1.869914    0.431923
      4          6           0       -0.976197    0.369167    0.543119
      5          6           0       -1.217521    2.712850   -0.844301
      6          1           0       -1.113812    3.222951   -1.800438
      7          1           0       -2.137448    3.033653   -0.361673
      8          1           0       -0.366173    2.950846   -0.207637
      9          7           0       -1.249277    1.262154   -1.030832
     10          1           0       -2.106536    0.952279   -1.477756
     11          1           0       -0.476374    0.954858   -1.612330
     12          6           0       -2.240373    0.670449    1.312271
     13          1           0       -2.200545    1.686667    1.705122
     14          1           0       -3.132335    0.563775    0.697001
     15          1           0       -2.321976   -0.019336    2.151262
     16         35           0       -1.199033   -1.456727   -0.294650
     17          1           0        0.100317    1.524592    1.865805
     18          7           0        2.092685   -0.333675   -0.057448
     19          6           0        1.980980   -1.622958    0.598163
     20          6           0        3.303499   -0.181166   -0.836403
     21          1           0        1.172839   -1.602716    1.322273
     22          1           0        1.787587   -2.415544   -0.126604
     23          1           0        2.916848   -1.854059    1.121403
     24          1           0        3.238814    0.706727   -1.460168
     25          1           0        4.193746   -0.093189   -0.202267
     26          1           0        3.421220   -1.058549   -1.474035
 ---------------------------------------------------------------------

 SCF Done:  E(RwB97XD) =  -3034.70248441     A.U. after    1 cycles

 The electronic state is 1-A.
 Alpha  occ. eigenvalues -- -483.11604 -62.66476 -56.45562 -56.45251 -56.45237
 Alpha  occ. eigenvalues --  -19.19786 -14.50139 -14.44688 -10.39524 -10.37024
 Alpha  occ. eigenvalues --  -10.31933 -10.30033 -10.29906 -10.28828 -10.24165
 Alpha  occ. eigenvalues --   -8.80587  -6.62645  -6.61666  -6.61619  -2.73037
 Alpha  occ. eigenvalues --   -2.72776  -2.72737  -2.71945  -2.71945  -1.12305
 Alpha  occ. eigenvalues --   -1.05573  -1.02053  -0.92472  -0.84393  -0.82148
 Alpha  occ. eigenvalues --   -0.80136  -0.79419  -0.76374  -0.67012  -0.64191
 Alpha  occ. eigenvalues --   -0.61744  -0.59015  -0.57641  -0.55940  -0.55417
 Alpha  occ. eigenvalues --   -0.54344  -0.51559  -0.50755  -0.49883  -0.48514
 Alpha  occ. eigenvalues --   -0.47835  -0.47490  -0.46475  -0.45610  -0.44997
 Alpha  occ. eigenvalues --   -0.43520  -0.41882  -0.36724  -0.36388  -0.34126
 Alpha  occ. eigenvalues --   -0.31220  -0.26636
 Alpha virt. eigenvalues --    0.04748   0.07592   0.09557   0.12547   0.13061
 Alpha virt. eigenvalues --    0.14104   0.14482   0.16488   0.16912   0.17167
 Alpha virt. eigenvalues --    0.17942   0.18855   0.19389   0.19670   0.20721

 Mulliken charges:
               1
     1  C   -0.492952
     2  C    0.291735
     3  O   -0.531311
     4  C    0.150616
     5  C   -0.302463
     6  H    0.162961
     7  H    0.164252
     8  H    0.156714
     9  N   -0.273206
    10  H    0.292721
    11  H    0.290956
    12  C   -0.382977
    13  H    0.152626
    14  H    0.151102
    15  H    0.155638
    16  Br  -0.200805
    17  H    0.124264
    18  N   -0.148523
    19  C   -0.273876
    20  C   -0.287725
    21  H    0.148783
    22  H    0.136320
    23  H    0.124566
    24  H    0.134864
    25  H    0.122790
    26  H    0.132931
 Sum of Mulliken charges =  -0.00000

 Dipole moment (field-independent basis, Debye):
    X=             -5.6755    Y=              0.5663    Z=             -3.9869  Tot=              6.9590
 Quadrupole moment (field-independent basis, Debye-Ang):
   XX=            -79.2305   YY=            -83.2876   ZZ=            -76.9702
   XY=            -19.8610   XZ=             -1.1983   YZ=             -6.3944

  Exact polarizability: 192.588   2.758 195.657   7.727   6.254 155.553
 Approx polarizability: 145.890   4.504 157.453   5.612   6.427 132.874

 ******    1 imaginary frequencies (negative Signs) ******

                      1                      2                      3
                      A                      A                      A
 Frequencies --   -381.6006                33.9162                60.5868
 Red. masses --      5.4750                 5.3831                 4.4978
 Frc consts  --      0.4697                 0.0036                 0.0097
 IR Inten    --    530.3478                 8.0931                27.1341

                      4                      5                      6
                      A                      A                      A
 Frequencies --     72.8418               103.5703               149.9428
 Red. masses --      3.8700                 1.7582                 2.2581
 Frc consts  --      0.0121                 0.0111                 0.0299
 IR Inten    --      0.4501                22.8284                 4.5578

                      7                      8                      9
                      A                      A                      A
 Frequencies --    165.2001               179.9384               190.4932
 Red. masses --      2.3674                 1.4231                 1.9200
 Frc consts  --      0.0381                 0.0271                 0.0411
 IR Inten    --     13.8079                 4.5740                 3.9273

                     10                     11                     12
                      A                      A                      A
 Frequencies --    204.3010               223.0028               249.9087
 Red. masses --      2.1672                 1.6928                 1.4023
 Frc consts  --      0.0533                 0.0496                 0.0516
 IR Inten    --     20.4965                 7.8307                20.4603

                     13                     14                     15
                      A                      A                      A
 Frequencies --    273.2368               296.8890               299.3536
 Red. masses --      2.2657                 1.5754                 2.6330
 Frc consts  --      0.0997                 0.0818                 0.1390
 IR Inten    --     37.5346                22.9313                14.4211

                     16                     17                     18
                      A                      A                      A
 Frequencies --    354.4706               366.7224               398.3459
 Red. masses --      2.7639                 3.9250                 2.9260
 Frc consts  --      0.2046                 0.3110                 0.2736
 IR Inten    --      7.7210                45.2232                20.4243

                     19                     20                     21
                      A                      A                      A
 Frequencies --    426.4369               477.4804               574.2581
 Red. masses --      2.7321                 1.8498                 4.1532
 Frc consts  --      0.2927                 0.2485                 0.8070
 IR Inten    --      3.1689               281.6867                42.0119

                     22                     23                     24
                      A                      A                      A
 Frequencies --    632.7061               704.7439               739.1975
 Red. masses --      2.3232                 3.8671                 1.7497
 Frc consts  --      0.5479                 1.1316                 0.5633
 IR Inten    --    141.0396                58.9789                58.8533

                     25                     26                     27
                      A                      A                      A
 Frequencies --    765.3767               835.7297               994.7711
 Red. masses --      2.4381                 6.5819                 1.9646
 Frc consts  --      0.8415                 2.7085                 1.1454
 IR Inten    --     25.5298                34.8192                48.4335

                     28                     29                     30
                      A                      A                      A
 Frequencies --   1014.8530              1051.1661              1053.9502
 Red. masses --      1.3011                 1.3987                 1.5590
 Frc consts  --      0.7895                 0.9106                 1.0203
 IR Inten    --     22.5987                44.7416                18.2406

                     31                     32                     33
                      A                      A                      A
 Frequencies --   1066.6849              1078.5116              1082.9450
 Red. masses --      2.1377                 1.9634                 1.3893
 Frc consts  --      1.4331                 1.3456                 0.9600
 IR Inten    --    137.1442                15.2461                23.6151

                     34                     35                     36
                      A                      A                      A
 Frequencies --   1119.0407              1130.7756              1172.9482
 Red. masses --      2.1434                 1.2383                 1.3983
 Frc consts  --      1.5814                 0.9329                 1.1334
 IR Inten    --    133.1855                 4.5872                34.1657

                     37                     38                     39
                      A                      A                      A
 Frequencies --   1219.9317              1252.1370              1283.4998
 Red. masses --      3.0273                 1.3640                 1.3797
 Frc consts  --      2.6544                 1.2600                 1.3391
 IR Inten    --    211.4021                66.2500               352.0159

                     40                     41                     42
                      A                      A                      A
 Frequencies --   1299.6195              1343.2212              1409.7797
 Red. masses --      4.7008                 1.2967                 2.4667
 Frc consts  --      4.6779                 1.3784                 2.8885
 IR Inten    --     39.8267                 2.8483               385.5543

                     43                     44                     45
                      A                      A                      A
 Frequencies --   1421.3386              1443.2324              1449.8247
 Red. masses --      1.2616                 1.1693                 1.2547
 Frc consts  --      1.5016                 1.4350                 1.5539
 IR Inten    --     46.5842                13.1029                65.2344

                     46                     47                     48
                      A                      A                      A
 Frequencies --   1466.9314              1473.5545              1479.4498
 Red. masses --      1.3778                 1.3695                 1.0980
 Frc consts  --      1.7468                 1.7521                 1.4159
 IR Inten    --     41.5209               202.8056                22.0278

                     49                     50                     51
                      A                      A                      A
 Frequencies --   1481.6591              1488.2019              1494.5513
 Red. masses --      1.0440                 1.0496                 1.1959
 Frc consts  --      1.3504                 1.3696                 1.5739
 IR Inten    --      5.4292                43.8933                34.0775

                     52                     53                     54
                      A                      A                      A
 Frequencies --   1497.9805              1501.8975              1505.3021
 Red. masses --      1.0476                 1.2735                 1.0415
 Frc consts  --      1.3850                 1.6925                 1.3905
 IR Inten    --     12.7729               109.8152                21.3686

                     55                     56                     57
                      A                      A                      A
 Frequencies --   1527.2180              1626.8173              1645.1484
 Red. masses --      1.3133                 7.7600                 1.0854
 Frc consts  --      1.8047                12.1002                 1.7308
 IR Inten    --    211.7441               825.0216                67.8680

                     58                     59                     60
                      A                      A                      A
 Frequencies --   3012.4870              3017.2540              3071.9342
 Red. masses --      1.0500                 1.0508                 1.0358
 Frc consts  --      5.6141                 5.6365                 5.7593
 IR Inten    --     92.1560               142.7189                14.0348

                     61                     62                     63
                      A                      A                      A
 Frequencies --   3077.0349              3094.1091              3101.4015
 Red. masses --      1.0329                 1.0895                 1.0890
 Frc consts  --      5.7619                 6.1454                 6.1718
 IR Inten    --     36.3996                72.3538                29.4381

                     64                     65                     66
                      A                      A                      A
 Frequencies --   3150.9706              3158.6002              3160.5235
 Red. masses --      1.1017                 1.1035                 1.1052
 Frc consts  --      6.4446                 6.4864                 6.5041
 IR Inten    --     12.2516                14.7685                 2.3239

                     67                     68                     69
                      A                      A                      A
 Frequencies --   3166.0378              3166.7993              3178.9773
 Red. masses --      1.0994                 1.0873                 1.1060
 Frc consts  --      6.4929                 6.4245                 6.5853
 IR Inten    --     14.2498                24.2932                 9.4643

                     70                     71                     72
                      A                      A                      A
 Frequencies --   3185.4463              3506.3124              3587.3569
 Red. masses --      1.0974                 1.0512                 1.0969
 Frc consts  --      6.5610                 7.6142                 8.3169
 IR Inten    --     10.4765                39.6633                56.8996

 - Thermochemistry -
 -------------------
 Temperature   298.150 Kelvin.  Pressure   1.00000 Atm.
 Atom     1 has atomic number  6 and mass  12.00000

 Molecular mass:   222.03677 amu.
 Principal axes and moments of inertia in atomic units:
                           1         2         3
     Eigenvalues --  1935.381942773.596673888.70493
           X            0.97901  -0.20269  -0.02133
           Y            0.20197   0.97887  -0.03182
           Z            0.02732   0.02684   0.99927
 This molecule is an asymmetric top.
 Rotational symmetry number  1.
 Warning -- assumption of classical behavior for rotation
           may cause significant error
 Rotational temperatures (Kelvin)      0.04475     0.03123     0.02227
 Rotational constants (GHZ):           0.93250     0.65069     0.46410
    1 imaginary frequencies ignored.
 Zero-point vibrational energy     583124.7 (Joules/Mol)
                                  139.37015 (Kcal/Mol)
 Warning -- explicit consideration of  20 degrees of freedom as
           vibrations may cause significant error
 Vibrational temperatures:     48.80    87.17   104.80   149.01   215.73
          (Kelvin)            237.69   258.89   274.08   293.94   320.85
                              359.56   393.13   427.16   430.70   510.00
                              527.63   573.13   613.55   686.99   826.23
                              910.32  1013.97  1063.54  1101.21  1202.43
                             1431.25  1460.15  1512.39  1516.40  1534.72
                             1551.74  1558.12  1610.05  1626.93  1687.61
                             1755.21  1801.55  1846.67  1869.86  1932.60
                             2028.36  2044.99  2076.49  2085.97  2110.59
                             2120.12  2128.60  2131.78  2141.19  2150.33
                             2155.26  2160.90  2165.79  2197.33  2340.63
                             2367.00  4334.30  4341.16  4419.83  4427.17
                             4451.73  4462.22  4533.54  4544.52  4547.29
                             4555.22  4556.32  4573.84  4583.15  5044.80
                             5161.41

 Zero-point correction=                           0.222100 (Hartree/Particle)
 Thermal correction to Energy=                    0.236069
 Thermal correction to Enthalpy=                  0.237013
 Thermal correction to Gibbs Free Energy=         0.180654
 Sum of electronic and zero-point Energies=          -3034.480384
 Sum of electronic and thermal Energies=             -3034.466415
 Sum of electronic and thermal Enthalpies=           -3034.465471
 Sum of electronic and thermal Free Energies=        -3034.521830

                     E (Thermal)             CV                S
                      KCal/Mol        Cal/Mol-Kelvin    Cal/Mol-Kelvin
 Total                  148.136             49.123            118.617
 Electronic               0.000              0.000              0.000
 Translational            0.889              2.981             42.096
 Rotational               0.889              2.981             31.413
 Vibrational            146.358             43.161             45.109
 Vibration     1          0.594              1.983              5.586
 Vibration     2          0.597              1.973              4.438
 Vibration     3          0.599              1.967              4.075
 Vibration     4          0.605              1.946              3.386
 Vibration     5          0.618              1.903              2.673
 Vibration     6          0.624              1.885              2.489
 Vibration     7          0.629              1.867              2.329
 Vibration     8          0.634              1.853              2.223
 Vibration     9          0.640              1.834              2.094
 Vibration    10          0.649              1.806              1.935
 Vibration    11          0.663              1.763              1.731
 Vibration    12          0.676              1.723              1.576
 Vibration    13          0.691              1.680              1.434
 Vibration    14          0.692              1.675              1.421
 Vibration    15          0.730              1.566              1.146
 Vibration    16          0.740              1.541              1.093
 Vibration    17          0.765              1.474              0.969
 Vibration    18          0.788              1.413              0.870
 Vibration    19          0.834              1.300              0.717
 Vibration    20          0.931              1.087              0.496

 Optimization completed.
    -- Stationary point found.
 Normal termination of Gaussian 16 at Tue Feb 16 00:10:47 2021.
