 Gaussian 16, Revision A.03,
 Gaussian 16:  ES64L-G16RevA.03 25-Dec-2016

 ----------------------------------------------------------------------
 # wB97XD def2tzvp, opt=(ts, noeigen, calcfc, maxcycles=70, maxstep=5),
  freq=noraman, scrf=(iefpcm, solvent=water)
 ----------------------------------------------------------------------

 ------------------------
 2_iteration/TS-591-2.out
 ------------------------
 Symbolic Z-matrix:
 Charge =  0 Multiplicity = 1

 SCF Done:  E(RwB97XD) =  -3646.75595579     A.U. after   15 cycles
 Optimization completed.
    -- Stationary point found.
 Normal termination of Gaussian 16 at Wed Feb 17 16:41:21 2021.

 ---------------------------------------------------------------------
 #N Geom=AllCheck Guess=TCheck SCRF=Check GenChk RwB97XD/def2TZVP Freq
 ---------------------------------------------------------------------

 Structure from the checkpoint file:  "/beegfs/scratch/user/q/tla25/Gau-12952.chk"
 ------------------------
 2_iteration/TS-591-2.out
 ------------------------
 Charge =  0 Multiplicity = 1

                         Standard orientation:
 ---------------------------------------------------------------------
 Center     Atomic      Atomic             Coordinates (Angstroms)
 Number     Number       Type             X           Y           Z
 ---------------------------------------------------------------------
      1          6           0       -1.228471   -0.220139   -0.339341
      2          6           0        0.138689   -0.721650   -0.289391
      3          8           0        0.405828   -1.919050   -0.297751
      4          6           0       -1.707081    1.074031   -0.163931
      5          6           0       -1.584331    0.684591    2.620209
      6          1           0       -1.154181    0.935871    3.589019
      7          1           0       -2.663921    0.597181    2.718349
      8          1           0       -1.177371   -0.269429    2.285449
      9          7           0       -1.266470    1.697621    1.620379
     10          1           0       -1.743900    2.574641    1.796739
     11          1           0       -0.270890    1.887620    1.602929
     12          6           0       -3.180051    1.378871   -0.178111
     13          1           0       -3.705371    0.779542    0.562309
     14          1           0       -3.352270    2.433791    0.021709
     15          1           0       -3.587761    1.140841   -1.160611
     16         17           0       -0.843420    2.419470   -1.024531
     17         35           0       -2.528442   -1.626169   -0.349181
     18          7           0        1.139679    0.226670   -0.183401
     19          6           0        2.518229   -0.013061   -0.088761
     20          6           0        3.059339   -1.142821    0.523749
     21          6           0        4.435979   -1.280631    0.622109
     22          6           0        5.291289   -0.306242    0.129009
     23          6           0        4.751799    0.823428   -0.469971
     24          6           0        3.379719    0.968569   -0.581741
     25          1           0        0.900149    1.161890   -0.468541
     26          1           0        2.405138   -1.905381    0.915009
     27          1           0        4.841728   -2.164422    1.098969
     28          1           0        6.363849   -0.423772    0.212529
     29          1           0        5.401230    1.597518   -0.859181
     30          1           0        2.967430    1.851709   -1.056191
 ---------------------------------------------------------------------

 SCF Done:  E(RwB97XD) =  -3646.75595579     A.U. after    1 cycles

 The electronic state is 1-A.
 Alpha  occ. eigenvalues -- -483.12227-101.70852 -62.67055 -56.46173 -56.45818
 Alpha  occ. eigenvalues --  -56.45810 -19.21051 -14.49435 -14.46307 -10.41741
 Alpha  occ. eigenvalues --  -10.39560 -10.33721 -10.32114 -10.31584 -10.29711
 Alpha  occ. eigenvalues --  -10.29085 -10.28963 -10.28922 -10.28465 -10.28391
 Alpha  occ. eigenvalues --   -9.59469  -8.81167  -7.34081  -7.33262  -7.33229
 Alpha  occ. eigenvalues --   -6.63319  -6.62185  -6.62161  -2.73707  -2.73378
 Alpha  occ. eigenvalues --   -2.73360  -2.72442  -2.72441  -1.14303  -1.05319
 Alpha  occ. eigenvalues --   -1.04020  -0.98545  -0.95483  -0.91578  -0.85577
 Alpha  occ. eigenvalues --   -0.85257  -0.84999  -0.79991  -0.79456  -0.73171
 Alpha  occ. eigenvalues --   -0.71509  -0.68320  -0.65016  -0.63918  -0.62579
 Alpha  occ. eigenvalues --   -0.59958  -0.58829  -0.57977  -0.55968  -0.54386
 Alpha  occ. eigenvalues --   -0.53412  -0.52371  -0.51862  -0.51532  -0.50645
 Alpha  occ. eigenvalues --   -0.50550  -0.49067  -0.48143  -0.46988  -0.45776
 Alpha  occ. eigenvalues --   -0.45056  -0.44713  -0.43137  -0.41131  -0.40450
 Alpha  occ. eigenvalues --   -0.39524  -0.38452  -0.37090  -0.34661  -0.33461
 Alpha  occ. eigenvalues --   -0.30795  -0.27618
 Alpha virt. eigenvalues --    0.02605   0.04578   0.05359   0.07420   0.09719
 Alpha virt. eigenvalues --    0.10230   0.13130   0.13955   0.14130   0.15157
 Alpha virt. eigenvalues --    0.15614   0.16642   0.17032   0.18046   0.18294

 Mulliken charges:
               1
     1  C   -0.200873
     2  C    0.320569
     3  O   -0.496010
     4  C    0.100075
     5  C   -0.302368
     6  H    0.164318
     7  H    0.163159
     8  H    0.160265
     9  N   -0.318779
    10  H    0.293021
    11  H    0.283874
    12  C   -0.373089
    13  H    0.155269
    14  H    0.156903
    15  H    0.167367
    16  Cl  -0.120274
    17  Br  -0.129938
    18  N   -0.273805
    19  C    0.292319
    20  C   -0.300734
    21  C   -0.093665
    22  C   -0.193203
    23  C   -0.099697
    24  C   -0.294547
    25  H    0.220056
    26  H    0.148722
    27  H    0.142349
    28  H    0.141270
    29  H    0.143575
    30  H    0.143873
 Sum of Mulliken charges =  -0.00000

 Dipole moment (field-independent basis, Debye):
    X=             -2.6438    Y=              9.8094    Z=              5.9260  Tot=             11.7615
 Quadrupole moment (field-independent basis, Debye-Ang):
   XX=           -104.0307   YY=           -113.9485   ZZ=           -107.1488
   XY=             -7.4702   XZ=             -7.5427   YZ=              2.6511

  Exact polarizability: 313.284  -0.462 274.853  -2.188 -13.330 198.132
 Approx polarizability: 233.634   2.723 231.563  -1.067 -12.890 170.769

 ******    1 imaginary frequencies (negative Signs) ******

                      1                      2                      3
                      A                      A                      A
 Frequencies --   -369.4402                23.8583                27.7522
 Red. masses --      5.4733                 3.9563                 4.2460
 Frc consts  --      0.4401                 0.0013                 0.0019
 IR Inten    --    694.7595                 1.1690                 2.3070

                      4                      5                      6
                      A                      A                      A
 Frequencies --     58.9154                61.5899                77.4282
 Red. masses --      4.4574                 3.0559                 5.1253
 Frc consts  --      0.0091                 0.0068                 0.0181
 IR Inten    --      8.8908                 1.1716                 2.2742

                      7                      8                      9
                      A                      A                      A
 Frequencies --     95.2496               127.5619               166.6600
 Red. masses --      8.3844                 3.3799                 8.7138
 Frc consts  --      0.0448                 0.0324                 0.1426
 IR Inten    --      5.1129                13.0522                 1.2433

                     10                     11                     12
                      A                      A                      A
 Frequencies --    187.4898               200.0677               212.4881
 Red. masses --      1.2920                 5.1778                 4.8198
 Frc consts  --      0.0268                 0.1221                 0.1282
 IR Inten    --      0.7076                19.5775                 5.3730

                     13                     14                     15
                      A                      A                      A
 Frequencies --    246.3583               266.1141               276.6938
 Red. masses --      5.3602                 3.6555                 1.5515
 Frc consts  --      0.1917                 0.1525                 0.0700
 IR Inten    --      2.0264                 4.9293                 3.3996

                     16                     17                     18
                      A                      A                      A
 Frequencies --    291.3135               312.6855               324.4268
 Red. masses --      3.8711                 3.2373                 2.8947
 Frc consts  --      0.1936                 0.1865                 0.1795
 IR Inten    --      6.3726                12.5697                19.4337

                     19                     20                     21
                      A                      A                      A
 Frequencies --    371.2168               387.5548               423.3331
 Red. masses --      4.9763                 4.5248                 2.9477
 Frc consts  --      0.4040                 0.4004                 0.3112
 IR Inten    --      9.4425                 6.2174                 0.4071

                     22                     23                     24
                      A                      A                      A
 Frequencies --    466.6300               524.9273               551.1327
 Red. masses --      4.6815                 2.8290                 5.3170
 Frc consts  --      0.6006                 0.4593                 0.9515
 IR Inten    --     37.0352                40.7264                56.4394

                     25                     26                     27
                      A                      A                      A
 Frequencies --    568.5022               597.6044               635.6087
 Red. masses --      5.1560                 1.3072                 6.0210
 Frc consts  --      0.9818                 0.2751                 1.4332
 IR Inten    --     50.8412                90.4990                 6.3128

                     28                     29                     30
                      A                      A                      A
 Frequencies --    668.9171               712.7598               718.4201
 Red. masses --      1.9431                 2.1411                 1.8394
 Frc consts  --      0.5123                 0.6409                 0.5593
 IR Inten    --     91.9808               165.8753                61.5265

                     31                     32                     33
                      A                      A                      A
 Frequencies --    770.8857               775.5763               789.2206
 Red. masses --      4.4517                 5.3987                 2.5566
 Frc consts  --      1.5587                 1.9133                 0.9382
 IR Inten    --     81.9015                27.6305                70.2194

                     34                     35                     36
                      A                      A                      A
 Frequencies --    860.0836               893.1148               936.6410
 Red. masses --      1.2551                 4.4379                 1.5548
 Frc consts  --      0.5470                 2.0857                 0.8037
 IR Inten    --      2.2559                42.8520                 7.0670

                     37                     38                     39
                      A                      A                      A
 Frequencies --    994.8803              1002.1978              1006.5863
 Red. masses --      1.3916                 1.3597                 2.0822
 Frc consts  --      0.8115                 0.8046                 1.2430
 IR Inten    --     16.0556                 0.6486                19.7803

                     40                     41                     42
                      A                      A                      A
 Frequencies --   1018.3395              1022.7841              1045.5074
 Red. masses --      1.3045                 5.5894                 1.1642
 Frc consts  --      0.7970                 3.4450                 0.7498
 IR Inten    --      0.9273                 5.4720                48.2180

                     43                     44                     45
                      A                      A                      A
 Frequencies --   1055.3267              1061.3577              1082.0328
 Red. masses --      1.9582                 2.0221                 3.5991
 Frc consts  --      1.2850                 1.3421                 2.4827
 IR Inten    --    131.2412                13.7271                 4.2700

                     46                     47                     48
                      A                      A                      A
 Frequencies --   1088.1698              1104.9744              1120.5459
 Red. masses --      2.2633                 2.1007                 1.6010
 Frc consts  --      1.5790                 1.5112                 1.1844
 IR Inten    --     14.9031               145.2691                 7.3028

                     49                     50                     51
                      A                      A                      A
 Frequencies --   1181.8504              1206.7307              1229.0943
 Red. masses --      1.1234                 1.1300                 1.4195
 Frc consts  --      0.9245                 0.9695                 1.2635
 IR Inten    --      1.6680                13.3192                44.9256

                     52                     53                     54
                      A                      A                      A
 Frequencies --   1266.9939              1283.9297              1340.3609
 Red. masses --      3.0254                 3.7477                 3.3964
 Frc consts  --      2.8614                 3.6400                 3.5951
 IR Inten    --    557.7294                20.0914               357.7099

                     55                     56                     57
                      A                      A                      A
 Frequencies --   1347.3020              1360.2273              1418.6920
 Red. masses --      1.4147                 1.5716                 1.5896
 Frc consts  --      1.5130                 1.7133                 1.8850
 IR Inten    --     42.9578                 8.8295               253.2167

                     58                     59                     60
                      A                      A                      A
 Frequencies --   1433.4086              1461.1053              1475.7191
 Red. masses --      2.1757                 1.2297                 1.0583
 Frc consts  --      2.6339                 1.5468                 1.3579
 IR Inten    --    451.7636                42.5080                 6.8477

                     61                     62                     63
                      A                      A                      A
 Frequencies --   1481.5576              1491.6701              1493.9278
 Red. masses --      2.0817                 1.1094                 1.0925
 Frc consts  --      2.6922                 1.4544                 1.4366
 IR Inten    --    186.6111                20.8893                50.4378

                     64                     65                     66
                      A                      A                      A
 Frequencies --   1504.9017              1545.8766              1573.3124
 Red. masses --      1.0346                 2.4584                 1.9219
 Frc consts  --      1.3804                 3.4614                 2.8030
 IR Inten    --     15.0719               228.1858               464.9342

                     67                     68                     69
                      A                      A                      A
 Frequencies --   1640.5440              1662.6417              1672.2926
 Red. masses --      1.0949                 6.0215                 4.5841
 Frc consts  --      1.7362                 9.8074                 7.5532
 IR Inten    --     84.9568               123.2661                73.4050

                     70                     71                     72
                      A                      A                      A
 Frequencies --   1687.9370              3074.2418              3081.3366
 Red. masses --      6.5954                 1.0332                 1.0361
 Frc consts  --     11.0714                 5.7529                 5.7958
 IR Inten    --    675.6736                25.3759                 5.9179

                     73                     74                     75
                      A                      A                      A
 Frequencies --   3151.2967              3160.4039              3173.7444
 Red. masses --      1.1049                 1.1019                 1.1053
 Frc consts  --      6.4648                 6.4846                 6.5598
 IR Inten    --      8.5508                 7.4544                14.2475

                     76                     77                     78
                      A                      A                      A
 Frequencies --   3177.0283              3188.5012              3197.7391
 Red. masses --      1.1043                 1.0879                 1.0883
 Frc consts  --      6.5669                 6.5165                 6.5565
 IR Inten    --     10.3385                11.9568                 1.7742

                     79                     80                     81
                      A                      A                      A
 Frequencies --   3207.0444              3221.4541              3254.4576
 Red. masses --      1.0932                 1.0979                 1.0935
 Frc consts  --      6.6248                 6.7130                 6.8235
 IR Inten    --     29.8221                23.1067                 1.5481

                     82                     83                     84
                      A                      A                      A
 Frequencies --   3525.3475              3606.5126              3615.5758
 Red. masses --      1.0506                 1.0961                 1.0765
 Frc consts  --      7.6933                 8.4000                 8.2915
 IR Inten    --     50.8893                71.4016               196.4104

 - Thermochemistry -
 -------------------
 Temperature   298.150 Kelvin.  Pressure   1.00000 Atm.
 Atom     1 has atomic number  6 and mass  12.00000

 Molecular mass:   303.99780 amu.
 Principal axes and moments of inertia in atomic units:
                           1         2         3
     Eigenvalues --  3112.810508314.026989842.91170
           X            0.99915  -0.03942  -0.01190
           Y            0.03949   0.99921   0.00514
           Z            0.01169  -0.00560   0.99992
 This molecule is an asymmetric top.
 Rotational symmetry number  1.
 Warning -- assumption of classical behavior for rotation
           may cause significant error
 Rotational temperatures (Kelvin)      0.02782     0.01042     0.00880
 Rotational constants (GHZ):           0.57978     0.21707     0.18335
    1 imaginary frequencies ignored.
 Zero-point vibrational energy     625684.3 (Joules/Mol)
                                  149.54213 (Kcal/Mol)
 Warning -- explicit consideration of  25 degrees of freedom as
           vibrations may cause significant error
 Vibrational temperatures:     34.33    39.93    84.77    88.61   111.40
          (Kelvin)            137.04   183.53   239.79   269.76   287.85
                              305.72   354.45   382.88   398.10   419.14
                              449.88   466.78   534.10   557.60   609.08
                              671.38   755.25   792.96   817.95   859.82
                              914.50   962.42  1025.50  1033.65  1109.13
                             1115.88  1135.51  1237.47  1284.99  1347.62
                             1431.41  1441.94  1448.25  1465.16  1471.56
                             1504.25  1518.38  1527.06  1556.80  1565.63
                             1589.81  1612.22  1700.42  1736.22  1768.39
                             1822.92  1847.29  1928.48  1938.47  1957.06
                             2041.18  2062.36  2102.20  2123.23  2131.63
                             2146.18  2149.43  2165.22  2224.17  2263.65
                             2360.38  2392.17  2406.06  2428.56  4423.15
                             4433.36  4534.01  4547.12  4566.31  4571.04
                             4587.54  4600.83  4614.22  4634.95  4682.44
                             5072.19  5188.97  5202.01

 Zero-point correction=                           0.238311 (Hartree/Particle)
 Thermal correction to Energy=                    0.255043
 Thermal correction to Enthalpy=                  0.255987
 Thermal correction to Gibbs Free Energy=         0.191343
 Sum of electronic and zero-point Energies=          -3646.517645
 Sum of electronic and thermal Energies=             -3646.500913
 Sum of electronic and thermal Enthalpies=           -3646.499969
 Sum of electronic and thermal Free Energies=        -3646.564613

                     E (Thermal)             CV                S
                      KCal/Mol        Cal/Mol-Kelvin    Cal/Mol-Kelvin
 Total                  160.042             60.761            136.056
 Electronic               0.000              0.000              0.000
 Translational            0.889              2.981             43.032
 Rotational               0.889              2.981             33.898
 Vibrational            158.264             54.799             59.125
 Vibration     1          0.593              1.985              6.284
 Vibration     2          0.593              1.984              5.984
 Vibration     3          0.596              1.974              4.493
 Vibration     4          0.597              1.973              4.406
 Vibration     5          0.599              1.964              3.955
 Vibration     6          0.603              1.953              3.549
 Vibration     7          0.611              1.926              2.982
 Vibration     8          0.624              1.883              2.473
 Vibration     9          0.632              1.857              2.253
 Vibration    10          0.638              1.840              2.132
 Vibration    11          0.644              1.822              2.022
 Vibration    12          0.661              1.769              1.756
 Vibration    13          0.672              1.735              1.621
 Vibration    14          0.678              1.717              1.554
 Vibration    15          0.687              1.690              1.466
 Vibration    16          0.701              1.649              1.348
 Vibration    17          0.709              1.627              1.288
 Vibration    18          0.743              1.531              1.075
 Vibration    19          0.756              1.497              1.010
 Vibration    20          0.785              1.419              0.881
 Vibration    21          0.824              1.324              0.747
 Vibration    22          0.880              1.195              0.599
 Vibration    23          0.906              1.137              0.542
 Vibration    24          0.925              1.099              0.507
 Vibration    25          0.956              1.037              0.454

 Optimization completed.
    -- Stationary point found.
 Normal termination of Gaussian 16 at Wed Feb 17 17:46:20 2021.
