 Gaussian 16, Revision A.03,
 Gaussian 16:  ES64L-G16RevA.03 25-Dec-2016

 ----------------------------------------------------------------------
 # wB97XD def2tzvp, opt=(ts, noeigen, calcfc, maxcycles=70, maxstep=1),
  freq=noraman, scrf=(iefpcm, solvent=water)
 ----------------------------------------------------------------------

 ------------------------
 0_iteration/TS-590-0.out
 ------------------------
 Symbolic Z-matrix:
 Charge =  0 Multiplicity = 1

 SCF Done:  E(RwB97XD) =  -3494.32230893     A.U. after   15 cycles
 SCF Done:  E(RwB97XD) =  -3494.32227324     A.U. after   10 cycles
 SCF Done:  E(RwB97XD) =  -3494.32224037     A.U. after   10 cycles
 SCF Done:  E(RwB97XD) =  -3494.32221119     A.U. after   10 cycles
 SCF Done:  E(RwB97XD) =  -3494.32218556     A.U. after   10 cycles
 SCF Done:  E(RwB97XD) =  -3494.32216310     A.U. after   10 cycles
 SCF Done:  E(RwB97XD) =  -3494.32214346     A.U. after   10 cycles
 SCF Done:  E(RwB97XD) =  -3494.32212648     A.U. after   10 cycles
 SCF Done:  E(RwB97XD) =  -3494.32211230     A.U. after   10 cycles
 SCF Done:  E(RwB97XD) =  -3494.32210128     A.U. after   10 cycles
 SCF Done:  E(RwB97XD) =  -3494.32374654     A.U. after   10 cycles
 SCF Done:  E(RwB97XD) =  -3494.32380929     A.U. after   10 cycles
 SCF Done:  E(RwB97XD) =  -3494.32386312     A.U. after   10 cycles
 SCF Done:  E(RwB97XD) =  -3494.32390675     A.U. after    9 cycles
 SCF Done:  E(RwB97XD) =  -3494.32393969     A.U. after    9 cycles
 SCF Done:  E(RwB97XD) =  -3494.32396307     A.U. after    9 cycles
 SCF Done:  E(RwB97XD) =  -3494.32397633     A.U. after    9 cycles
 SCF Done:  E(RwB97XD) =  -3494.32397897     A.U. after    9 cycles
 SCF Done:  E(RwB97XD) =  -3494.32397901     A.U. after    7 cycles
 Optimization completed.
    -- Stationary point found.
 Normal termination of Gaussian 16 at Tue Feb 16 12:40:56 2021.

 ---------------------------------------------------------------------
 #N Geom=AllCheck Guess=TCheck SCRF=Check GenChk RwB97XD/def2TZVP Freq
 ---------------------------------------------------------------------

 Structure from the checkpoint file:  "/beegfs/scratch/user/q/tla25/Gau-34828.chk"
 ------------------------
 0_iteration/TS-590-0.out
 ------------------------
 Charge =  0 Multiplicity = 1

                         Standard orientation:
 ---------------------------------------------------------------------
 Center     Atomic      Atomic             Coordinates (Angstroms)
 Number     Number       Type             X           Y           Z
 ---------------------------------------------------------------------
      1          6           0        0.002040    0.108401   -0.243053
      2          6           0       -0.912321   -0.890475    0.315512
      3          8           0       -0.475296   -1.819869    1.016061
      4          6           0        1.326737   -0.190929   -0.518294
      5          6           0        2.277233    0.202748    2.131407
      6          1           0        1.322079    0.725780    2.180769
      7          1           0        2.487425   -0.235727    3.107867
      8          1           0        3.061828    0.916298    1.887159
      9          7           0        2.190085   -0.815404    1.094302
     10          1           0        3.077796   -1.266095    0.908938
     11          1           0        1.478364   -1.510547    1.321217
     12          6           0        2.306288    0.841679   -0.992689
     13          1           0        2.342932    1.680809   -0.300638
     14          1           0        3.299927    0.408696   -1.083213
     15          1           0        1.997124    1.216633   -1.968965
     16         17           0        1.570006   -1.740896   -1.416513
     17         35           0       -0.475149    1.954710   -0.005716
     18          7           0       -2.243903   -0.777894    0.087024
     19          6           0       -2.814653   -0.083124   -1.048290
     20          6           0       -3.159009   -1.621392    0.826101
     21          1           0       -3.397395    0.786777   -0.736044
     22          1           0       -2.030332    0.239506   -1.727058
     23          1           0       -3.475018   -0.767125   -1.587312
     24          1           0       -3.349777   -2.564809    0.304583
     25          1           0       -2.747199   -1.844918    1.806505
     26          1           0       -4.106433   -1.094312    0.945055
 ---------------------------------------------------------------------

 SCF Done:  E(RwB97XD) =  -3494.32397901     A.U. after    1 cycles

 The electronic state is 1-A.
 Alpha  occ. eigenvalues -- -483.12360-101.69227 -62.67176 -56.46290 -56.45944
 Alpha  occ. eigenvalues --  -56.45935 -19.21112 -14.47232 -14.46036 -10.40161
 Alpha  occ. eigenvalues --  -10.38611 -10.31380 -10.30826 -10.30548 -10.30349
 Alpha  occ. eigenvalues --  -10.29053  -9.57825  -8.81277  -7.32451  -7.31610
 Alpha  occ. eigenvalues --   -7.31585  -6.63410  -6.62306  -6.62280  -2.73800
 Alpha  occ. eigenvalues --   -2.73482  -2.73461  -2.72568  -2.72568  -1.13788
 Alpha  occ. eigenvalues --   -1.03758  -1.03144  -0.97126  -0.90851  -0.84697
 Alpha  occ. eigenvalues --   -0.82186  -0.80782  -0.78567  -0.77543  -0.67422
 Alpha  occ. eigenvalues --   -0.63001  -0.61483  -0.58915  -0.57650  -0.56699
 Alpha  occ. eigenvalues --   -0.56099  -0.54812  -0.52588  -0.51853  -0.49780
 Alpha  occ. eigenvalues --   -0.48691  -0.48629  -0.47918  -0.47350  -0.46721
 Alpha  occ. eigenvalues --   -0.45984  -0.45059  -0.43977  -0.39788  -0.39339
 Alpha  occ. eigenvalues --   -0.38325  -0.37285  -0.34650  -0.32119  -0.26837
 Alpha virt. eigenvalues --    0.03747   0.07485   0.09358   0.10456   0.12360
 Alpha virt. eigenvalues --    0.14561   0.15088   0.15456   0.16590   0.17117
 Alpha virt. eigenvalues --    0.17886   0.18105   0.18917   0.19776   0.20010

 Mulliken charges:
               1
     1  C   -0.354935
     2  C    0.361808
     3  O   -0.560137
     4  C    0.211261
     5  C   -0.309995
     6  H    0.151708
     7  H    0.153690
     8  H    0.156974
     9  N   -0.321545
    10  H    0.276850
    11  H    0.275569
    12  C   -0.380826
    13  H    0.153098
    14  H    0.154067
    15  H    0.160435
    16  Cl  -0.143836
    17  Br  -0.148546
    18  N   -0.107946
    19  C   -0.299887
    20  C   -0.291612
    21  H    0.143837
    22  H    0.160910
    23  H    0.140787
    24  H    0.136863
    25  H    0.140291
    26  H    0.141117
 Sum of Mulliken charges =  -0.00000

 Dipole moment (field-independent basis, Debye):
    X=              2.7721    Y=              1.1921    Z=              1.3608  Tot=              3.3102
 Quadrupole moment (field-independent basis, Debye-Ang):
   XX=            -68.7771   YY=           -101.0614   ZZ=            -90.9950
   XY=              1.8971   XZ=              8.0400   YZ=             -0.5570

  Exact polarizability: 225.673 -10.569 195.444   9.982  -0.233 169.328
 Approx polarizability: 171.037 -10.455 164.176   7.023  -1.239 143.764

 ******    1 imaginary frequencies (negative Signs) ******

                      1                      2                      3
                      A                      A                      A
 Frequencies --   -391.1650                53.0302                77.9731
 Red. masses --      5.6618                 4.0753                 4.5192
 Frc consts  --      0.5104                 0.0068                 0.0162
 IR Inten    --    792.6582                 4.8299                 5.0259

                      4                      5                      6
                      A                      A                      A
 Frequencies --     88.1227                94.3353               128.2761
 Red. masses --      3.1049                 3.2156                 1.4866
 Frc consts  --      0.0142                 0.0169                 0.0144
 IR Inten    --      1.1646                 1.7600                 0.8086

                      7                      8                      9
                      A                      A                      A
 Frequencies --    150.4622               159.3770               173.4142
 Red. masses --      3.5140                 1.6925                 2.7030
 Frc consts  --      0.0469                 0.0253                 0.0479
 IR Inten    --     28.3699                 1.6616                 2.8476

                     10                     11                     12
                      A                      A                      A
 Frequencies --    176.1198               202.0330               208.4734
 Red. masses --      3.3798                 1.7990                 1.7137
 Frc consts  --      0.0618                 0.0433                 0.0439
 IR Inten    --      3.8755                 2.7433                 0.3493

                     13                     14                     15
                      A                      A                      A
 Frequencies --    240.8824               255.2889               274.2180
 Red. masses --      2.4216                 3.5817                 2.1460
 Frc consts  --      0.0828                 0.1375                 0.0951
 IR Inten    --     12.5594                 3.4158                21.4962

                     16                     17                     18
                      A                      A                      A
 Frequencies --    291.9390               311.7401               335.7109
 Red. masses --      1.4701                 3.2478                 3.0627
 Frc consts  --      0.0738                 0.1860                 0.2034
 IR Inten    --     13.5215                36.6675                 5.4604

                     19                     20                     21
                      A                      A                      A
 Frequencies --    361.1646               406.2722               433.4037
 Red. masses --      3.2457                 3.2942                 3.9638
 Frc consts  --      0.2494                 0.3204                 0.4387
 IR Inten    --     20.2951                12.0407                11.3020

                     22                     23                     24
                      A                      A                      A
 Frequencies --    503.5347               512.0337               658.7389
 Red. masses --      6.0429                 3.7278                 2.2557
 Frc consts  --      0.9027                 0.5758                 0.5767
 IR Inten    --    102.6730                39.8342                84.2167

                     25                     26                     27
                      A                      A                      A
 Frequencies --    670.5987               747.6966               778.2936
 Red. masses --      5.7570                 1.9379                 7.2599
 Frc consts  --      1.5253                 0.6383                 2.5910
 IR Inten    --     22.4312               162.2115                35.1092

                     28                     29                     30
                      A                      A                      A
 Frequencies --    889.9531               998.4085              1017.3739
 Red. masses --      5.4484                 1.1005                 2.1977
 Frc consts  --      2.5424                 0.6463                 1.3402
 IR Inten    --     38.0732                45.3361                43.3812

                     31                     32                     33
                      A                      A                      A
 Frequencies --   1049.7387              1063.8105              1081.2321
 Red. masses --      2.0719                 1.4257                 1.3415
 Frc consts  --      1.3452                 0.9506                 0.9240
 IR Inten    --     58.1592                37.7527               163.5882

                     34                     35                     36
                      A                      A                      A
 Frequencies --   1088.9277              1089.8154              1132.8090
 Red. masses --      2.7131                 1.6155                 1.2341
 Frc consts  --      1.8955                 1.1305                 0.9331
 IR Inten    --     19.7640                13.2691                 2.1706

                     37                     38                     39
                      A                      A                      A
 Frequencies --   1139.4684              1170.5652              1215.3795
 Red. masses --      2.4303                 1.4009                 1.4596
 Frc consts  --      1.8591                 1.1310                 1.2703
 IR Inten    --     80.0613                 7.8566               100.6495

                     40                     41                     42
                      A                      A                      A
 Frequencies --   1225.5240              1316.3912              1357.9589
 Red. masses --      2.7693                 5.2400                 1.2961
 Frc consts  --      2.4506                 5.3500                 1.4082
 IR Inten    --    175.2555                43.3587                13.7248

                     43                     44                     45
                      A                      A                      A
 Frequencies --   1414.8685              1432.8821              1445.7228
 Red. masses --      1.3947                 1.8197                 1.3036
 Frc consts  --      1.6450                 2.2013                 1.6053
 IR Inten    --    200.4776               508.2325               120.8441

                     46                     47                     48
                      A                      A                      A
 Frequencies --   1449.3706              1463.0531              1473.8786
 Red. masses --      1.6846                 1.3018                 1.1880
 Frc consts  --      2.0849                 1.6417                 1.5205
 IR Inten    --     48.4125                66.3247                54.2486

                     49                     50                     51
                      A                      A                      A
 Frequencies --   1481.9026              1483.7884              1488.9265
 Red. masses --      1.0542                 1.0816                 1.1688
 Frc consts  --      1.3640                 1.4030                 1.5266
 IR Inten    --     30.5751                 8.0567                62.8112

                     52                     53                     54
                      A                      A                      A
 Frequencies --   1493.6751              1499.2104              1501.0213
 Red. masses --      1.0540                 1.1930                 1.0626
 Frc consts  --      1.3854                 1.5798                 1.4106
 IR Inten    --     30.6539                33.9252                25.2558

                     55                     56                     57
                      A                      A                      A
 Frequencies --   1510.6621              1535.6372              1614.6212
 Red. masses --      1.0349                 1.7059                 2.5537
 Frc consts  --      1.3915                 2.3701                 3.9225
 IR Inten    --      8.1469               192.8460               684.6065

                     58                     59                     60
                      A                      A                      A
 Frequencies --   1649.7518              3034.8265              3042.8965
 Red. masses --      1.4623                 1.0435                 1.0386
 Frc consts  --      2.3450                 5.6628                 5.6659
 IR Inten    --    103.5992                75.2331               104.5081

                     61                     62                     63
                      A                      A                      A
 Frequencies --   3063.0203              3077.2974              3098.4707
 Red. masses --      1.0342                 1.0365                 1.1031
 Frc consts  --      5.7167                 5.7830                 6.2394
 IR Inten    --     46.0801                 7.2315                62.9008

                     64                     65                     66
                      A                      A                      A
 Frequencies --   3108.9818              3136.7092              3155.1866
 Red. masses --      1.0964                 1.1035                 1.1013
 Frc consts  --      6.2439                 6.3970                 6.4595
 IR Inten    --     22.1260                16.4371                 8.4027

                     67                     68                     69
                      A                      A                      A
 Frequencies --   3161.6065              3172.1113              3173.3501
 Red. masses --      1.1051                 1.1006                 1.1038
 Frc consts  --      6.5084                 6.5251                 6.5491
 IR Inten    --     22.5361                11.8770                12.2849

                     70                     71                     72
                      A                      A                      A
 Frequencies --   3176.2779              3426.4637              3587.4398
 Red. masses --      1.0987                 1.0612                 1.0882
 Frc consts  --      6.5310                 7.3411                 8.2513
 IR Inten    --     11.6459               134.0244               100.6528

 - Thermochemistry -
 -------------------
 Temperature   298.150 Kelvin.  Pressure   1.00000 Atm.
 Atom     1 has atomic number  6 and mass  12.00000

 Molecular mass:   255.99780 amu.
 Principal axes and moments of inertia in atomic units:
                           1         2         3
     Eigenvalues --  2771.060533460.167434577.11969
           X            0.98381   0.17647   0.03117
           Y           -0.17545   0.98394  -0.03298
           Z           -0.03649   0.02698   0.99897
 This molecule is an asymmetric top.
 Rotational symmetry number  1.
 Warning -- assumption of classical behavior for rotation
           may cause significant error
 Rotational temperatures (Kelvin)      0.03126     0.02503     0.01892
 Rotational constants (GHZ):           0.65128     0.52158     0.39430
    1 imaginary frequencies ignored.
 Zero-point vibrational energy     559159.1 (Joules/Mol)
                                  133.64223 (Kcal/Mol)
 Warning -- explicit consideration of  22 degrees of freedom as
           vibrations may cause significant error
 Vibrational temperatures:     76.30   112.19   126.79   135.73   184.56
          (Kelvin)            216.48   229.31   249.50   253.40   290.68
                              299.95   346.58   367.30   394.54   420.04
                              448.52   483.01   519.64   584.54   623.57
                              724.47   736.70   947.78   964.84  1075.77
                             1119.79  1280.44  1436.49  1463.77  1510.34
                             1530.59  1555.65  1566.72  1568.00  1629.86
                             1639.44  1684.18  1748.66  1763.26  1893.99
                             1953.80  2035.68  2061.60  2080.07  2085.32
                             2105.01  2120.58  2132.13  2134.84  2142.23
                             2149.07  2157.03  2159.63  2173.51  2209.44
                             2323.08  2373.62  4366.44  4378.05  4407.00
                             4427.54  4458.01  4473.13  4513.02  4539.61
                             4548.85  4563.96  4565.74  4569.96  4929.92
                             5161.53

 Zero-point correction=                           0.212972 (Hartree/Particle)
 Thermal correction to Energy=                    0.228082
 Thermal correction to Enthalpy=                  0.229026
 Thermal correction to Gibbs Free Energy=         0.170425
 Sum of electronic and zero-point Energies=          -3494.111007
 Sum of electronic and thermal Energies=             -3494.095897
 Sum of electronic and thermal Enthalpies=           -3494.094953
 Sum of electronic and thermal Free Energies=        -3494.153554

                     E (Thermal)             CV                S
                      KCal/Mol        Cal/Mol-Kelvin    Cal/Mol-Kelvin
 Total                  143.123             52.613            123.336
 Electronic               0.000              0.000              0.000
 Translational            0.889              2.981             42.520
 Rotational               0.889              2.981             32.151
 Vibrational            141.346             46.651             48.665
 Vibration     1          0.596              1.976              4.701
 Vibration     2          0.599              1.964              3.941
 Vibration     3          0.601              1.958              3.701
 Vibration     4          0.603              1.953              3.568
 Vibration     5          0.611              1.925              2.972
 Vibration     6          0.618              1.902              2.666
 Vibration     7          0.621              1.892              2.557
 Vibration     8          0.627              1.875              2.398
 Vibration     9          0.628              1.872              2.369
 Vibration    10          0.639              1.837              2.115
 Vibration    11          0.642              1.828              2.057
 Vibration    12          0.658              1.778              1.796
 Vibration    13          0.666              1.754              1.694
 Vibration    14          0.677              1.721              1.569
 Vibration    15          0.687              1.689              1.463
 Vibration    16          0.700              1.651              1.353
 Vibration    17          0.717              1.604              1.232
 Vibration    18          0.735              1.552              1.117
 Vibration    19          0.771              1.457              0.940
 Vibration    20          0.794              1.397              0.848
 Vibration    21          0.859              1.242              0.649
 Vibration    22          0.867              1.223              0.629

 Optimization completed.
    -- Stationary point found.
 Normal termination of Gaussian 16 at Tue Feb 16 13:16:21 2021.
