 Gaussian 16, Revision A.03,
 Gaussian 16:  ES64L-G16RevA.03 25-Dec-2016

 ----------------------------------------------------------------------
 # wB97XD def2tzvp, opt=(ts, noeigen, calcfc, maxcycles=70, maxstep=8),
  freq=noraman, scrf=(iefpcm, solvent=water)
 ----------------------------------------------------------------------

 ------------------------
 1_iteration/TS-559-1.out
 ------------------------
 Symbolic Z-matrix:
 Charge =  0 Multiplicity = 1

 SCF Done:  E(RwB97XD) =  -3646.74698320     A.U. after   15 cycles
 SCF Done:  E(RwB97XD) =  -3646.74843444     A.U. after   13 cycles
 SCF Done:  E(RwB97XD) =  -3646.74987787     A.U. after   13 cycles
 SCF Done:  E(RwB97XD) =  -3646.75119325     A.U. after   13 cycles
 SCF Done:  E(RwB97XD) =  -3646.75263699     A.U. after   13 cycles
 SCF Done:  E(RwB97XD) =  -3646.75313171     A.U. after   13 cycles
 SCF Done:  E(RwB97XD) =  -3646.75294855     A.U. after   13 cycles
 SCF Done:  E(RwB97XD) =  -3646.75307484     A.U. after   13 cycles
 SCF Done:  E(RwB97XD) =  -3646.75326436     A.U. after   12 cycles
 SCF Done:  E(RwB97XD) =  -3646.75324193     A.U. after   12 cycles
 SCF Done:  E(RwB97XD) =  -3646.75312131     A.U. after   12 cycles
 SCF Done:  E(RwB97XD) =  -3646.75316551     A.U. after   12 cycles
 SCF Done:  E(RwB97XD) =  -3646.75333743     A.U. after   12 cycles
 SCF Done:  E(RwB97XD) =  -3646.75334550     A.U. after   10 cycles
 SCF Done:  E(RwB97XD) =  -3646.75334712     A.U. after    9 cycles
 SCF Done:  E(RwB97XD) =  -3646.75334735     A.U. after   10 cycles
 SCF Done:  E(RwB97XD) =  -3646.75334763     A.U. after    8 cycles
 SCF Done:  E(RwB97XD) =  -3646.75334758     A.U. after    7 cycles
 SCF Done:  E(RwB97XD) =  -3646.75334759     A.U. after    6 cycles
 Optimization completed.
    -- Stationary point found.
 Normal termination of Gaussian 16 at Tue Feb 16 23:32:21 2021.

 ---------------------------------------------------------------------
 #N Geom=AllCheck Guess=TCheck SCRF=Check GenChk RwB97XD/def2TZVP Freq
 ---------------------------------------------------------------------

 Structure from the checkpoint file:  "/beegfs/scratch/user/q/tla25/Gau-15873.chk"
 ------------------------
 1_iteration/TS-559-1.out
 ------------------------
 Charge =  0 Multiplicity = 1

                         Standard orientation:
 ---------------------------------------------------------------------
 Center     Atomic      Atomic             Coordinates (Angstroms)
 Number     Number       Type             X           Y           Z
 ---------------------------------------------------------------------
      1          6           0       -1.250484   -0.915851   -0.490093
      2          6           0        0.193937   -1.118637   -0.512949
      3          8           0        0.700259   -2.186085   -0.840573
      4          6           0       -2.003207    0.134949    0.010215
      5          6           0       -1.773978   -0.965821    2.594115
      6          1           0       -1.222992   -1.700335    2.005843
      7          1           0       -1.356980   -0.930730    3.599961
      8          1           0       -2.818433   -1.263382    2.649178
      9          7           0       -1.668807    0.327422    1.928819
     10          1           0       -2.304815    1.015489    2.316423
     11          1           0       -0.728272    0.697537    2.005184
     12          6           0       -3.505427    0.072288    0.022463
     13          1           0       -3.844689   -0.832676    0.522870
     14          1           0       -3.926053    0.940971    0.522886
     15          1           0       -3.874709    0.050461   -1.003053
     16         35           0       -1.473908    1.991644   -0.458367
     17         17           0       -2.141666   -2.370710   -0.928292
     18          7           0        0.974210   -0.057759   -0.095752
     19          6           0        2.375200   -0.023201   -0.027737
     20          6           0        3.154560   -1.142021    0.262730
     21          6           0        4.532368   -1.015073    0.359714
     22          6           0        5.153363    0.212460    0.182148
     23          6           0        4.375487    1.327930   -0.094788
     24          6           0        3.000242    1.212499   -0.202372
     25          1           0        0.541441    0.851556   -0.116427
     26          1           0        2.683389   -2.100893    0.407501
     27          1           0        5.125450   -1.893120    0.584077
     28          1           0        6.229138    0.299876    0.261246
     29          1           0        4.839848    2.296091   -0.234197
     30          1           0        2.400545    2.087597   -0.425226
 ---------------------------------------------------------------------

 SCF Done:  E(RwB97XD) =  -3646.75334759     A.U. after    1 cycles

 The electronic state is 1-A.
 Alpha  occ. eigenvalues -- -483.13996-101.68839 -62.68842 -56.47949 -56.47610
 Alpha  occ. eigenvalues --  -56.47597 -19.21145 -14.49321 -14.46431 -10.41099
 Alpha  occ. eigenvalues --  -10.39593 -10.33756 -10.32128 -10.32091 -10.29714
 Alpha  occ. eigenvalues --  -10.29113 -10.28990 -10.28963 -10.28511 -10.28429
 Alpha  occ. eigenvalues --   -9.57361  -8.82941  -7.32011  -7.31139  -7.31127
 Alpha  occ. eigenvalues --   -6.65056  -6.63984  -6.63946  -2.75441  -2.75147
 Alpha  occ. eigenvalues --   -2.75116  -2.74250  -2.74248  -1.14439  -1.04937
 Alpha  occ. eigenvalues --   -1.04109  -0.97706  -0.95523  -0.92162  -0.85577
 Alpha  occ. eigenvalues --   -0.85239  -0.84800  -0.80350  -0.79372  -0.73216
 Alpha  occ. eigenvalues --   -0.71549  -0.68390  -0.65039  -0.63882  -0.62632
 Alpha  occ. eigenvalues --   -0.59616  -0.58306  -0.57990  -0.55725  -0.54359
 Alpha  occ. eigenvalues --   -0.53582  -0.52363  -0.51979  -0.51674  -0.50628
 Alpha  occ. eigenvalues --   -0.50528  -0.49161  -0.48513  -0.47094  -0.45223
 Alpha  occ. eigenvalues --   -0.44810  -0.43806  -0.43144  -0.42278  -0.39996
 Alpha  occ. eigenvalues --   -0.38951  -0.38069  -0.37908  -0.35060  -0.33560
 Alpha  occ. eigenvalues --   -0.30851  -0.27630
 Alpha virt. eigenvalues --    0.01862   0.03607   0.05329   0.07147   0.09774
 Alpha virt. eigenvalues --    0.11655   0.13155   0.14017   0.14178   0.14992
 Alpha virt. eigenvalues --    0.15595   0.16598   0.16985   0.17982   0.18362

 Mulliken charges:
               1
     1  C   -0.145856
     2  C    0.313253
     3  O   -0.493052
     4  C    0.080578
     5  C   -0.299321
     6  H    0.159139
     7  H    0.163132
     8  H    0.163347
     9  N   -0.324938
    10  H    0.293835
    11  H    0.283964
    12  C   -0.381765
    13  H    0.155502
    14  H    0.157077
    15  H    0.168485
    16  Br  -0.115092
    17  Cl  -0.156659
    18  N   -0.274341
    19  C    0.288872
    20  C   -0.299677
    21  C   -0.093807
    22  C   -0.190720
    23  C   -0.104552
    24  C   -0.288450
    25  H    0.218138
    26  H    0.149215
    27  H    0.142591
    28  H    0.141440
    29  H    0.143647
    30  H    0.146015
 Sum of Mulliken charges =  -0.00000

 Dipole moment (field-independent basis, Debye):
    X=             -4.4933    Y=              6.6970    Z=              8.1560  Tot=             11.4700
 Quadrupole moment (field-independent basis, Debye-Ang):
   XX=           -100.2117   YY=           -123.7210   ZZ=           -107.7352
   XY=              0.1576   XZ=             -9.5609   YZ=             -6.7394

  Exact polarizability: 310.688   0.604 283.785  -1.853   2.264 197.204
 Approx polarizability: 232.079   0.372 238.328  -0.031   2.712 169.269

 ******    1 imaginary frequencies (negative Signs) ******

                      1                      2                      3
                      A                      A                      A
 Frequencies --   -379.0017                26.0774                29.9168
 Red. masses --      5.4588                 4.1233                 4.5000
 Frc consts  --      0.4620                 0.0017                 0.0024
 IR Inten    --    648.0494                 1.1838                 3.7134

                      4                      5                      6
                      A                      A                      A
 Frequencies --     58.4579                73.3744                83.8650
 Red. masses --      8.1435                 4.1314                 2.9588
 Frc consts  --      0.0164                 0.0131                 0.0123
 IR Inten    --      5.4354                 0.6613                 8.6135

                      7                      8                      9
                      A                      A                      A
 Frequencies --     87.6725               124.8253               161.6708
 Red. masses --      9.0228                 2.8086                 6.6785
 Frc consts  --      0.0409                 0.0258                 0.1028
 IR Inten    --      5.8802                 5.6958                 7.6731

                     10                     11                     12
                      A                      A                      A
 Frequencies --    170.8678               178.5405               229.5133
 Red. masses --      7.0271                 1.1742                 7.0693
 Frc consts  --      0.1209                 0.0221                 0.2194
 IR Inten    --      9.1832                 1.1625                 7.6252

                     13                     14                     15
                      A                      A                      A
 Frequencies --    252.2619               267.3091               276.6252
 Red. masses --      3.8603                 2.9315                 2.0947
 Frc consts  --      0.1447                 0.1234                 0.0944
 IR Inten    --      5.4003                 7.6133                 3.2765

                     16                     17                     18
                      A                      A                      A
 Frequencies --    285.0137               308.6432               329.7791
 Red. masses --      3.8141                 8.3307                 1.8532
 Frc consts  --      0.1825                 0.4676                 0.1187
 IR Inten    --      7.5726                13.0163                 1.9945

                     19                     20                     21
                      A                      A                      A
 Frequencies --    349.1815               381.4264               423.9536
 Red. masses --      3.0824                 6.1603                 2.9630
 Frc consts  --      0.2214                 0.5280                 0.3138
 IR Inten    --     13.6643                 8.2976                 0.4885

                     22                     23                     24
                      A                      A                      A
 Frequencies --    459.0079               523.5925               543.1095
 Red. masses --      4.5184                 2.5619                 4.8731
 Frc consts  --      0.5609                 0.4138                 0.8469
 IR Inten    --     22.4778                55.7518                37.2464

                     25                     26                     27
                      A                      A                      A
 Frequencies --    557.3841               587.8399               634.7785
 Red. masses --      1.4761                 4.1888                 5.0653
 Frc consts  --      0.2702                 0.8528                 1.2025
 IR Inten    --    110.5367                33.8525                12.9540

                     28                     29                     30
                      A                      A                      A
 Frequencies --    645.9743               698.6264               719.2192
 Red. masses --      1.8736                 2.5285                 1.8589
 Frc consts  --      0.4606                 0.7271                 0.5665
 IR Inten    --     60.6970               187.5260                55.4753

                     31                     32                     33
                      A                      A                      A
 Frequencies --    775.0399               780.1160               798.0947
 Red. masses --      9.2374                 2.1490                 4.5359
 Frc consts  --      3.2692                 0.7706                 1.7023
 IR Inten    --     33.6202               123.9965                34.3231

                     34                     35                     36
                      A                      A                      A
 Frequencies --    862.1015               893.2601               939.2014
 Red. masses --      1.2595                 4.6512                 1.5350
 Frc consts  --      0.5515                 2.1866                 0.7978
 IR Inten    --      2.8620                41.6252                 7.5289

                     37                     38                     39
                      A                      A                      A
 Frequencies --    992.4234              1003.7484              1013.9020
 Red. masses --      1.1301                 1.3551                 3.1317
 Frc consts  --      0.6558                 0.8044                 1.8968
 IR Inten    --     19.9544                 0.3470                28.7060

                     40                     41                     42
                      A                      A                      A
 Frequencies --   1020.4404              1023.4772              1033.1998
 Red. masses --      1.3057                 5.3551                 1.1571
 Frc consts  --      0.8010                 3.3050                 0.7278
 IR Inten    --      1.0946                10.8960                64.1471

                     43                     44                     45
                      A                      A                      A
 Frequencies --   1052.8838              1064.4704              1078.8755
 Red. masses --      1.9166                 2.0598                 3.5455
 Frc consts  --      1.2518                 1.3751                 2.4315
 IR Inten    --    126.2842                15.6063                 6.9068

                     46                     47                     48
                      A                      A                      A
 Frequencies --   1085.6447              1102.8238              1124.6383
 Red. masses --      2.6876                 1.9490                 1.5864
 Frc consts  --      1.8663                 1.3966                 1.1822
 IR Inten    --     59.2750               122.7638                 8.0689

                     49                     50                     51
                      A                      A                      A
 Frequencies --   1183.4023              1212.0445              1218.7595
 Red. masses --      1.1235                 1.1261                 1.4140
 Frc consts  --      0.9270                 0.9747                 1.2375
 IR Inten    --      2.2966                14.4224                31.9097

                     52                     53                     54
                      A                      A                      A
 Frequencies --   1265.7172              1284.4657              1340.2604
 Red. masses --      2.7266                 4.1192                 2.2500
 Frc consts  --      2.5736                 4.0041                 2.3813
 IR Inten    --    520.0856                 2.7615               204.5032

                     55                     56                     57
                      A                      A                      A
 Frequencies --   1344.2486              1365.3556              1418.8962
 Red. masses --      1.9057                 1.4877                 1.2994
 Frc consts  --      2.0289                 1.6340                 1.5413
 IR Inten    --    147.1167                27.1889                80.2976

                     58                     59                     60
                      A                      A                      A
 Frequencies --   1436.7197              1458.4147              1478.9613
 Red. masses --      2.2336                 1.3772                 1.3094
 Frc consts  --      2.7164                 1.7259                 1.6874
 IR Inten    --    499.2235               121.6505                95.2230

                     61                     62                     63
                      A                      A                      A
 Frequencies --   1481.1423              1491.2384              1493.7969
 Red. masses --      1.4813                 1.2256                 1.0509
 Frc consts  --      1.9147                 1.6058                 1.3816
 IR Inten    --    139.2983                57.8328                33.0570

                     64                     65                     66
                      A                      A                      A
 Frequencies --   1502.7709              1548.2366              1567.7770
 Red. masses --      1.0412                 2.3887                 1.9536
 Frc consts  --      1.3853                 3.3736                 2.8292
 IR Inten    --     19.0769               164.6652               501.9567

                     67                     68                     69
                      A                      A                      A
 Frequencies --   1639.1291              1663.3158              1672.3975
 Red. masses --      1.0943                 5.6122                 5.0120
 Frc consts  --      1.7323                 9.1481                 8.2593
 IR Inten    --     81.6509                92.9984               101.2121

                     70                     71                     72
                      A                      A                      A
 Frequencies --   1691.4179              3070.2180              3079.3192
 Red. masses --      7.4344                 1.0337                 1.0360
 Frc consts  --     12.5313                 5.7408                 5.7881
 IR Inten    --    733.5844                30.1967                 7.0699

                     73                     74                     75
                      A                      A                      A
 Frequencies --   3146.0267              3157.1727              3172.4165
 Red. masses --      1.1045                 1.1017                 1.1052
 Frc consts  --      6.4409                 6.4702                 6.5532
 IR Inten    --      8.5117                 6.6429                14.2668

                     76                     77                     78
                      A                      A                      A
 Frequencies --   3175.4164              3187.3250              3197.7197
 Red. masses --      1.1044                 1.0886                 1.0881
 Frc consts  --      6.5611                 6.5156                 6.5554
 IR Inten    --      9.5635                12.6485                 1.9987

                     79                     80                     81
                      A                      A                      A
 Frequencies --   3207.3955              3221.9023              3258.3128
 Red. masses --      1.0930                 1.0979                 1.0932
 Frc consts  --      6.6250                 6.7149                 6.8383
 IR Inten    --     28.2942                23.1197                 1.3114

                     82                     83                     84
                      A                      A                      A
 Frequencies --   3524.0268              3599.8045              3606.5526
 Red. masses --      1.0504                 1.0767                 1.0964
 Frc consts  --      7.6860                 8.2203                 8.4022
 IR Inten    --     48.9407               236.6601                60.4228

 - Thermochemistry -
 -------------------
 Temperature   298.150 Kelvin.  Pressure   1.00000 Atm.
 Atom     1 has atomic number  6 and mass  12.00000

 Molecular mass:   303.99780 amu.
 Principal axes and moments of inertia in atomic units:
                           1         2         3
     Eigenvalues --  3400.306397624.248159346.28934
           X            0.99963   0.02244  -0.01524
           Y           -0.02260   0.99969  -0.01039
           Z            0.01500   0.01073   0.99983
 This molecule is an asymmetric top.
 Rotational symmetry number  1.
 Warning -- assumption of classical behavior for rotation
           may cause significant error
 Rotational temperatures (Kelvin)      0.02547     0.01136     0.00927
 Rotational constants (GHZ):           0.53076     0.23671     0.19310
    1 imaginary frequencies ignored.
 Zero-point vibrational energy     624898.8 (Joules/Mol)
                                  149.35440 (Kcal/Mol)
 Warning -- explicit consideration of  25 degrees of freedom as
           vibrations may cause significant error
 Vibrational temperatures:     37.52    43.04    84.11   105.57   120.66
          (Kelvin)            126.14   179.60   232.61   245.84   256.88
                              330.22   362.95   384.60   398.00   410.07
                              444.07   474.48   502.39   548.79   609.97
                              660.41   753.33   781.41   801.95   845.77
                              913.30   929.41  1005.17  1034.80  1115.11
                             1122.41  1148.28  1240.37  1285.20  1351.30
                             1427.88  1444.17  1458.78  1468.19  1472.56
                             1486.54  1514.86  1531.54  1552.26  1562.00
                             1586.72  1618.10  1702.65  1743.86  1753.52
                             1821.08  1848.06  1928.34  1934.07  1964.44
                             2041.48  2067.12  2098.33  2127.90  2131.03
                             2145.56  2149.24  2162.15  2227.57  2255.68
                             2358.34  2393.14  2406.21  2433.57  4417.36
                             4430.45  4526.43  4542.47  4564.40  4568.72
                             4585.85  4600.81  4614.73  4635.60  4687.99
                             5070.29  5179.32  5189.02

 Zero-point correction=                           0.238011 (Hartree/Particle)
 Thermal correction to Energy=                    0.254824
 Thermal correction to Enthalpy=                  0.255769
 Thermal correction to Gibbs Free Energy=         0.191191
 Sum of electronic and zero-point Energies=          -3646.515336
 Sum of electronic and thermal Energies=             -3646.498523
 Sum of electronic and thermal Enthalpies=           -3646.497579
 Sum of electronic and thermal Free Energies=        -3646.562156

                     E (Thermal)             CV                S
                      KCal/Mol        Cal/Mol-Kelvin    Cal/Mol-Kelvin
 Total                  159.905             60.969            135.914
 Electronic               0.000              0.000              0.000
 Translational            0.889              2.981             43.032
 Rotational               0.889              2.981             33.849
 Vibrational            158.127             55.007             59.033
 Vibration     1          0.593              1.985              6.107
 Vibration     2          0.594              1.984              5.835
 Vibration     3          0.596              1.974              4.509
 Vibration     4          0.599              1.967              4.061
 Vibration     5          0.601              1.960              3.798
 Vibration     6          0.601              1.958              3.711
 Vibration     7          0.610              1.928              3.024
 Vibration     8          0.622              1.889              2.530
 Vibration     9          0.626              1.878              2.426
 Vibration    10          0.629              1.869              2.344
 Vibration    11          0.652              1.796              1.883
 Vibration    12          0.664              1.759              1.715
 Vibration    13          0.672              1.733              1.614
 Vibration    14          0.678              1.717              1.554
 Vibration    15          0.683              1.701              1.503
 Vibration    16          0.698              1.657              1.370
 Vibration    17          0.713              1.616              1.261
 Vibration    18          0.726              1.577              1.170
 Vibration    19          0.751              1.510              1.034
 Vibration    20          0.786              1.418              0.879
 Vibration    21          0.817              1.341              0.769
 Vibration    22          0.879              1.198              0.602
 Vibration    23          0.898              1.155              0.559
 Vibration    24          0.913              1.124              0.529
 Vibration    25          0.945              1.058              0.471

 Optimization completed.
    -- Stationary point found.
 Normal termination of Gaussian 16 at Wed Feb 17 00:37:40 2021.
