 Gaussian 16, Revision A.03,
 Gaussian 16:  ES64L-G16RevA.03 25-Dec-2016

 ----------------------------------------------------------------------
 # wB97XD def2tzvp, opt=(ts, noeigen, calcfc, maxcycles=70, maxstep=3),
  freq=noraman, scrf=(iefpcm, solvent=water)
 ----------------------------------------------------------------------

 ------------------------
 3_iteration/TS-568-3.out
 ------------------------
 Symbolic Z-matrix:
 Charge =  0 Multiplicity = 1

 SCF Done:  E(RwB97XD) =  -1248.82601177     A.U. after   15 cycles
 Optimization completed.
    -- Stationary point found.
 Normal termination of Gaussian 16 at Thu Feb 18 01:37:44 2021.

 ---------------------------------------------------------------------
 #N Geom=AllCheck Guess=TCheck SCRF=Check GenChk RwB97XD/def2TZVP Freq
 ---------------------------------------------------------------------

 Structure from the checkpoint file:  "/beegfs/scratch/user/q/tla25/Gau-15473.chk"
 ------------------------
 3_iteration/TS-568-3.out
 ------------------------
 Charge =  0 Multiplicity = 1

                         Standard orientation:
 ---------------------------------------------------------------------
 Center     Atomic      Atomic             Coordinates (Angstroms)
 Number     Number       Type             X           Y           Z
 ---------------------------------------------------------------------
      1          6           0        0.741029   -0.084661   -0.238419
      2          6           0       -0.014531   -1.285010    0.030741
      3          8           0        0.510519   -2.355721    0.357431
      4          6           0        2.107689   -0.155721   -0.480129
      5          6           0        2.692479   -0.121941    2.407041
      6          1           0        2.830639   -0.669061    3.341861
      7          1           0        3.358129    0.739809    2.401221
      8          1           0        1.661879    0.232979    2.363541
      9          7           0        2.944859   -0.944041    1.238321
     10          1           0        3.921539   -1.179431    1.119601
     11          1           0        2.383459   -1.790571    1.232861
     12          6           0        2.971319    1.061479   -0.616309
     13          1           0        2.709710    1.799019    0.140761
     14          1           0        4.020959    0.795019   -0.517159
     15          1           0        2.829229    1.511989   -1.599059
     16         17           0        2.723389   -1.471631   -1.515389
     17          6           0        0.092189    1.245130   -0.050829
     18          6           0       -0.555161    1.566070    1.142921
     19          6           0       -1.198130    2.783050    1.308911
     20          6           0       -1.199350    3.716120    0.282051
     21          6           0       -0.559540    3.415070   -0.912079
     22          6           0        0.071280    2.191620   -1.075619
     23          1           0       -0.565221    0.845530    1.952231
     24          1           0       -1.696230    3.003920    2.244821
     25          1           0       -1.698150    4.668510    0.409671
     26          1           0       -0.562070    4.130570   -1.725059
     27          1           0        0.538210    1.955429   -2.023939
     28          6           0       -1.513991   -1.240400   -0.055749
     29          6           0       -2.162401   -0.600600   -1.107609
     30          6           0       -3.545571   -0.622390   -1.195399
     31          6           0       -4.294011   -1.267380   -0.220189
     32          6           0       -3.653281   -1.906600    0.832691
     33          6           0       -2.269181   -1.903320    0.906101
     34          1           0       -1.580951   -0.088750   -1.863749
     35          1           0       -4.040651   -0.132410   -2.024259
     36          1           0       -5.374981   -1.274039   -0.282009
     37          1           0       -4.233511   -2.410460    1.595431
     38          1           0       -1.762781   -2.409370    1.718371
 ---------------------------------------------------------------------

 SCF Done:  E(RwB97XD) =  -1248.82601177     A.U. after    1 cycles

 The electronic state is 1-A.
 Alpha  occ. eigenvalues -- -101.69330 -19.22172 -14.45901 -10.39879 -10.36533
 Alpha  occ. eigenvalues --  -10.31011 -10.30153 -10.29663 -10.29298 -10.29277
 Alpha  occ. eigenvalues --  -10.29214 -10.29120 -10.29107 -10.28991 -10.28892
 Alpha  occ. eigenvalues --  -10.28876 -10.28777 -10.28704 -10.28649 -10.27463
 Alpha  occ. eigenvalues --   -9.57928  -7.32558  -7.31726  -7.31675  -1.12869
 Alpha  occ. eigenvalues --   -1.02200  -0.97820  -0.96798  -0.96137  -0.89552
 Alpha  occ. eigenvalues --   -0.86319  -0.85301  -0.84969  -0.84219  -0.80984
 Alpha  occ. eigenvalues --   -0.77847  -0.73528  -0.70641  -0.70221  -0.69960
 Alpha  occ. eigenvalues --   -0.67210  -0.63058  -0.62030  -0.61582  -0.58638
 Alpha  occ. eigenvalues --   -0.57106  -0.56710  -0.55780  -0.55043  -0.54312
 Alpha  occ. eigenvalues --   -0.53750  -0.52899  -0.52775  -0.51181  -0.50949
 Alpha  occ. eigenvalues --   -0.50644  -0.49840  -0.49248  -0.47540  -0.47282
 Alpha  occ. eigenvalues --   -0.46891  -0.46527  -0.45309  -0.44311  -0.43680
 Alpha  occ. eigenvalues --   -0.42725  -0.42617  -0.42431  -0.39484  -0.37005
 Alpha  occ. eigenvalues --   -0.35237  -0.34453  -0.33647  -0.33393  -0.32157
 Alpha  occ. eigenvalues --   -0.27955
 Alpha virt. eigenvalues --    0.00665   0.03345   0.05221   0.05542   0.06847
 Alpha virt. eigenvalues --    0.09491   0.10774   0.12693   0.13458   0.13709
 Alpha virt. eigenvalues --    0.14448   0.15551   0.16097   0.16350   0.16764

 Mulliken charges:
               1
     1  C   -0.235291
     2  C    0.302435
     3  O   -0.495043
     4  C    0.212607
     5  C   -0.274443
     6  H    0.146812
     7  H    0.152550
     8  H    0.122949
     9  N   -0.387097
    10  H    0.272638
    11  H    0.266610
    12  C   -0.400213
    13  H    0.161552
    14  H    0.156893
    15  H    0.159504
    16  Cl  -0.119637
    17  C    0.167558
    18  C   -0.230833
    19  C   -0.168078
    20  C   -0.141001
    21  C   -0.142350
    22  C   -0.271224
    23  H    0.165018
    24  H    0.138733
    25  H    0.141976
    26  H    0.139715
    27  H    0.158854
    28  C    0.149920
    29  C   -0.220613
    30  C   -0.158398
    31  C   -0.126974
    32  C   -0.147380
    33  C   -0.229095
    34  H    0.161133
    35  H    0.142262
    36  H    0.145690
    37  H    0.142626
    38  H    0.139636
 Sum of Mulliken charges =  -0.00000

 Dipole moment (field-independent basis, Debye):
    X=              2.8622    Y=              4.3110    Z=              2.9522  Tot=              5.9576
 Quadrupole moment (field-independent basis, Debye-Ang):
   XX=           -101.3641   YY=           -131.9416   ZZ=           -115.0105
   XY=              0.9773   XZ=              7.6494   YZ=             -7.5370

  Exact polarizability: 357.045 -19.841 304.313  -6.988 -28.442 290.588
 Approx polarizability: 267.969 -17.225 249.591  -8.145 -24.902 249.955

 ******    1 imaginary frequencies (negative Signs) ******

                      1                      2                      3
                      A                      A                      A
 Frequencies --   -367.6227                30.9461                45.6392
 Red. masses --      5.3191                 4.7756                 4.6734
 Frc consts  --      0.4235                 0.0027                 0.0057
 IR Inten    --    782.3777                 2.0994                 0.3341

                      4                      5                      6
                      A                      A                      A
 Frequencies --     58.1388                66.7141                71.7827
 Red. masses --      3.9749                 3.6089                 4.8168
 Frc consts  --      0.0079                 0.0095                 0.0146
 IR Inten    --      0.8980                 0.0590                 5.4097

                      7                      8                      9
                      A                      A                      A
 Frequencies --     90.0941               116.4879               145.9756
 Red. masses --      2.6612                 5.2129                 2.3644
 Frc consts  --      0.0127                 0.0417                 0.0297
 IR Inten    --      1.3394                 1.9840                24.4151

                     10                     11                     12
                      A                      A                      A
 Frequencies --    151.3778               170.8632               194.8999
 Red. masses --      3.4702                 6.2038                 1.6944
 Frc consts  --      0.0469                 0.1067                 0.0379
 IR Inten    --      1.2285                 0.6687                 0.5390

                     13                     14                     15
                      A                      A                      A
 Frequencies --    212.3186               235.8255               249.6665
 Red. masses --      3.0274                 3.0243                 3.0289
 Frc consts  --      0.0804                 0.0991                 0.1112
 IR Inten    --      3.7381                21.8887                 6.0165

                     16                     17                     18
                      A                      A                      A
 Frequencies --    261.6273               292.2590               299.1394
 Red. masses --      3.6086                 1.5252                 4.2722
 Frc consts  --      0.1455                 0.0768                 0.2252
 IR Inten    --      4.3864                 5.1935                21.1864

                     19                     20                     21
                      A                      A                      A
 Frequencies --    334.2416               361.1319               379.2206
 Red. masses --      3.8193                 4.0175                 5.0094
 Frc consts  --      0.2514                 0.3087                 0.4244
 IR Inten    --     13.1059                27.9182                 7.1550

                     22                     23                     24
                      A                      A                      A
 Frequencies --    414.0707               422.3983               431.0220
 Red. masses --      4.0995                 2.9673                 2.9335
 Frc consts  --      0.4141                 0.3119                 0.3211
 IR Inten    --      1.7001                 2.1740                 0.2560

                     25                     26                     27
                      A                      A                      A
 Frequencies --    443.9428               528.4445               549.3393
 Red. masses --      4.7874                 3.5513                 5.0370
 Frc consts  --      0.5559                 0.5843                 0.8956
 IR Inten    --      5.5389                45.0450                59.0502

                     28                     29                     30
                      A                      A                      A
 Frequencies --    559.0387               618.6958               636.0988
 Red. masses --      4.8089                 1.5268                 6.1397
 Frc consts  --      0.8855                 0.3443                 1.4637
 IR Inten    --     37.2217                39.8780                 1.0626

                     31                     32                     33
                      A                      A                      A
 Frequencies --    639.5504               674.5668               679.6108
 Red. masses --      6.3480                 3.8621                 5.1522
 Frc consts  --      1.5298                 1.0354                 1.4021
 IR Inten    --      1.8883               135.9581                 8.4718

                     34                     35                     36
                      A                      A                      A
 Frequencies --    724.1725               732.3429               749.8031
 Red. masses --      1.6887                 1.5817                 3.5348
 Frc consts  --      0.5218                 0.4998                 1.1709
 IR Inten    --     70.4771                89.6303                89.0109

                     37                     38                     39
                      A                      A                      A
 Frequencies --    759.4259               810.9023               831.7245
 Red. masses --      2.8172                 2.4642                 3.4088
 Frc consts  --      0.9573                 0.9547                 1.3894
 IR Inten    --     76.7904                53.0644                61.8697

                     40                     41                     42
                      A                      A                      A
 Frequencies --    881.2270               882.2955               905.1757
 Red. masses --      1.2473                 1.2483                 5.4754
 Frc consts  --      0.5707                 0.5725                 2.6432
 IR Inten    --      1.0379                 0.3673                22.7469

                     43                     44                     45
                      A                      A                      A
 Frequencies --    955.5912               961.3060               968.3628
 Red. masses --      1.1045                 1.4350                 1.4806
 Frc consts  --      0.5942                 0.7813                 0.8180
 IR Inten    --    155.7185                 3.9989                 8.1189

                     46                     47                     48
                      A                      A                      A
 Frequencies --   1014.6245              1016.8938              1017.4040
 Red. masses --      1.2846                 1.3872                 1.3269
 Frc consts  --      0.7792                 0.8451                 0.8092
 IR Inten    --     55.9871                 0.4665                10.6797

                     49                     50                     51
                      A                      A                      A
 Frequencies --   1024.7518              1026.8043              1027.5404
 Red. masses --      2.6374                 5.1603                 1.9307
 Frc consts  --      1.6318                 3.2055                 1.2011
 IR Inten    --      8.8291                 1.9971                 1.8453

                     52                     53                     54
                      A                      A                      A
 Frequencies --   1030.5084              1032.8919              1050.0031
 Red. masses --      1.8586                 1.4025                 1.5640
 Frc consts  --      1.1629                 0.8816                 1.0160
 IR Inten    --      2.5453                 3.3413                93.9314

                     55                     56                     57
                      A                      A                      A
 Frequencies --   1060.3074              1067.8556              1096.1066
 Red. masses --      2.0947                 1.8937                 3.9626
 Frc consts  --      1.3875                 1.2723                 2.8050
 IR Inten    --     14.9370                 2.5718                17.5643

                     58                     59                     60
                      A                      A                      A
 Frequencies --   1110.6782              1113.7221              1121.7771
 Red. masses --      1.7503                 1.5630                 2.6132
 Frc consts  --      1.2721                 1.1423                 1.9375
 IR Inten    --     32.2512                20.4632               117.4163

                     61                     62                     63
                      A                      A                      A
 Frequencies --   1153.3042              1182.2371              1184.1592
 Red. masses --      2.6722                 1.1302                 1.1432
 Frc consts  --      2.0942                 0.9307                 0.9445
 IR Inten    --     36.8438                 0.8411                 1.4123

                     64                     65                     66
                      A                      A                      A
 Frequencies --   1184.4726              1205.6402              1212.2940
 Red. masses --      1.4109                 1.1262                 1.1248
 Frc consts  --      1.1662                 0.9645                 0.9739
 IR Inten    --     20.5387                10.2014                 0.4725

                     67                     68                     69
                      A                      A                      A
 Frequencies --   1277.1457              1307.9268              1325.8057
 Red. masses --      4.4161                 4.4726                 4.0772
 Frc consts  --      4.2440                 4.5079                 4.2225
 IR Inten    --     72.4824                59.3142                64.4282

                     70                     71                     72
                      A                      A                      A
 Frequencies --   1344.4151              1349.9731              1359.1117
 Red. masses --      1.4074                 3.4451                 1.4762
 Frc consts  --      1.4988                 3.6992                 1.6066
 IR Inten    --     52.8952               241.5226                28.2994

                     73                     74                     75
                      A                      A                      A
 Frequencies --   1364.9130              1408.6756              1435.5670
 Red. masses --      1.6908                 1.5835                 2.1196
 Frc consts  --      1.8559                 1.8514                 2.5737
 IR Inten    --     82.4213               294.4635               610.2198

                     76                     77                     78
                      A                      A                      A
 Frequencies --   1460.4150              1475.2042              1486.9145
 Red. masses --      1.2460                 1.0570                 1.5460
 Frc consts  --      1.5658                 1.3553                 2.0139
 IR Inten    --     62.7471                20.4280                15.2855

                     79                     80                     81
                      A                      A                      A
 Frequencies --   1489.2896              1491.5778              1495.1677
 Red. masses --      1.4615                 1.4262                 1.5194
 Frc consts  --      1.9098                 1.8694                 2.0012
 IR Inten    --     21.6159                15.7099               110.4482

                     82                     83                     84
                      A                      A                      A
 Frequencies --   1508.9779              1540.7070              1544.3445
 Red. masses --      1.0395                 2.3109                 2.3756
 Frc consts  --      1.3946                 3.2320                 3.3382
 IR Inten    --      3.1176                 2.5481                52.6106

                     85                     86                     87
                      A                      A                      A
 Frequencies --   1633.1157              1645.9004              1651.7405
 Red. masses --      3.9233                 4.0547                 1.7595
 Frc consts  --      6.1651                 6.4717                 2.8282
 IR Inten    --    464.6981                43.0994                13.5588

                     88                     89                     90
                      A                      A                      A
 Frequencies --   1662.4782              1673.0278              1675.0379
 Red. masses --      3.6088                 5.8758                 5.9342
 Frc consts  --      5.8766                 9.6899                 9.8098
 IR Inten    --    140.8809                 2.2626                16.5718

                     91                     92                     93
                      A                      A                      A
 Frequencies --   3054.5850              3076.8303              3124.7452
 Red. masses --      1.0354                 1.0361                 1.1010
 Frc consts  --      5.6922                 5.7789                 6.3338
 IR Inten    --     63.9820                 7.6937                17.9778

                     94                     95                     96
                      A                      A                      A
 Frequencies --   3151.8365              3152.9367              3171.2044
 Red. masses --      1.1029                 1.1025                 1.1041
 Frc consts  --      6.4551                 6.4574                 6.5421
 IR Inten    --      8.9517                21.6422                19.1026

                     97                     98                     99
                      A                      A                      A
 Frequencies --   3188.5847              3192.9056              3194.7021
 Red. masses --      1.0864                 1.0876                 1.0858
 Frc consts  --      6.5078                 6.5324                 6.5291
 IR Inten    --      9.5273                 0.6024                 0.5326

                    100                    101                    102
                      A                      A                      A
 Frequencies --   3201.8900              3202.4569              3209.2337
 Red. masses --      1.0884                 1.0911                 1.0948
 Frc consts  --      6.5745                 6.5927                 6.6436
 IR Inten    --      4.5321                11.7941                44.3903

                    103                    104                    105
                      A                      A                      A
 Frequencies --   3209.8632              3216.3471              3220.2200
 Red. masses --      1.0919                 1.0949                 1.0988
 Frc consts  --      6.6284                 6.6737                 6.7136
 IR Inten    --     14.3356                32.6887                17.9416

                    106                    107                    108
                      A                      A                      A
 Frequencies --   3223.1426              3495.5647              3609.5950
 Red. masses --      1.0988                 1.0545                 1.0933
 Frc consts  --      6.7254                 7.5919                 8.3930
 IR Inten    --     16.8079                43.7222                94.7915

 - Thermochemistry -
 -------------------
 Temperature   298.150 Kelvin.  Pressure   1.00000 Atm.
 Atom     1 has atomic number  6 and mass  12.00000

 Molecular mass:   287.10769 amu.
 Principal axes and moments of inertia in atomic units:
                           1         2         3
     Eigenvalues --  4557.801346640.167618700.29240
           X            0.99942   0.02755   0.01993
           Y           -0.02701   0.99928  -0.02658
           Z           -0.02065   0.02603   0.99945
 This molecule is an asymmetric top.
 Rotational symmetry number  1.
 Warning -- assumption of classical behavior for rotation
           may cause significant error
 Rotational temperatures (Kelvin)      0.01900     0.01304     0.00996
 Rotational constants (GHZ):           0.39597     0.27179     0.20743
    1 imaginary frequencies ignored.
 Zero-point vibrational energy     819235.7 (Joules/Mol)
                                  195.80203 (Kcal/Mol)
 Warning -- explicit consideration of  28 degrees of freedom as
           vibrations may cause significant error
 Vibrational temperatures:     44.52    65.66    83.65    95.99   103.28
          (Kelvin)            129.63   167.60   210.03   217.80   245.83
                              280.42   305.48   339.30   359.21   376.42
                              420.50   430.39   480.90   519.59   545.61
                              595.76   607.74   620.14   638.73   760.31
                              790.38   804.33   890.17   915.20   920.17
                              970.55   977.81  1041.92  1053.68  1078.80
                             1092.64  1166.71  1196.67  1267.89  1269.43
                             1302.35  1374.88  1383.10  1393.26  1459.82
                             1463.08  1463.82  1474.39  1477.34  1478.40
                             1482.67  1486.10  1510.72  1525.55  1536.41
                             1577.05  1598.02  1602.40  1613.99  1659.35
                             1700.98  1703.74  1704.19  1734.65  1744.22
                             1837.53  1881.81  1907.54  1934.31  1942.31
                             1955.46  1963.81  2026.77  2065.46  2101.21
                             2122.49  2139.34  2142.76  2146.05  2151.21
                             2171.08  2216.73  2221.97  2349.69  2368.08
                             2376.49  2391.94  2407.11  2410.01  4394.87
                             4426.87  4495.81  4534.79  4536.37  4562.66
                             4587.66  4593.88  4596.46  4606.81  4607.62
                             4617.37  4618.28  4627.61  4633.18  4637.38
                             5029.34  5193.40

 Zero-point correction=                           0.312030 (Hartree/Particle)
 Thermal correction to Energy=                    0.330749
 Thermal correction to Enthalpy=                  0.331693
 Thermal correction to Gibbs Free Energy=         0.264375
 Sum of electronic and zero-point Energies=          -1248.513981
 Sum of electronic and thermal Energies=             -1248.495263
 Sum of electronic and thermal Enthalpies=           -1248.494318
 Sum of electronic and thermal Free Energies=        -1248.561637

                     E (Thermal)             CV                S
                      KCal/Mol        Cal/Mol-Kelvin    Cal/Mol-Kelvin
 Total                  207.548             71.393            141.684
 Electronic               0.000              0.000              0.000
 Translational            0.889              2.981             42.862
 Rotational               0.889              2.981             33.931
 Vibrational            205.771             65.432             64.891
 Vibration     1          0.594              1.984              5.768
 Vibration     2          0.595              1.979              4.998
 Vibration     3          0.596              1.974              4.519
 Vibration     4          0.598              1.970              4.248
 Vibration     5          0.598              1.967              4.104
 Vibration     6          0.602              1.956              3.658
 Vibration     7          0.608              1.936              3.158
 Vibration     8          0.617              1.907              2.724
 Vibration     9          0.619              1.901              2.655
 Vibration    10          0.626              1.878              2.426
 Vibration    11          0.636              1.847              2.181
 Vibration    12          0.643              1.822              2.024
 Vibration    13          0.655              1.786              1.834
 Vibration    14          0.662              1.763              1.733
 Vibration    15          0.669              1.743              1.651
 Vibration    16          0.688              1.688              1.461
 Vibration    17          0.692              1.675              1.422
 Vibration    18          0.716              1.607              1.240
 Vibration    19          0.735              1.552              1.117
 Vibration    20          0.749              1.514              1.042
 Vibration    21          0.778              1.440              0.912
 Vibration    22          0.785              1.422              0.884
 Vibration    23          0.792              1.403              0.855
 Vibration    24          0.803              1.374              0.814
 Vibration    25          0.883              1.187              0.591
 Vibration    26          0.905              1.141              0.546
 Vibration    27          0.915              1.120              0.526
 Vibration    28          0.979              0.992              0.419

 Optimization completed.
    -- Stationary point found.
 Normal termination of Gaussian 16 at Thu Feb 18 03:55:31 2021.
