 Gaussian 16, Revision A.03,
 Gaussian 16:  ES64L-G16RevA.03 25-Dec-2016

 ----------------------------------------------------------------------
 # wB97XD def2tzvp, opt=(ts, noeigen, calcfc, maxcycles=70, maxstep=1),
  freq=noraman, scrf=(iefpcm, solvent=water)
 ----------------------------------------------------------------------

 ------------------------
 0_iteration/TS-597-0.out
 ------------------------
 Symbolic Z-matrix:
 Charge =  0 Multiplicity = 1

 SCF Done:  E(RwB97XD) =  -1341.00561466     A.U. after   15 cycles
 SCF Done:  E(RwB97XD) =  -1341.00560726     A.U. after   10 cycles
 SCF Done:  E(RwB97XD) =  -1341.00560703     A.U. after   10 cycles
 SCF Done:  E(RwB97XD) =  -1341.00561631     A.U. after   10 cycles
 SCF Done:  E(RwB97XD) =  -1341.00564439     A.U. after    9 cycles
 SCF Done:  E(RwB97XD) =  -1341.00568973     A.U. after   10 cycles
 SCF Done:  E(RwB97XD) =  -1341.00576070     A.U. after   10 cycles
 SCF Done:  E(RwB97XD) =  -1341.00585602     A.U. after   10 cycles
 SCF Done:  E(RwB97XD) =  -1341.00597427     A.U. after   10 cycles
 SCF Done:  E(RwB97XD) =  -1341.00611144     A.U. after   10 cycles
 SCF Done:  E(RwB97XD) =  -1341.01225150     A.U. after   10 cycles
 SCF Done:  E(RwB97XD) =  -1341.01228355     A.U. after   10 cycles
 SCF Done:  E(RwB97XD) =  -1341.01231001     A.U. after   10 cycles
 SCF Done:  E(RwB97XD) =  -1341.01232356     A.U. after   10 cycles
 SCF Done:  E(RwB97XD) =  -1341.01232817     A.U. after   10 cycles
 SCF Done:  E(RwB97XD) =  -1341.01232833     A.U. after    9 cycles
 SCF Done:  E(RwB97XD) =  -1341.01232859     A.U. after    8 cycles
 SCF Done:  E(RwB97XD) =  -1341.01232852     A.U. after    7 cycles
 SCF Done:  E(RwB97XD) =  -1341.01232866     A.U. after    6 cycles
 Optimization completed.
    -- Stationary point found.
 Normal termination of Gaussian 16 at Tue Feb 16 07:55:38 2021.

 ---------------------------------------------------------------------
 #N Geom=AllCheck Guess=TCheck SCRF=Check GenChk RwB97XD/def2TZVP Freq
 ---------------------------------------------------------------------

 Structure from the checkpoint file:  "/beegfs/scratch/user/q/tla25/Gau-71080.chk"
 ------------------------
 0_iteration/TS-597-0.out
 ------------------------
 Charge =  0 Multiplicity = 1

                         Standard orientation:
 ---------------------------------------------------------------------
 Center     Atomic      Atomic             Coordinates (Angstroms)
 Number     Number       Type             X           Y           Z
 ---------------------------------------------------------------------
      1          6           0        0.019049    0.660564   -0.390768
      2          6           0       -1.404977    0.524583   -0.117095
      3          8           0       -2.154677    1.496283   -0.003574
      4          6           0        1.012760   -0.310548   -0.341268
      5          6           0        1.228175   -0.021057    2.433659
      6          1           0        0.994347   -0.402033    3.427021
      7          1           0        2.245994    0.361237    2.426336
      8          1           0        0.537454    0.786724    2.190175
      9          7           0        1.088271   -1.061822    1.420901
     10          1           0        1.821039   -1.760588    1.477231
     11          1           0        0.195559   -1.534490    1.514157
     12          6           0        2.456904    0.049526   -0.552732
     13          1           0        2.761913    0.834750    0.135657
     14          1           0        3.092241   -0.822048   -0.412869
     15          1           0        2.591229    0.418460   -1.569547
     16         17           0        0.686188   -1.896435   -1.172895
     17         17           0        0.558320    2.334664   -0.482732
     18          7           0       -1.896375   -0.739032    0.088075
     19          6           0       -3.318970   -0.936486    0.265410
     20          1           0       -1.391237   -1.505700   -0.321144
     21          1           0       -3.498597   -1.995485    0.440984
     22          1           0       -3.674705   -0.375344    1.128353
     23          1           0       -3.895380   -0.619136   -0.608171
 ---------------------------------------------------------------------

 SCF Done:  E(RwB97XD) =  -1341.01232866     A.U. after    1 cycles

 The electronic state is 1-A.
 Alpha  occ. eigenvalues -- -101.70381-101.68521 -19.20221 -14.49422 -14.44555
 Alpha  occ. eigenvalues --  -10.41231 -10.38210 -10.32072 -10.31211 -10.30534
 Alpha  occ. eigenvalues --  -10.29472  -9.58996  -9.57038  -7.33604  -7.32791
 Alpha  occ. eigenvalues --   -7.32761  -7.31682  -7.30821  -7.30809  -1.13197
 Alpha  occ. eigenvalues --   -1.05262  -1.01362  -0.98386  -0.94459  -0.85879
 Alpha  occ. eigenvalues --   -0.82760  -0.79439  -0.77223  -0.69065  -0.65672
 Alpha  occ. eigenvalues --   -0.63909  -0.60230  -0.58745  -0.56526  -0.55893
 Alpha  occ. eigenvalues --   -0.53681  -0.52209  -0.51697  -0.50413  -0.48987
 Alpha  occ. eigenvalues --   -0.48305  -0.47579  -0.47180  -0.46200  -0.44808
 Alpha  occ. eigenvalues --   -0.41697  -0.40935  -0.39492  -0.38568  -0.34681
 Alpha  occ. eigenvalues --   -0.33518  -0.27360
 Alpha virt. eigenvalues --    0.04125   0.06588   0.09965   0.12332   0.13021
 Alpha virt. eigenvalues --    0.14527   0.15312   0.15566   0.16279   0.17958
 Alpha virt. eigenvalues --    0.18265   0.19257   0.19979   0.20304   0.20841

 Mulliken charges:
               1
     1  C   -0.163932
     2  C    0.284357
     3  O   -0.523128
     4  C    0.124267
     5  C   -0.305519
     6  H    0.162607
     7  H    0.164089
     8  H    0.160551
     9  N   -0.309283
    10  H    0.292903
    11  H    0.278353
    12  C   -0.377885
    13  H    0.152803
    14  H    0.153178
    15  H    0.164202
    16  Cl  -0.133571
    17  Cl  -0.167870
    18  N   -0.329608
    19  C   -0.256490
    20  H    0.236453
    21  H    0.139425
    22  H    0.131430
    23  H    0.122669
 Sum of Mulliken charges =  -0.00000

 Dipole moment (field-independent basis, Debye):
    X=              5.8653    Y=             -8.4077    Z=              4.9948  Tot=             11.4035
 Quadrupole moment (field-independent basis, Debye-Ang):
   XX=            -76.2940   YY=            -87.0666   ZZ=            -73.6897
   XY=              8.2025   XZ=              4.8587   YZ=             -3.5502

  Exact polarizability: 176.691  -9.458 179.844   3.902  -2.056 142.722
 Approx polarizability: 138.640  -7.764 152.858   2.086  -0.870 121.159

 ******    1 imaginary frequencies (negative Signs) ******

                      1                      2                      3
                      A                      A                      A
 Frequencies --   -381.1413                58.7087                79.3033
 Red. masses --      5.5203                 3.8690                 5.4365
 Frc consts  --      0.4725                 0.0079                 0.0201
 IR Inten    --    601.9855                 5.7042                12.8790

                      4                      5                      6
                      A                      A                      A
 Frequencies --     87.4678               119.5596               148.3514
 Red. masses --      2.6194                 3.1543                 2.6738
 Frc consts  --      0.0118                 0.0266                 0.0347
 IR Inten    --      5.7189                 3.3135                 7.9347

                      7                      8                      9
                      A                      A                      A
 Frequencies --    173.4118               178.8661               195.6787
 Red. masses --      1.2661                 1.8010                 1.6843
 Frc consts  --      0.0224                 0.0339                 0.0380
 IR Inten    --      3.6065                 2.8539                 5.3959

                     10                     11                     12
                      A                      A                      A
 Frequencies --    211.5984               244.9483               270.7665
 Red. masses --      5.0215                 5.4365                 1.9657
 Frc consts  --      0.1325                 0.1922                 0.0849
 IR Inten    --     15.5579                 1.4246                 3.0698

                     13                     14                     15
                      A                      A                      A
 Frequencies --    279.1128               312.1338               323.6032
 Red. masses --      2.0372                 3.6701                 2.7486
 Frc consts  --      0.0935                 0.2107                 0.1696
 IR Inten    --      0.5551                18.7263                24.6347

                     16                     17                     18
                      A                      A                      A
 Frequencies --    346.9156               356.1374               406.4238
 Red. masses --      5.8679                 3.4442                 5.4255
 Frc consts  --      0.4161                 0.2574                 0.5280
 IR Inten    --     13.9431                12.3664                21.6806

                     19                     20                     21
                      A                      A                      A
 Frequencies --    471.4476               515.5199               550.5176
 Red. masses --      4.9515                 1.2779                 4.8779
 Frc consts  --      0.6484                 0.2001                 0.8710
 IR Inten    --     18.1036               217.7102                44.5414

                     22                     23                     24
                      A                      A                      A
 Frequencies --    667.1205               726.5434               779.0624
 Red. masses --      2.0508                 2.0075                 7.5473
 Frc consts  --      0.5378                 0.6243                 2.6989
 IR Inten    --     82.7458               140.6001                69.3617

                     25                     26                     27
                      A                      A                      A
 Frequencies --    803.8569               951.9754              1006.3417
 Red. masses --      4.6612                 3.2446                 1.1384
 Frc consts  --      1.7746                 1.7325                 0.6792
 IR Inten    --     97.5231                24.3521                14.2091

                     28                     29                     30
                      A                      A                      A
 Frequencies --   1052.9623              1056.0927              1072.6268
 Red. masses --      1.3588                 1.6784                 1.7643
 Frc consts  --      0.8876                 1.1029                 1.1960
 IR Inten    --     77.2652                91.9984                 5.5672

                     31                     32                     33
                      A                      A                      A
 Frequencies --   1083.0558              1102.8938              1149.4237
 Red. masses --      3.1563                 2.4940                 1.3520
 Frc consts  --      2.1814                 1.7874                 1.0524
 IR Inten    --      4.1374               117.8318                 6.2172

                     34                     35                     36
                      A                      A                      A
 Frequencies --   1170.9199              1190.2734              1232.2995
 Red. masses --      2.6995                 2.0075                 1.3904
 Frc consts  --      2.1806                 1.6757                 1.2440
 IR Inten    --     28.5031                12.0741                42.7445

                     37                     38                     39
                      A                      A                      A
 Frequencies --   1309.4151              1349.5160              1418.5249
 Red. masses --      2.8950                 1.3183                 1.3660
 Frc consts  --      2.9245                 1.4145                 1.6194
 IR Inten    --    374.1846                 1.2648               108.7580

                     40                     41                     42
                      A                      A                      A
 Frequencies --   1438.0026              1458.1683              1459.7623
 Red. masses --      2.2424                 1.2288                 1.2800
 Frc consts  --      2.7320                 1.5393                 1.6070
 IR Inten    --    418.9995                26.1397                70.9243

                     43                     44                     45
                      A                      A                      A
 Frequencies --   1474.5611              1480.0554              1492.0333
 Red. masses --      1.0505                 1.0583                 1.1330
 Frc consts  --      1.3458                 1.3659                 1.4861
 IR Inten    --      5.9190                23.0364                29.8682

                     46                     47                     48
                      A                      A                      A
 Frequencies --   1495.6572              1505.0139              1505.7269
 Red. masses --      1.1053                 1.0801                 1.0425
 Frc consts  --      1.4568                 1.4414                 1.3926
 IR Inten    --     48.2211                22.5842                13.0246

                     49                     50                     51
                      A                      A                      A
 Frequencies --   1556.9089              1641.2044              1667.0998
 Red. masses --      1.6657                 1.1180                 6.6260
 Frc consts  --      2.3789                 1.7743                10.8498
 IR Inten    --    370.3941               136.7217               682.1325

                     52                     53                     54
                      A                      A                      A
 Frequencies --   3043.3083              3072.6145              3080.7287
 Red. masses --      1.0433                 1.0333                 1.0360
 Frc consts  --      5.6930                 5.7478                 5.7930
 IR Inten    --     90.2507                28.5835                 6.9947

                     55                     56                     57
                      A                      A                      A
 Frequencies --   3119.2288              3149.7854              3159.0046
 Red. masses --      1.0931                 1.1047                 1.1042
 Frc consts  --      6.2664                 6.4576                 6.4921
 IR Inten    --     39.2266                 8.0615                22.9647

                     58                     59                     60
                      A                      A                      A
 Frequencies --   3159.2428              3172.8955              3177.1403
 Red. masses --      1.1020                 1.1054                 1.1044
 Frc consts  --      6.4805                 6.5566                 6.5681
 IR Inten    --      8.2270                14.9175                 8.8587

                     61                     62                     63
                      A                      A                      A
 Frequencies --   3518.9655              3601.5424              3643.1089
 Red. masses --      1.0506                 1.0965                 1.0768
 Frc consts  --      7.6652                 8.3802                 8.4206
 IR Inten    --     44.5197                70.2032               120.2080

 - Thermochemistry -
 -------------------
 Temperature   298.150 Kelvin.  Pressure   1.00000 Atm.
 Atom     1 has atomic number  6 and mass  12.00000

 Molecular mass:   198.03267 amu.
 Principal axes and moments of inertia in atomic units:
                           1         2         3
     Eigenvalues --  2155.949192500.328033267.57306
           X            0.99311   0.11561   0.01911
           Y           -0.11511   0.99302  -0.02575
           Z           -0.02195   0.02338   0.99949
 This molecule is an asymmetric top.
 Rotational symmetry number  1.
 Warning -- assumption of classical behavior for rotation
           may cause significant error
 Rotational temperatures (Kelvin)      0.04017     0.03464     0.02651
 Rotational constants (GHZ):           0.83710     0.72180     0.55232
    1 imaginary frequencies ignored.
 Zero-point vibrational energy     487628.6 (Joules/Mol)
                                  116.54603 (Kcal/Mol)
 Warning -- explicit consideration of  20 degrees of freedom as
           vibrations may cause significant error
 Vibrational temperatures:     84.47   114.10   125.85   172.02   213.44
          (Kelvin)            249.50   257.35   281.54   304.44   352.43
                              389.57   401.58   449.09   465.59   499.13
                              512.40   584.75   678.31   741.72   792.07
                              959.84  1045.33  1120.90  1156.57  1369.68
                             1447.90  1514.98  1519.48  1543.27  1558.28
                             1586.82  1653.76  1684.69  1712.54  1773.00
                             1883.96  1941.65  2040.94  2068.96  2097.98
                             2100.27  2121.56  2129.47  2146.70  2151.92
                             2165.38  2166.41  2240.04  2361.33  2398.58
                             4378.64  4420.81  4432.48  4487.87  4531.84
                             4545.10  4545.45  4565.09  4571.20  5063.01
                             5181.82  5241.62

 Zero-point correction=                           0.185728 (Hartree/Particle)
 Thermal correction to Energy=                    0.199195
 Thermal correction to Enthalpy=                  0.200140
 Thermal correction to Gibbs Free Energy=         0.145715
 Sum of electronic and zero-point Energies=          -1340.826601
 Sum of electronic and thermal Energies=             -1340.813133
 Sum of electronic and thermal Enthalpies=           -1340.812189
 Sum of electronic and thermal Free Energies=        -1340.866613

                     E (Thermal)             CV                S
                      KCal/Mol        Cal/Mol-Kelvin    Cal/Mol-Kelvin
 Total                  124.997             47.295            114.546
 Electronic               0.000              0.000              0.000
 Translational            0.889              2.981             41.755
 Rotational               0.889              2.981             31.244
 Vibrational            123.220             41.334             41.547
 Vibration     1          0.596              1.974              4.500
 Vibration     2          0.600              1.963              3.908
 Vibration     3          0.601              1.958              3.716
 Vibration     4          0.609              1.933              3.107
 Vibration     5          0.618              1.904              2.693
 Vibration     6          0.627              1.875              2.398
 Vibration     7          0.629              1.868              2.340
 Vibration     8          0.636              1.846              2.173
 Vibration     9          0.643              1.823              2.030
 Vibration    10          0.660              1.771              1.767
 Vibration    11          0.674              1.727              1.591
 Vibration    12          0.679              1.712              1.539
 Vibration    13          0.700              1.651              1.351
 Vibration    14          0.708              1.628              1.292
 Vibration    15          0.725              1.582              1.180
 Vibration    16          0.732              1.563              1.139
 Vibration    17          0.771              1.456              0.939
 Vibration    18          0.828              1.313              0.734
 Vibration    19          0.871              1.216              0.620
 Vibration    20          0.906              1.139              0.543

 Optimization completed.
    -- Stationary point found.
 Normal termination of Gaussian 16 at Tue Feb 16 08:21:46 2021.
