 Gaussian 16, Revision A.03,
 Gaussian 16:  ES64L-G16RevA.03 25-Dec-2016

 ----------------------------------------------------------------------
 # wB97XD def2tzvp, opt=(ts, noeigen, calcfc, maxcycles=70, maxstep=1),
  freq=noraman, scrf=(iefpcm, solvent=water)
 ----------------------------------------------------------------------

 ------------------------
 0_iteration/TS-549-0.out
 ------------------------
 Symbolic Z-matrix:
 Charge =  0 Multiplicity = 1

 SCF Done:  E(RwB97XD) =  -5569.02593068     A.U. after   15 cycles
 SCF Done:  E(RwB97XD) =  -5569.02585462     A.U. after   10 cycles
 SCF Done:  E(RwB97XD) =  -5569.02577980     A.U. after   10 cycles
 SCF Done:  E(RwB97XD) =  -5569.02570597     A.U. after   10 cycles
 SCF Done:  E(RwB97XD) =  -5569.02563384     A.U. after   10 cycles
 SCF Done:  E(RwB97XD) =  -5569.02556299     A.U. after   10 cycles
 SCF Done:  E(RwB97XD) =  -5569.02549290     A.U. after   10 cycles
 SCF Done:  E(RwB97XD) =  -5569.02542368     A.U. after   10 cycles
 SCF Done:  E(RwB97XD) =  -5569.02535599     A.U. after   10 cycles
 SCF Done:  E(RwB97XD) =  -5569.02529074     A.U. after   10 cycles
 SCF Done:  E(RwB97XD) =  -5569.02409589     A.U. after   10 cycles
 SCF Done:  E(RwB97XD) =  -5569.02409685     A.U. after   10 cycles
 SCF Done:  E(RwB97XD) =  -5569.02409526     A.U. after   10 cycles
 SCF Done:  E(RwB97XD) =  -5569.02409554     A.U. after   10 cycles
 SCF Done:  E(RwB97XD) =  -5569.02409423     A.U. after   10 cycles
 SCF Done:  E(RwB97XD) =  -5569.02409665     A.U. after   10 cycles
 SCF Done:  E(RwB97XD) =  -5569.02409431     A.U. after    9 cycles
 SCF Done:  E(RwB97XD) =  -5569.02409695     A.U. after   10 cycles
 SCF Done:  E(RwB97XD) =  -5569.02409695     A.U. after    6 cycles
 Optimization completed.
    -- Stationary point found.
 Normal termination of Gaussian 16 at Tue Feb 16 07:02:37 2021.

 ---------------------------------------------------------------------
 #N Geom=AllCheck Guess=TCheck SCRF=Check GenChk RwB97XD/def2TZVP Freq
 ---------------------------------------------------------------------

 Structure from the checkpoint file:  "/beegfs/scratch/user/q/tla25/Gau-110875.chk"
 ------------------------
 0_iteration/TS-549-0.out
 ------------------------
 Charge =  0 Multiplicity = 1

                         Standard orientation:
 ---------------------------------------------------------------------
 Center     Atomic      Atomic             Coordinates (Angstroms)
 Number     Number       Type             X           Y           Z
 ---------------------------------------------------------------------
      1          6           0        0.578459   -0.179958   -0.095886
      2          6           0        1.034625    1.167393    0.219121
      3          8           0        0.258002    2.007531    0.699477
      4          6           0       -0.751704   -0.548712   -0.106032
      5          6           0       -2.810178   -0.418676    2.129068
      6          1           0       -3.060589   -1.475791    2.058495
      7          1           0       -2.982593   -0.083737    3.153891
      8          1           0       -3.459949    0.144421    1.461320
      9          7           0       -1.423743   -0.219333    1.724721
     10          1           0       -0.784621   -0.777197    2.278659
     11          1           0       -1.124420    0.752048    1.779647
     12          6           0       -1.199182   -1.964355   -0.313724
     13          1           0       -0.700026   -2.628567    0.390842
     14          1           0       -2.275236   -2.050147   -0.184180
     15          1           0       -0.948464   -2.283874   -1.326195
     16         35           0       -1.990071    0.671048   -1.035398
     17         35           0        1.894831   -1.575999   -0.139070
     18          7           0        2.328282    1.483306   -0.003801
     19          6           0        2.864987    2.779373    0.336031
     20          1           0        2.930215    0.807218   -0.436579
     21          1           0        2.408281    3.572963   -0.259249
     22          1           0        2.697065    3.006276    1.390114
     23          1           0        3.935900    2.771218    0.145903
 ---------------------------------------------------------------------

 SCF Done:  E(RwB97XD) =  -5569.02409695     A.U. after    1 cycles

 The electronic state is 1-A.
 Alpha  occ. eigenvalues -- -483.12869-483.12447 -62.67701 -62.67291 -56.46809
 Alpha  occ. eigenvalues --  -56.46470 -56.46458 -56.46406 -56.46058 -56.46042
 Alpha  occ. eigenvalues --  -19.20815 -14.47274 -14.45089 -10.39985 -10.38575
 Alpha  occ. eigenvalues --  -10.31441 -10.30997 -10.30881 -10.29280  -8.81812
 Alpha  occ. eigenvalues --   -8.81393  -6.63936  -6.63532  -6.62853  -6.62813
 Alpha  occ. eigenvalues --   -6.62433  -6.62378  -2.74328  -2.74019  -2.73986
 Alpha  occ. eigenvalues --   -2.73915  -2.73615  -2.73571  -2.73111  -2.73110
 Alpha  occ. eigenvalues --   -2.72681  -2.72681  -1.13555  -1.03022  -1.01865
 Alpha  occ. eigenvalues --   -0.95146  -0.89333  -0.83655  -0.81869  -0.79348
 Alpha  occ. eigenvalues --   -0.77447  -0.68797  -0.65435  -0.62371  -0.59183
 Alpha  occ. eigenvalues --   -0.56082  -0.55712  -0.55441  -0.54011  -0.52356
 Alpha  occ. eigenvalues --   -0.51300  -0.50050  -0.47983  -0.47771  -0.47601
 Alpha  occ. eigenvalues --   -0.46722  -0.43974  -0.42627  -0.39657  -0.38454
 Alpha  occ. eigenvalues --   -0.37476  -0.36651  -0.33870  -0.33630  -0.27194
 Alpha virt. eigenvalues --    0.02297   0.05944   0.09525   0.10273   0.12915
 Alpha virt. eigenvalues --    0.14408   0.14581   0.15655   0.16084   0.17593
 Alpha virt. eigenvalues --    0.18393   0.19025   0.19584   0.19974   0.20539

 Mulliken charges:
               1
     1  C   -0.277374
     2  C    0.427004
     3  O   -0.558244
     4  C    0.147978
     5  C   -0.281551
     6  H    0.153329
     7  H    0.150874
     8  H    0.146269
     9  N   -0.353138
    10  H    0.274639
    11  H    0.277375
    12  C   -0.380161
    13  H    0.152588
    14  H    0.158448
    15  H    0.163996
    16  Br  -0.136669
    17  Br  -0.151040
    18  N   -0.322675
    19  C   -0.247327
    20  H    0.256267
    21  H    0.128211
    22  H    0.128950
    23  H    0.142251
 Sum of Mulliken charges =  -0.00000

 Dipole moment (field-independent basis, Debye):
    X=             -0.7024    Y=             -3.2739    Z=              3.5816  Tot=              4.9030
 Quadrupole moment (field-independent basis, Debye-Ang):
   XX=            -79.4625   YY=            -94.5835   ZZ=            -85.9838
   XY=             10.3533   XZ=             -8.4011   YZ=             -3.6216

  Exact polarizability: 234.647  -2.315 187.885 -11.527  -4.116 163.118
 Approx polarizability: 176.665  -8.578 154.568  -7.573  -2.145 138.212

 ******    1 imaginary frequencies (negative Signs) ******

                      1                      2                      3
                      A                      A                      A
 Frequencies --   -359.3253                53.0595                59.6226
 Red. masses --      6.4657                 4.4199                 3.1529
 Frc consts  --      0.4919                 0.0073                 0.0066
 IR Inten    --    690.5632                 7.0415                 8.0585

                      4                      5                      6
                      A                      A                      A
 Frequencies --     69.8287                90.4684               109.7533
 Red. masses --      1.4596                 2.1837                 4.2208
 Frc consts  --      0.0042                 0.0105                 0.0300
 IR Inten    --      3.5453                 0.6844                 5.8059

                      7                      8                      9
                      A                      A                      A
 Frequencies --    118.4402               137.2053               151.7962
 Red. masses --      2.9470                 2.1206                 2.6611
 Frc consts  --      0.0244                 0.0235                 0.0361
 IR Inten    --      3.3598                 4.7806                25.5841

                     10                     11                     12
                      A                      A                      A
 Frequencies --    183.7648               192.2479               232.1685
 Red. masses --      4.8784                 3.0675                 4.2922
 Frc consts  --      0.0971                 0.0668                 0.1363
 IR Inten    --      8.2465                 5.5057                13.9315

                     13                     14                     15
                      A                      A                      A
 Frequencies --    258.0755               265.5764               292.1240
 Red. masses --      3.1780                 1.4475                 4.1566
 Frc consts  --      0.1247                 0.0602                 0.2090
 IR Inten    --     13.1731                 4.3659                37.7645

                     16                     17                     18
                      A                      A                      A
 Frequencies --    328.6520               338.9114               397.9657
 Red. masses --      2.0393                 2.7390                 7.5378
 Frc consts  --      0.1298                 0.1854                 0.7034
 IR Inten    --      4.9014                14.7977                31.9258

                     19                     20                     21
                      A                      A                      A
 Frequencies --    410.9857               453.8040               473.6522
 Red. masses --      1.5083                 2.6760                 3.9329
 Frc consts  --      0.1501                 0.3247                 0.5199
 IR Inten    --     77.5445                44.5271               136.4248

                     22                     23                     24
                      A                      A                      A
 Frequencies --    627.3111               704.5963               774.2557
 Red. masses --      2.7280                 1.4867                 6.3105
 Frc consts  --      0.6325                 0.4349                 2.2289
 IR Inten    --     94.2989               110.8863                43.1420

                     25                     26                     27
                      A                      A                      A
 Frequencies --    780.5852               976.8378              1012.0612
 Red. masses --      6.3417                 3.4220                 1.2075
 Frc consts  --      2.2766                 1.9239                 0.7287
 IR Inten    --     49.0409                24.5849                 9.4622

                     28                     29                     30
                      A                      A                      A
 Frequencies --   1017.1292              1042.9422              1054.6090
 Red. masses --      1.8113                 1.2467                 1.5402
 Frc consts  --      1.1041                 0.7990                 1.0093
 IR Inten    --    120.3612                70.9354               122.1150

                     31                     32                     33
                      A                      A                      A
 Frequencies --   1085.9189              1123.2751              1156.2725
 Red. masses --      3.1322                 2.7753                 1.3399
 Frc consts  --      2.1762                 2.0632                 1.0555
 IR Inten    --    115.0846                51.3222                 1.7086

                     34                     35                     36
                      A                      A                      A
 Frequencies --   1166.5955              1192.4332              1205.9468
 Red. masses --      3.3065                 1.7758                 1.3890
 Frc consts  --      2.6513                 1.4877                 1.1902
 IR Inten    --      4.1766                21.1023                32.2466

                     37                     38                     39
                      A                      A                      A
 Frequencies --   1314.6422              1341.0503              1416.3819
 Red. masses --      2.3054                 1.3147                 1.2577
 Frc consts  --      2.3475                 1.3931                 1.4866
 IR Inten    --    404.8938                 3.0111                36.2232

                     40                     41                     42
                      A                      A                      A
 Frequencies --   1444.7586              1457.8672              1463.8870
 Red. masses --      1.4785                 1.2390                 1.5758
 Frc consts  --      1.8182                 1.5515                 1.9896
 IR Inten    --    244.2880               111.5555               190.6230

                     43                     44                     45
                      A                      A                      A
 Frequencies --   1476.7706              1480.9411              1488.6655
 Red. masses --      1.0489                 1.1039                 1.2414
 Frc consts  --      1.3477                 1.4265                 1.6209
 IR Inten    --     13.7999                28.3168               112.2868

                     46                     47                     48
                      A                      A                      A
 Frequencies --   1493.4681              1503.3394              1506.0135
 Red. masses --      1.1111                 1.0595                 1.0785
 Frc consts  --      1.4602                 1.4108                 1.4412
 IR Inten    --     61.3712                27.9041                18.4637

                     49                     50                     51
                      A                      A                      A
 Frequencies --   1575.0670              1645.4474              1657.2363
 Red. masses --      1.9837                 4.2863                 1.2233
 Frc consts  --      2.8995                 6.8375                 1.9795
 IR Inten    --    682.9553               407.8229                65.9467

                     52                     53                     54
                      A                      A                      A
 Frequencies --   3051.4179              3058.8775              3072.1257
 Red. masses --      1.0361                 1.0370                 1.0366
 Frc consts  --      5.6842                 5.7166                 5.7642
 IR Inten    --     76.9880                64.6010                 6.1384

                     55                     56                     57
                      A                      A                      A
 Frequencies --   3109.8688              3135.3590              3148.0955
 Red. masses --      1.1038                 1.1001                 1.1021
 Frc consts  --      6.2894                 6.3715                 6.4351
 IR Inten    --     41.2482                16.3830                 8.4368

                     58                     59                     60
                      A                      A                      A
 Frequencies --   3162.1897              3163.8814              3170.5964
 Red. masses --      1.1018                 1.1056                 1.1028
 Frc consts  --      6.4913                 6.5207                 6.5317
 IR Inten    --     22.4911                16.3896                10.9360

                     61                     62                     63
                      A                      A                      A
 Frequencies --   3473.7412              3583.4465              3686.5383
 Red. masses --      1.0574                 1.0913                 1.0779
 Frc consts  --      7.5176                 8.2563                 8.6309
 IR Inten    --     72.2778                59.2624                88.1831

 - Thermochemistry -
 -------------------
 Temperature   298.150 Kelvin.  Pressure   1.00000 Atm.
 Atom     1 has atomic number  6 and mass  12.00000

 Molecular mass:   285.93164 amu.
 Principal axes and moments of inertia in atomic units:
                           1         2         3
     Eigenvalues --  2659.003254450.060195543.76086
           X            0.98540   0.16412  -0.04523
           Y           -0.16379   0.98644   0.01078
           Z            0.04639  -0.00321   0.99892
 This molecule is an asymmetric top.
 Rotational symmetry number  1.
 Warning -- assumption of classical behavior for rotation
           may cause significant error
 Rotational temperatures (Kelvin)      0.03257     0.01946     0.01562
 Rotational constants (GHZ):           0.67873     0.40555     0.32554
    1 imaginary frequencies ignored.
 Zero-point vibrational energy     482218.0 (Joules/Mol)
                                  115.25286 (Kcal/Mol)
 Warning -- explicit consideration of  20 degrees of freedom as
           vibrations may cause significant error
 Vibrational temperatures:     76.34    85.78   100.47   130.16   157.91
          (Kelvin)            170.41   197.41   218.40   264.40   276.60
                              334.04   371.31   382.11   420.30   472.86
                              487.62   572.58   591.32   652.92   681.48
                              902.56  1013.76  1113.98  1123.09  1405.45
                             1456.13  1463.42  1500.56  1517.35  1562.40
                             1616.14  1663.62  1678.47  1715.65  1735.09
                             1891.48  1929.47  2037.86  2078.69  2097.55
                             2106.21  2124.74  2130.74  2141.86  2148.77
                             2162.97  2166.82  2266.17  2367.43  2384.39
                             4390.31  4401.04  4420.10  4474.41  4511.08
                             4529.41  4549.69  4552.12  4561.78  4997.94
                             5155.78  5304.11

 Zero-point correction=                           0.183667 (Hartree/Particle)
 Thermal correction to Energy=                    0.198132
 Thermal correction to Enthalpy=                  0.199076
 Thermal correction to Gibbs Free Energy=         0.140458
 Sum of electronic and zero-point Energies=          -5568.840430
 Sum of electronic and thermal Energies=             -5568.825965
 Sum of electronic and thermal Enthalpies=           -5568.825021
 Sum of electronic and thermal Free Energies=        -5568.883639

                     E (Thermal)             CV                S
                      KCal/Mol        Cal/Mol-Kelvin    Cal/Mol-Kelvin
 Total                  124.330             48.625            123.373
 Electronic               0.000              0.000              0.000
 Translational            0.889              2.981             42.850
 Rotational               0.889              2.981             32.550
 Vibrational            122.552             42.663             47.973
 Vibration     1          0.596              1.976              4.700
 Vibration     2          0.597              1.974              4.470
 Vibration     3          0.598              1.969              4.158
 Vibration     4          0.602              1.956              3.650
 Vibration     5          0.606              1.941              3.273
 Vibration     6          0.609              1.934              3.126
 Vibration     7          0.614              1.916              2.842
 Vibration     8          0.619              1.901              2.650
 Vibration     9          0.631              1.862              2.290
 Vibration    10          0.634              1.851              2.206
 Vibration    11          0.653              1.792              1.862
 Vibration    12          0.667              1.749              1.675
 Vibration    13          0.671              1.736              1.625
 Vibration    14          0.687              1.688              1.462
 Vibration    15          0.712              1.618              1.267
 Vibration    16          0.719              1.598              1.217
 Vibration    17          0.764              1.474              0.970
 Vibration    18          0.775              1.446              0.923
 Vibration    19          0.812              1.352              0.784
 Vibration    20          0.830              1.309              0.727

 Optimization completed.
    -- Stationary point found.
 Normal termination of Gaussian 16 at Tue Feb 16 07:29:10 2021.
