 Gaussian 16, Revision A.03,
 Gaussian 16:  ES64L-G16RevA.03 25-Dec-2016

 ----------------------------------------------------------------------
 # wB97XD def2tzvp, opt=(ts, noeigen, calcfc, maxcycles=70, maxstep=1),
  freq=noraman, scrf=(iefpcm, solvent=water)
 ----------------------------------------------------------------------

 -----------------------
 0_iteration/TS-50-0.out
 -----------------------
 Symbolic Z-matrix:
 Charge =  0 Multiplicity = 1

 SCF Done:  E(RwB97XD) =  -558.162128303     A.U. after   15 cycles
 SCF Done:  E(RwB97XD) =  -558.162119422     A.U. after   10 cycles
 SCF Done:  E(RwB97XD) =  -558.162114441     A.U. after   10 cycles
 SCF Done:  E(RwB97XD) =  -558.162115098     A.U. after   11 cycles
 SCF Done:  E(RwB97XD) =  -558.162125110     A.U. after   10 cycles
 SCF Done:  E(RwB97XD) =  -558.162141430     A.U. after   10 cycles
 SCF Done:  E(RwB97XD) =  -558.162167004     A.U. after   10 cycles
 SCF Done:  E(RwB97XD) =  -558.162201088     A.U. after   10 cycles
 SCF Done:  E(RwB97XD) =  -558.162246116     A.U. after   10 cycles
 SCF Done:  E(RwB97XD) =  -558.162308339     A.U. after   10 cycles
 SCF Done:  E(RwB97XD) =  -558.165027194     A.U. after   10 cycles
 SCF Done:  E(RwB97XD) =  -558.165028179     A.U. after   10 cycles
 SCF Done:  E(RwB97XD) =  -558.165023029     A.U. after   10 cycles
 SCF Done:  E(RwB97XD) =  -558.165017338     A.U. after   10 cycles
 SCF Done:  E(RwB97XD) =  -558.165022740     A.U. after   10 cycles
 SCF Done:  E(RwB97XD) =  -558.165026075     A.U. after   10 cycles
 SCF Done:  E(RwB97XD) =  -558.165026215     A.U. after   10 cycles
 SCF Done:  E(RwB97XD) =  -558.165023947     A.U. after    8 cycles
 SCF Done:  E(RwB97XD) =  -558.165025852     A.U. after    8 cycles
 Optimization completed.
    -- Stationary point found.
 Normal termination of Gaussian 16 at Sat Jan 30 15:14:19 2021.

 ---------------------------------------------------------------------
 #N Geom=AllCheck Guess=TCheck SCRF=Check GenChk RwB97XD/def2TZVP Freq
 ---------------------------------------------------------------------

 Structure from the checkpoint file:  "/beegfs/scratch/user/q/tla25/Gau-23403.chk"
 -----------------------
 0_iteration/TS-50-0.out
 -----------------------
 Charge =  0 Multiplicity = 1

                         Standard orientation:
 ---------------------------------------------------------------------
 Center     Atomic      Atomic             Coordinates (Angstroms)
 Number     Number       Type             X           Y           Z
 ---------------------------------------------------------------------
      1          6           0       -1.257323   -0.755727   -0.365475
      2          6           0       -2.589960   -1.029561    0.013585
      3          8           0       -3.309206   -1.833615   -0.613819
      4          6           0       -0.377103    0.143221    0.267122
      5          6           0       -1.871928    2.339946   -0.520440
      6          1           0       -1.955275    3.250362   -1.112325
      7          1           0       -2.495584    1.563088   -0.962725
      8          1           0       -2.210954    2.533973    0.495040
      9          7           0       -0.497909    1.852673   -0.481064
     10          1           0       -0.115046    1.758142   -1.415459
     11          1           0        0.110879    2.474923    0.039719
     12          6           0        1.098235   -0.059677    0.151939
     13          6           0        1.699663   -0.417649   -1.053720
     14          6           0        3.070144   -0.602771   -1.129819
     15          6           0        3.862194   -0.436559   -0.000971
     16          6           0        3.274341   -0.076808    1.201880
     17          6           0        1.902239    0.117146    1.274048
     18          1           0        1.095038   -0.551563   -1.942517
     19          1           0        3.522752   -0.878092   -2.074020
     20          1           0        4.932869   -0.584446   -0.061435
     21          1           0        3.883559    0.057169    2.086750
     22          1           0        1.448844    0.403190    2.216029
     23          1           0       -0.662107    0.472167    1.260608
     24          1           0       -0.906767   -1.290585   -1.241590
     25          6           0       -3.219761   -0.367189    1.229412
     26          1           0       -2.536824    0.209938    1.849479
     27          1           0       -4.017116    0.298206    0.891704
     28          1           0       -3.679705   -1.142503    1.843371
 ---------------------------------------------------------------------

 SCF Done:  E(RwB97XD) =  -558.165025852     A.U. after    1 cycles

 The electronic state is 1-A.
 Alpha  occ. eigenvalues --  -19.18564 -14.49201 -10.34203 -10.33873 -10.31820
 Alpha  occ. eigenvalues --  -10.30599 -10.29468 -10.29463 -10.29385 -10.29356
 Alpha  occ. eigenvalues --  -10.29266 -10.26712 -10.24211  -1.09027  -1.04650
 Alpha  occ. eigenvalues --   -0.97365  -0.90058  -0.85589  -0.84626  -0.80689
 Alpha  occ. eigenvalues --   -0.79073  -0.73869  -0.71029  -0.67919  -0.64028
 Alpha  occ. eigenvalues --   -0.61604  -0.60194  -0.57336  -0.55975  -0.54977
 Alpha  occ. eigenvalues --   -0.54718  -0.53181  -0.51803  -0.51246  -0.50324
 Alpha  occ. eigenvalues --   -0.48617  -0.48188  -0.47715  -0.45518  -0.44461
 Alpha  occ. eigenvalues --   -0.44143  -0.43387  -0.42398  -0.41214  -0.34210
 Alpha  occ. eigenvalues --   -0.33792  -0.30915  -0.26985
 Alpha virt. eigenvalues --    0.02726   0.04804   0.08653   0.10446   0.12532
 Alpha virt. eigenvalues --    0.13332   0.13551   0.15045   0.16274   0.17062
 Alpha virt. eigenvalues --    0.17293   0.17839   0.18680   0.18983   0.19620

 Mulliken charges:
               1
     1  C   -0.380349
     2  C    0.249618
     3  O   -0.571813
     4  C   -0.087823
     5  C   -0.302088
     6  H    0.163292
     7  H    0.155781
     8  H    0.158120
     9  N   -0.273919
    10  H    0.281594
    11  H    0.289482
    12  C    0.238842
    13  C   -0.271897
    14  C   -0.140880
    15  C   -0.149149
    16  C   -0.129211
    17  C   -0.229800
    18  H    0.160044
    19  H    0.145288
    20  H    0.146760
    21  H    0.145233
    22  H    0.142040
    23  H    0.163412
    24  H    0.098053
    25  C   -0.375071
    26  H    0.106218
    27  H    0.136019
    28  H    0.132204
 Sum of Mulliken charges =  -0.00000

 Dipole moment (field-independent basis, Debye):
    X=              7.0005    Y=             10.5822    Z=              1.2910  Tot=             12.7537
 Quadrupole moment (field-independent basis, Debye-Ang):
   XX=            -94.9027   YY=            -80.1580   ZZ=            -71.8581
   XY=            -21.2641   XZ=             -7.1523   YZ=             -4.0850

  Exact polarizability: 260.350  18.782 173.327   1.616  13.753 181.536
 Approx polarizability: 190.498  11.671 142.066   3.704  12.988 157.101

 ******    1 imaginary frequencies (negative Signs) ******

                      1                      2                      3
                      A                      A                      A
 Frequencies --   -344.1385                34.7013                64.5944
 Red. masses --      6.2287                 3.8002                 2.4215
 Frc consts  --      0.4346                 0.0027                 0.0060
 IR Inten    --    916.0355                 4.0228                 6.2718

                      4                      5                      6
                      A                      A                      A
 Frequencies --     81.3297                85.5139               116.1436
 Red. masses --      3.5473                 3.9553                 3.7275
 Frc consts  --      0.0138                 0.0170                 0.0296
 IR Inten    --      4.4045                 9.1025                 8.0969

                      7                      8                      9
                      A                      A                      A
 Frequencies --    119.5780               144.6139               233.9435
 Red. masses --      1.1176                 2.8530                 1.1081
 Frc consts  --      0.0094                 0.0352                 0.0357
 IR Inten    --      1.7545                 0.3324                 1.7708

                     10                     11                     12
                      A                      A                      A
 Frequencies --    254.6021               259.7371               290.6020
 Red. masses --      3.7036                 3.8798                 3.2547
 Frc consts  --      0.1414                 0.1542                 0.1619
 IR Inten    --      2.5889                 0.4431                29.1439

                     13                     14                     15
                      A                      A                      A
 Frequencies --    331.7112               419.2995               432.2023
 Red. masses --      4.8770                 2.8603                 2.9900
 Frc consts  --      0.3162                 0.2963                 0.3291
 IR Inten    --      6.6294                 1.2899                44.0820

                     16                     17                     18
                      A                      A                      A
 Frequencies --    490.1927               541.1323               565.1876
 Red. masses --      3.0108                 2.3207                 3.2022
 Frc consts  --      0.4262                 0.4004                 0.6027
 IR Inten    --      6.8082                53.9166                46.8663

                     19                     20                     21
                      A                      A                      A
 Frequencies --    594.1898               634.4716               638.9875
 Red. masses --      2.1714                 5.4564                 6.0896
 Frc consts  --      0.4517                 1.2941                 1.4649
 IR Inten    --     40.3712                39.6478                13.2678

                     22                     23                     24
                      A                      A                      A
 Frequencies --    721.7923               724.5323               773.3155
 Red. masses --      1.5829                 1.6043                 1.5791
 Frc consts  --      0.4859                 0.4962                 0.5564
 IR Inten    --     13.2094                55.0780               169.4066

                     25                     26                     27
                      A                      A                      A
 Frequencies --    809.2263               853.3549               869.5162
 Red. masses --      2.0391                 3.2152                 3.8422
 Frc consts  --      0.7867                 1.3795                 1.7115
 IR Inten    --     20.5987                 8.0137                 9.8201

                     28                     29                     30
                      A                      A                      A
 Frequencies --    877.6752               960.5702              1008.2523
 Red. masses --      1.2578                 1.4511                 1.1121
 Frc consts  --      0.5708                 0.7888                 0.6661
 IR Inten    --      0.3912                 0.4085                28.2607

                     31                     32                     33
                      A                      A                      A
 Frequencies --   1014.6224              1026.0885              1027.5855
 Red. masses --      1.3533                 6.0348                 1.4955
 Frc consts  --      0.8208                 3.7435                 0.9304
 IR Inten    --      4.3862                 0.3546                76.8084

                     34                     35                     36
                      A                      A                      A
 Frequencies --   1032.2625              1043.0321              1050.1810
 Red. masses --      1.3171                 1.4461                 1.3804
 Frc consts  --      0.8269                 0.9269                 0.8970
 IR Inten    --      1.7753                63.8418                28.0721

                     37                     38                     39
                      A                      A                      A
 Frequencies --   1063.5492              1083.7266              1112.7670
 Red. masses --      2.0622                 4.4569                 1.6123
 Frc consts  --      1.3743                 3.0840                 1.1763
 IR Inten    --      2.1697                63.8766                25.8462

                     40                     41                     42
                      A                      A                      A
 Frequencies --   1184.6260              1195.2070              1211.7895
 Red. masses --      1.1414                 1.1559                 1.1241
 Frc consts  --      0.9438                 0.9729                 0.9725
 IR Inten    --      1.3461               111.0700                 1.9345

                     43                     44                     45
                      A                      A                      A
 Frequencies --   1223.8786              1237.9202              1277.1178
 Red. masses --      2.2404                 1.4610                 1.4740
 Frc consts  --      1.9772                 1.3192                 1.4165
 IR Inten    --    119.5772                22.0157                18.4421

                     46                     47                     48
                      A                      A                      A
 Frequencies --   1289.0781              1324.0702              1343.4977
 Red. masses --      2.0649                 2.2608                 1.5268
 Frc consts  --      2.0216                 2.3353                 1.6237
 IR Inten    --     84.7895               131.9586                23.5576

                     49                     50                     51
                      A                      A                      A
 Frequencies --   1353.9214              1374.6560              1392.7998
 Red. masses --      2.3836                 1.5084                 1.3424
 Frc consts  --      2.5744                 1.6793                 1.5343
 IR Inten    --     25.0424                89.8293                86.8449

                     52                     53                     54
                      A                      A                      A
 Frequencies --   1454.7688              1469.4512              1477.0742
 Red. masses --      1.1954                 1.1039                 1.1887
 Frc consts  --      1.4906                 1.4043                 1.5280
 IR Inten    --     39.9909                98.5412                84.9046

                     55                     56                     57
                      A                      A                      A
 Frequencies --   1492.0409              1500.3190              1508.0515
 Red. masses --      2.0195                 1.0516                 1.0507
 Frc consts  --      2.6488                 1.3946                 1.4079
 IR Inten    --     64.1189                11.1176                30.4160

                     58                     59                     60
                      A                      A                      A
 Frequencies --   1531.4247              1552.1401              1596.1626
 Red. masses --      2.2351                 2.6428                 6.7839
 Frc consts  --      3.0884                 3.7513                10.1833
 IR Inten    --    189.8989                40.1498              1516.6775

                     61                     62                     63
                      A                      A                      A
 Frequencies --   1640.1619              1656.1455              1677.4496
 Red. masses --      1.0930                 5.6703                 5.8548
 Frc consts  --      1.7324                 9.1633                 9.7064
 IR Inten    --     47.5202                 2.7553                 0.7595

                     64                     65                     66
                      A                      A                      A
 Frequencies --   3062.1129              3072.0642              3130.1298
 Red. masses --      1.0379                 1.0326                 1.1002
 Frc consts  --      5.7340                 5.7416                 6.3509
 IR Inten    --     19.1364                33.5750                22.4392

                     67                     68                     69
                      A                      A                      A
 Frequencies --   3152.4393              3156.5339              3169.3981
 Red. masses --      1.1049                 1.1005                 1.1058
 Frc consts  --      6.4695                 6.4604                 6.5443
 IR Inten    --      6.2913                23.7870                16.4006

                     70                     71                     72
                      A                      A                      A
 Frequencies --   3172.1652              3179.3186              3190.9729
 Red. masses --      1.0889                 1.0868                 1.0876
 Frc consts  --      6.4558                 6.4726                 6.5245
 IR Inten    --      3.4053                45.7612                 8.2674

                     73                     74                     75
                      A                      A                      A
 Frequencies --   3195.5490              3204.0730              3212.6060
 Red. masses --      1.0874                 1.0908                 1.0949
 Frc consts  --      6.5425                 6.5980                 6.6579
 IR Inten    --      3.5832                 7.8284                35.8340

                     76                     77                     78
                      A                      A                      A
 Frequencies --   3222.9714              3513.4626              3596.5080
 Red. masses --      1.0988                 1.0509                 1.0967
 Frc consts  --      6.7251                 7.6430                 8.3577
 IR Inten    --     17.9520                41.2293                43.3654

 - Thermochemistry -
 -------------------
 Temperature   298.150 Kelvin.  Pressure   1.00000 Atm.
 Atom     1 has atomic number  6 and mass  12.00000

 Molecular mass:   177.11536 amu.
 Principal axes and moments of inertia in atomic units:
                           1         2         3
     Eigenvalues --  1294.522674284.473854640.00186
           X            0.99971  -0.02191  -0.00989
           Y            0.02179   0.99968  -0.01280
           Z            0.01016   0.01258   0.99987
 This molecule is an asymmetric top.
 Rotational symmetry number  1.
 Warning -- assumption of classical behavior for rotation
           may cause significant error
 Rotational temperatures (Kelvin)      0.06691     0.02022     0.01867
 Rotational constants (GHZ):           1.39414     0.42123     0.38895
    1 imaginary frequencies ignored.
 Zero-point vibrational energy     631501.7 (Joules/Mol)
                                  150.93253 (Kcal/Mol)
 Warning -- explicit consideration of  18 degrees of freedom as
           vibrations may cause significant error
 Vibrational temperatures:     49.93    92.94   117.02   123.04   167.10
          (Kelvin)            172.05   208.07   336.59   366.32   373.70
                              418.11   477.26   603.28   621.84   705.28
                              778.57   813.18   854.91   912.86   919.36
                             1038.50  1042.44  1112.63  1164.30  1227.79
                             1251.04  1262.78  1382.05  1450.65  1459.82
                             1476.31  1478.47  1485.20  1500.69  1510.98
                             1530.21  1559.24  1601.02  1704.41  1719.64
                             1743.49  1760.89  1781.09  1837.49  1854.70
                             1905.04  1932.99  1947.99  1977.82  2003.93
                             2093.09  2114.21  2125.18  2146.71  2158.62
                             2169.75  2203.38  2233.18  2296.52  2359.83
                             2382.82  2413.48  4405.70  4420.02  4503.56
                             4535.66  4541.55  4560.06  4564.04  4574.33
                             4591.10  4597.68  4609.95  4622.22  4637.14
                             5055.09  5174.57

 Zero-point correction=                           0.240526 (Hartree/Particle)
 Thermal correction to Energy=                    0.253624
 Thermal correction to Enthalpy=                  0.254568
 Thermal correction to Gibbs Free Energy=         0.199904
 Sum of electronic and zero-point Energies=           -557.924500
 Sum of electronic and thermal Energies=              -557.911402
 Sum of electronic and thermal Enthalpies=            -557.910458
 Sum of electronic and thermal Free Energies=         -557.965122

                     E (Thermal)             CV                S
                      KCal/Mol        Cal/Mol-Kelvin    Cal/Mol-Kelvin
 Total                  159.151             48.504            115.051
 Electronic               0.000              0.000              0.000
 Translational            0.889              2.981             41.422
 Rotational               0.889              2.981             31.621
 Vibrational            157.374             42.542             42.008
 Vibration     1          0.594              1.983              5.541
 Vibration     2          0.597              1.971              4.312
 Vibration     3          0.600              1.962              3.859
 Vibration     4          0.601              1.959              3.760
 Vibration     5          0.608              1.936              3.164
 Vibration     6          0.609              1.933              3.107
 Vibration     7          0.616              1.908              2.742
 Vibration     8          0.654              1.789              1.848
 Vibration     9          0.665              1.755              1.698
 Vibration    10          0.668              1.746              1.664
 Vibration    11          0.687              1.691              1.470
 Vibration    12          0.714              1.612              1.252
 Vibration    13          0.782              1.428              0.894
 Vibration    14          0.793              1.400              0.851
 Vibration    15          0.846              1.272              0.683
 Vibration    16          0.896              1.159              0.563
 Vibration    17          0.921              1.107              0.514
 Vibration    18          0.952              1.044              0.460

 Optimization completed.
    -- Stationary point found.
 Normal termination of Gaussian 16 at Sat Jan 30 16:00:57 2021.
