 Gaussian 16, Revision A.03,
 Gaussian 16:  ES64L-G16RevA.03 25-Dec-2016

 ----------------------------------------------------------------------
 # wB97XD def2tzvp, opt=(ts, noeigen, calcfc, maxcycles=70, maxstep=3),
  freq=noraman, scrf=(iefpcm, solvent=water)
 ----------------------------------------------------------------------

 ------------------------
 0_iteration/TS-572-0.out
 ------------------------
 Symbolic Z-matrix:
 Charge =  0 Multiplicity = 1

 SCF Done:  E(RwB97XD) =  -901.271629093     A.U. after   14 cycles
 SCF Done:  E(RwB97XD) =  -901.271430876     A.U. after   11 cycles
 SCF Done:  E(RwB97XD) =  -901.271299069     A.U. after   11 cycles
 SCF Done:  E(RwB97XD) =  -901.271236471     A.U. after   11 cycles
 SCF Done:  E(RwB97XD) =  -901.271248750     A.U. after   11 cycles
 SCF Done:  E(RwB97XD) =  -901.271377614     A.U. after   11 cycles
 SCF Done:  E(RwB97XD) =  -901.271672317     A.U. after   11 cycles
 SCF Done:  E(RwB97XD) =  -901.272080773     A.U. after   11 cycles
 SCF Done:  E(RwB97XD) =  -901.272570403     A.U. after   11 cycles
 SCF Done:  E(RwB97XD) =  -901.273102451     A.U. after   11 cycles
 SCF Done:  E(RwB97XD) =  -901.275100121     A.U. after   11 cycles
 SCF Done:  E(RwB97XD) =  -901.275473302     A.U. after   11 cycles
 SCF Done:  E(RwB97XD) =  -901.275694712     A.U. after   12 cycles
 SCF Done:  E(RwB97XD) =  -901.275805640     A.U. after   12 cycles
 SCF Done:  E(RwB97XD) =  -901.275822751     A.U. after   11 cycles
 SCF Done:  E(RwB97XD) =  -901.275829157     A.U. after   10 cycles
 SCF Done:  E(RwB97XD) =  -901.275829426     A.U. after   10 cycles
 SCF Done:  E(RwB97XD) =  -901.275829696     A.U. after    8 cycles
 SCF Done:  E(RwB97XD) =  -901.275829799     A.U. after    7 cycles
 Optimization completed.
    -- Stationary point found.
 Normal termination of Gaussian 16 at Tue Apr 13 10:27:59 2021.

 ---------------------------------------------------------------------
 #N Geom=AllCheck Guess=TCheck SCRF=Check GenChk RwB97XD/def2TZVP Freq
 ---------------------------------------------------------------------

 Structure from the checkpoint file:  "/beegfs/scratch/user/q/tla25/Gau-244087.chk"
 ------------------------
 0_iteration/TS-572-0.out
 ------------------------
 Charge =  0 Multiplicity = 1

                         Standard orientation:
 ---------------------------------------------------------------------
 Center     Atomic      Atomic             Coordinates (Angstroms)
 Number     Number       Type             X           Y           Z
 ---------------------------------------------------------------------
      1          6           0        0.479267   -0.674718    0.723753
      2          6           0        1.537286   -0.009213    0.039304
      3          8           0        1.439065    0.747345   -0.919131
      4          6           0       -0.848732   -0.641254    0.336747
      5          6           0       -2.785979    1.675972    0.226575
      6          1           0       -2.876010    2.760455    0.310289
      7          1           0       -3.018283    1.379193   -0.794652
      8          1           0       -3.500519    1.210886    0.903007
      9          7           0       -1.438952    1.220153    0.557263
     10          1           0       -0.733232    1.667480   -0.019228
     11          1           0       -1.204710    1.398971    1.526784
     12          6           0       -1.869516   -1.363924    1.166233
     13          1           0       -1.706438   -1.151364    2.222631
     14          1           0       -2.882845   -1.078014    0.892766
     15          1           0       -1.765067   -2.437521    1.005618
     16         17           0       -1.243465   -0.763784   -1.406493
     17          1           0        0.692012   -1.095316    1.696862
     18          8           0        2.746769   -0.273128    0.598040
     19          6           0        3.862477    0.398143    0.030784
     20          1           0        4.726371    0.083901    0.611573
     21          1           0        3.999140    0.120195   -1.014934
     22          1           0        3.745667    1.480630    0.097174
 ---------------------------------------------------------------------

 SCF Done:  E(RwB97XD) =  -901.275829799     A.U. after    1 cycles

 The electronic state is 1-A.
 Alpha  occ. eigenvalues -- -101.69138 -19.27918 -19.21310 -14.47731 -10.39957
 Alpha  occ. eigenvalues --  -10.39512 -10.32478 -10.31559 -10.28999 -10.25362
 Alpha  occ. eigenvalues --   -9.57738  -7.32360  -7.31541  -7.31487  -1.19209
 Alpha  occ. eigenvalues --   -1.09776  -1.03563  -0.96875  -0.87391  -0.83824
 Alpha  occ. eigenvalues --   -0.79548  -0.77994  -0.68333  -0.62915  -0.62744
 Alpha  occ. eigenvalues --   -0.59587  -0.57161  -0.56559  -0.55712  -0.55171
 Alpha  occ. eigenvalues --   -0.52230  -0.51466  -0.49987  -0.48044  -0.47525
 Alpha  occ. eigenvalues --   -0.46993  -0.46287  -0.43641  -0.43254  -0.39669
 Alpha  occ. eigenvalues --   -0.38445  -0.37772  -0.34920  -0.28294
 Alpha virt. eigenvalues --    0.04689   0.09047   0.10321   0.13519   0.14616
 Alpha virt. eigenvalues --    0.15055   0.15683   0.17223   0.17717   0.18426
 Alpha virt. eigenvalues --    0.19240   0.19735   0.20139   0.20697   0.21072

 Mulliken charges:
               1
     1  C   -0.496152
     2  C    0.454509
     3  O   -0.515661
     4  C    0.220426
     5  C   -0.280075
     6  H    0.152442
     7  H    0.145121
     8  H    0.153051
     9  N   -0.354201
    10  H    0.277967
    11  H    0.276569
    12  C   -0.379744
    13  H    0.147614
    14  H    0.150922
    15  H    0.154868
    16  Cl  -0.137665
    17  H    0.143745
    18  O   -0.311807
    19  C   -0.187021
    20  H    0.136850
    21  H    0.124564
    22  H    0.123679
 Sum of Mulliken charges =  -0.00000

 Dipole moment (field-independent basis, Debye):
    X=             -4.6371    Y=              2.7115    Z=              4.5759  Tot=              7.0565
 Quadrupole moment (field-independent basis, Debye-Ang):
   XX=            -55.5715   YY=            -63.9600   ZZ=            -68.4043
   XY=             -3.6311   XZ=             -3.9185   YZ=              2.1401

  Exact polarizability: 179.805  -8.207 129.596   1.528  -3.607 129.566
 Approx polarizability: 129.274  -5.303 108.926   2.557  -4.832 114.235

 ******    1 imaginary frequencies (negative Signs) ******

                      1                      2                      3
                      A                      A                      A
 Frequencies --   -369.9728                61.7823                64.6786
 Red. masses --      5.7024                 3.4493                 4.2942
 Frc consts  --      0.4599                 0.0078                 0.0106
 IR Inten    --    744.6951                10.7202                 7.6633

                      4                      5                      6
                      A                      A                      A
 Frequencies --     97.3238               120.6525               147.7027
 Red. masses --      1.9389                 4.0801                 3.6778
 Frc consts  --      0.0108                 0.0350                 0.0473
 IR Inten    --      6.6479                 1.4552                14.7549

                      7                      8                      9
                      A                      A                      A
 Frequencies --    172.7112               177.9862               204.8292
 Red. masses --      1.3729                 1.3322                 2.4353
 Frc consts  --      0.0241                 0.0249                 0.0602
 IR Inten    --      1.5461                 1.8825                13.9085

                     10                     11                     12
                      A                      A                      A
 Frequencies --    239.2590               267.5178               276.0719
 Red. masses --      1.1642                 2.4643                 4.5289
 Frc consts  --      0.0393                 0.1039                 0.2034
 IR Inten    --      3.6149                 3.2688                26.4459

                     13                     14                     15
                      A                      A                      A
 Frequencies --    315.9299               357.4444               374.6507
 Red. masses --      2.9136                 3.4861                 6.3615
 Frc consts  --      0.1713                 0.2624                 0.5261
 IR Inten    --      9.2813                 3.5673                24.6013

                     16                     17                     18
                      A                      A                      A
 Frequencies --    438.9828               497.2153               599.4797
 Red. masses --      3.6282                 4.3006                 2.4948
 Frc consts  --      0.4119                 0.6264                 0.5282
 IR Inten    --     83.0634                21.9447                47.1168

                     19                     20                     21
                      A                      A                      A
 Frequencies --    666.0769               691.9483               737.6465
 Red. masses --      1.2712                 1.6463                 4.7519
 Frc consts  --      0.3323                 0.4644                 1.5234
 IR Inten    --     54.4850               124.6087                 2.2426

                     22                     23                     24
                      A                      A                      A
 Frequencies --    801.8774               951.6720               996.7131
 Red. masses --      9.9994                 4.5391                 2.1765
 Frc consts  --      3.7883                 2.4221                 1.2739
 IR Inten    --    111.7309                67.9548                79.0454

                     25                     26                     27
                      A                      A                      A
 Frequencies --   1015.5965              1040.3627              1053.0834
 Red. masses --      1.1136                 1.1584                 1.7935
 Frc consts  --      0.6768                 0.7387                 1.1718
 IR Inten    --     58.2484               150.3380                82.0104

                     28                     29                     30
                      A                      A                      A
 Frequencies --   1084.4765              1107.9208              1133.6089
 Red. masses --      2.8460                 2.3804                 3.8579
 Frc consts  --      1.9721                 1.7215                 2.9210
 IR Inten    --     57.2011                78.9359                95.0486

                     31                     32                     33
                      A                      A                      A
 Frequencies --   1182.8102              1202.9406              1217.0411
 Red. masses --      1.2838                 2.1780                 1.4196
 Frc consts  --      1.0583                 1.8570                 1.2388
 IR Inten    --      2.0365              1012.9536                24.2925

                     34                     35                     36
                      A                      A                      A
 Frequencies --   1218.6488              1332.9510              1347.5495
 Red. masses --      1.4927                 2.3354                 1.3652
 Frc consts  --      1.3061                 2.4448                 1.4606
 IR Inten    --      9.6821                56.3877                31.0181

                     37                     38                     39
                      A                      A                      A
 Frequencies --   1417.1385              1455.8538              1473.0098
 Red. masses --      1.2604                 1.1920                 1.1813
 Frc consts  --      1.4913                 1.4885                 1.5101
 IR Inten    --     12.2071                35.2237                36.9590

                     40                     41                     42
                      A                      A                      A
 Frequencies --   1478.0323              1482.7159              1484.3672
 Red. masses --      1.0705                 1.0448                 1.0980
 Frc consts  --      1.3778                 1.3533                 1.4254
 IR Inten    --      6.6737                13.0647                59.7799

                     43                     44                     45
                      A                      A                      A
 Frequencies --   1493.7055              1496.1802              1505.4560
 Red. masses --      1.0487                 1.0773                 1.0421
 Frc consts  --      1.3785                 1.4208                 1.3915
 IR Inten    --     29.3563                81.2349                38.3287

                     46                     47                     48
                      A                      A                      A
 Frequencies --   1525.7612              1646.1389              1696.1216
 Red. masses --      3.1883                 1.0883                10.4853
 Frc consts  --      4.3730                 1.7376                17.7723
 IR Inten    --    902.7669                51.3128               567.4894

                     49                     50                     51
                      A                      A                      A
 Frequencies --   3058.0853              3063.6914              3071.3821
 Red. masses --      1.0311                 1.0363                 1.0361
 Frc consts  --      5.6816                 5.7310                 5.7586
 IR Inten    --     63.4520                51.5624                 9.4714

                     52                     53                     54
                      A                      A                      A
 Frequencies --   3131.1443              3140.6958              3148.1744
 Red. masses --      1.1064                 1.1009                 1.1024
 Frc consts  --      6.3909                 6.3978                 6.4373
 IR Inten    --     42.7495                15.8374                10.8919

                     55                     56                     57
                      A                      A                      A
 Frequencies --   3165.8688              3167.5380              3168.8864
 Red. masses --      1.1039                 1.1048                 1.1050
 Frc consts  --      6.5188                 6.5312                 6.5376
 IR Inten    --     16.9257                28.7980                12.3886

                     58                     59                     60
                      A                      A                      A
 Frequencies --   3215.5970              3510.0343              3595.9697
 Red. masses --      1.0888                 1.0521                 1.0959
 Frc consts  --      6.6334                 7.6372                 8.3495
 IR Inten    --      2.0111                24.6539                50.0365

 - Thermochemistry -
 -------------------
 Temperature   298.150 Kelvin.  Pressure   1.00000 Atm.
 Atom     1 has atomic number  6 and mass  12.00000

 Molecular mass:   165.05566 amu.
 Principal axes and moments of inertia in atomic units:
                           1         2         3
     Eigenvalues --   996.043832930.206692998.17699
           X            0.99968  -0.01632  -0.01942
           Y            0.00979   0.95441  -0.29834
           Z            0.02341   0.29805   0.95426
 This molecule is an asymmetric top.
 Rotational symmetry number  1.
 Warning -- assumption of classical behavior for rotation
           may cause significant error
 Rotational temperatures (Kelvin)      0.08696     0.02956     0.02889
 Rotational constants (GHZ):           1.81191     0.61591     0.60195
    1 imaginary frequencies ignored.
 Zero-point vibrational energy     477242.4 (Joules/Mol)
                                  114.06366 (Kcal/Mol)
 Warning -- explicit consideration of  17 degrees of freedom as
           vibrations may cause significant error
 Vibrational temperatures:     88.89    93.06   140.03   173.59   212.51
          (Kelvin)            248.49   256.08   294.70   344.24   384.90
                              397.21   454.55   514.28   539.04   631.60
                              715.38   862.52   958.34   995.56  1061.31
                             1153.72  1369.24  1434.05  1461.22  1496.85
                             1515.15  1560.32  1594.05  1631.01  1701.80
                             1730.76  1751.05  1753.36  1917.82  1938.82
                             2038.95  2094.65  2119.33  2126.56  2133.30
                             2135.67  2149.11  2152.67  2166.02  2195.23
                             2368.43  2440.34  4399.90  4407.97  4419.03
                             4505.02  4518.76  4529.52  4554.98  4557.38
                             4559.32  4626.53  5050.16  5173.80

 Zero-point correction=                           0.181772 (Hartree/Particle)
 Thermal correction to Energy=                    0.194032
 Thermal correction to Enthalpy=                  0.194977
 Thermal correction to Gibbs Free Energy=         0.143103
 Sum of electronic and zero-point Energies=           -901.094058
 Sum of electronic and thermal Energies=              -901.081797
 Sum of electronic and thermal Enthalpies=            -901.080853
 Sum of electronic and thermal Free Energies=         -901.132726

                     E (Thermal)             CV                S
                      KCal/Mol        Cal/Mol-Kelvin    Cal/Mol-Kelvin
 Total                  121.757             42.654            109.177
 Electronic               0.000              0.000              0.000
 Translational            0.889              2.981             41.212
 Rotational               0.889              2.981             30.549
 Vibrational            119.980             36.693             37.416
 Vibration     1          0.597              1.973              4.399
 Vibration     2          0.597              1.971              4.309
 Vibration     3          0.603              1.951              3.507
 Vibration     4          0.609              1.932              3.090
 Vibration     5          0.617              1.905              2.702
 Vibration     6          0.626              1.876              2.406
 Vibration     7          0.628              1.869              2.349
 Vibration     8          0.640              1.833              2.089
 Vibration     9          0.657              1.780              1.808
 Vibration    10          0.673              1.733              1.612
 Vibration    11          0.678              1.718              1.558
 Vibration    12          0.703              1.643              1.331
 Vibration    13          0.733              1.560              1.133
 Vibration    14          0.746              1.524              1.061
 Vibration    15          0.799              1.385              0.830
 Vibration    16          0.853              1.256              0.665
 Vibration    17          0.958              1.033              0.451

 Optimization completed.
    -- Stationary point found.
 Normal termination of Gaussian 16 at Tue Apr 13 10:34:04 2021.
