 Gaussian 16, Revision A.03,
 Gaussian 16:  ES64L-G16RevA.03 25-Dec-2016

 ----------------------------------------------------------------------
 # wB97XD def2tzvp, opt=(ts, noeigen, calcfc, maxcycles=70, maxstep=1),
  freq=noraman, scrf=(iefpcm, solvent=water)
 ----------------------------------------------------------------------

 -----------------------
 0_iteration/TS-53-0.out
 -----------------------
 Symbolic Z-matrix:
 Charge =  0 Multiplicity = 1

 SCF Done:  E(RwB97XD) =  -613.531992827     A.U. after   14 cycles
 SCF Done:  E(RwB97XD) =  -613.531906412     A.U. after   10 cycles
 SCF Done:  E(RwB97XD) =  -613.531823699     A.U. after   10 cycles
 SCF Done:  E(RwB97XD) =  -613.531744717     A.U. after   10 cycles
 SCF Done:  E(RwB97XD) =  -613.531669518     A.U. after   10 cycles
 SCF Done:  E(RwB97XD) =  -613.531598162     A.U. after   10 cycles
 SCF Done:  E(RwB97XD) =  -613.531530722     A.U. after   10 cycles
 SCF Done:  E(RwB97XD) =  -613.531467284     A.U. after   10 cycles
 SCF Done:  E(RwB97XD) =  -613.531407954     A.U. after   10 cycles
 SCF Done:  E(RwB97XD) =  -613.531352866     A.U. after   10 cycles
 SCF Done:  E(RwB97XD) =  -613.532453643     A.U. after    9 cycles
 SCF Done:  E(RwB97XD) =  -613.532487943     A.U. after    9 cycles
 SCF Done:  E(RwB97XD) =  -613.532512937     A.U. after    9 cycles
 SCF Done:  E(RwB97XD) =  -613.532527884     A.U. after    9 cycles
 SCF Done:  E(RwB97XD) =  -613.532530007     A.U. after   10 cycles
 SCF Done:  E(RwB97XD) =  -613.532530863     A.U. after    8 cycles
 SCF Done:  E(RwB97XD) =  -613.532530865     A.U. after    8 cycles
 SCF Done:  E(RwB97XD) =  -613.532530570     A.U. after    6 cycles
 SCF Done:  E(RwB97XD) =  -613.532530619     A.U. after    7 cycles
 Optimization completed.
    -- Stationary point found.
 Normal termination of Gaussian 16 at Sat Jan 30 16:16:24 2021.

 ---------------------------------------------------------------------
 #N Geom=AllCheck Guess=TCheck SCRF=Check GenChk RwB97XD/def2TZVP Freq
 ---------------------------------------------------------------------

 Structure from the checkpoint file:  "/beegfs/scratch/user/q/tla25/Gau-5078.chk"
 -----------------------
 0_iteration/TS-53-0.out
 -----------------------
 Charge =  0 Multiplicity = 1

                         Standard orientation:
 ---------------------------------------------------------------------
 Center     Atomic      Atomic             Coordinates (Angstroms)
 Number     Number       Type             X           Y           Z
 ---------------------------------------------------------------------
      1          6           0       -1.031477   -0.940984   -0.215196
      2          6           0       -2.449201   -0.892231   -0.106678
      3          8           0       -3.205192   -1.786964   -0.532309
      4          6           0       -0.162216    0.116740    0.147427
      5          6           0        0.391589    2.707787   -0.688893
      6          1           0        0.058807    3.032812    0.295661
      7          1           0        1.463048    2.522430   -0.659680
      8          1           0        0.176188    3.487669   -1.417791
      9          7           0       -0.297539    1.461184   -1.029531
     10          1           0       -1.302636    1.593080   -1.096771
     11          1           0        0.018113    1.082156   -1.916039
     12          6           0        1.306765   -0.159072    0.180210
     13          6           0        1.947110   -0.796991   -0.880369
     14          6           0        3.309158   -1.045661   -0.834062
     15          6           0        4.052253   -0.661489    0.274598
     16          6           0        3.424960   -0.021084    1.332282
     17          6           0        2.062061    0.234396    1.280109
     18          1           0        1.377730   -1.101203   -1.750738
     19          1           0        3.793337   -1.540332   -1.666555
     20          1           0        5.116366   -0.857200    0.310158
     21          1           0        3.996829    0.285958    2.198759
     22          1           0        1.577947    0.742578    2.105849
     23          1           0       -0.451842    0.723673    1.005235
     24          1           0       -0.632313   -1.781230   -0.766795
     25          7           0       -3.023316    0.241169    0.462227
     26          6           0       -4.427616    0.237888    0.811012
     27          1           0       -2.441149    0.765841    1.092792
     28          1           0       -4.678691   -0.519719    1.561018
     29          1           0       -4.690345    1.218942    1.204929
     30          1           0       -5.034184    0.047991   -0.073075
 ---------------------------------------------------------------------

 SCF Done:  E(RwB97XD) =  -613.532530619     A.U. after    1 cycles

 The electronic state is 1-A.
 Alpha  occ. eigenvalues --  -19.18114 -14.50021 -14.43206 -10.35577 -10.34279
 Alpha  occ. eigenvalues --  -10.32326 -10.30529 -10.29872 -10.29421 -10.29414
 Alpha  occ. eigenvalues --  -10.29351 -10.29322 -10.29232 -10.23236  -1.10432
 Alpha  occ. eigenvalues --   -1.05510  -0.99499  -0.97297  -0.89765  -0.85552
 Alpha  occ. eigenvalues --   -0.83922  -0.79773  -0.77993  -0.73330  -0.70963
 Alpha  occ. eigenvalues --   -0.68070  -0.64673  -0.64355  -0.60984  -0.59582
 Alpha  occ. eigenvalues --   -0.57253  -0.55780  -0.54860  -0.54572  -0.52410
 Alpha  occ. eigenvalues --   -0.52088  -0.51320  -0.50502  -0.48743  -0.48329
 Alpha  occ. eigenvalues --   -0.47499  -0.46199  -0.45865  -0.44672  -0.44189
 Alpha  occ. eigenvalues --   -0.42931  -0.42545  -0.34189  -0.34042  -0.33107
 Alpha  occ. eigenvalues --   -0.31751  -0.25557
 Alpha virt. eigenvalues --    0.03464   0.04850   0.09532   0.10730   0.12274
 Alpha virt. eigenvalues --    0.13168   0.13479   0.15006   0.15959   0.16309
 Alpha virt. eigenvalues --    0.17121   0.17259   0.18091   0.18665   0.19114

 Mulliken charges:
               1
     1  C   -0.438166
     2  C    0.332379
     3  O   -0.594494
     4  C   -0.112252
     5  C   -0.292677
     6  H    0.155740
     7  H    0.164780
     8  H    0.164712
     9  N   -0.224857
    10  H    0.279383
    11  H    0.281286
    12  C    0.176735
    13  C   -0.249890
    14  C   -0.152086
    15  C   -0.141514
    16  C   -0.135994
    17  C   -0.223656
    18  H    0.160835
    19  H    0.144815
    20  H    0.146538
    21  H    0.144590
    22  H    0.142868
    23  H    0.160857
    24  H    0.112165
    25  N   -0.342769
    26  C   -0.266818
    27  H    0.237990
    28  H    0.112097
    29  H    0.132424
    30  H    0.124978
 Sum of Mulliken charges =  -0.00000

 Dipole moment (field-independent basis, Debye):
    X=              6.8431    Y=             10.8177    Z=             -0.0772  Tot=             12.8006
 Quadrupole moment (field-independent basis, Debye-Ang):
   XX=            -95.9035   YY=            -87.1934   ZZ=            -76.1980
   XY=            -20.5073   XZ=             -7.5051   YZ=             -2.1629

  Exact polarizability: 270.622  10.873 187.747   1.349  17.946 181.951
 Approx polarizability: 194.961   5.089 154.775   3.116  17.176 157.584

 ******    1 imaginary frequencies (negative Signs) ******

                      1                      2                      3
                      A                      A                      A
 Frequencies --   -341.3917                39.9540                56.3426
 Red. masses --      6.1780                 3.7920                 4.0903
 Frc consts  --      0.4242                 0.0036                 0.0077
 IR Inten    --    737.1229                 2.1178                 7.2978

                      4                      5                      6
                      A                      A                      A
 Frequencies --     70.3577                84.9768                90.9364
 Red. masses --      2.9908                 3.8815                 3.7791
 Frc consts  --      0.0087                 0.0165                 0.0184
 IR Inten    --      2.0384                 7.0309                21.7054

                      7                      8                      9
                      A                      A                      A
 Frequencies --    132.7203               149.5635               179.3501
 Red. masses --      1.7548                 1.8927                 1.3864
 Frc consts  --      0.0182                 0.0249                 0.0263
 IR Inten    --      6.9379                10.2810                 5.4758

                     10                     11                     12
                      A                      A                      A
 Frequencies --    193.0357               213.5560               241.3405
 Red. masses --      1.6852                 2.9414                 3.3596
 Frc consts  --      0.0370                 0.0790                 0.1153
 IR Inten    --      1.8940                 1.9747                21.0743

                     13                     14                     15
                      A                      A                      A
 Frequencies --    288.5045               321.3502               351.7456
 Red. masses --      3.4274                 3.9886                 3.6163
 Frc consts  --      0.1681                 0.2427                 0.2636
 IR Inten    --     22.7361                35.4967                 3.4296

                     16                     17                     18
                      A                      A                      A
 Frequencies --    418.5426               422.4330               481.7635
 Red. masses --      3.1739                 2.8738                 1.7288
 Frc consts  --      0.3276                 0.3021                 0.2364
 IR Inten    --     29.3220                 1.9578               180.1818

                     19                     20                     21
                      A                      A                      A
 Frequencies --    549.9553               574.9826               620.5296
 Red. masses --      2.9461                 2.5113                 3.9966
 Frc consts  --      0.5250                 0.4892                 0.9067
 IR Inten    --     76.4702                84.0089               108.1704

                     22                     23                     24
                      A                      A                      A
 Frequencies --    637.7029               644.9768               714.7754
 Red. masses --      1.7232                 3.2610                 2.6349
 Frc consts  --      0.4129                 0.7993                 0.7931
 IR Inten    --     99.9563                 2.4440                49.2248

                     25                     26                     27
                      A                      A                      A
 Frequencies --    726.2935               743.3314               790.0451
 Red. masses --      1.7486                 1.6437                 8.7388
 Frc consts  --      0.5434                 0.5351                 3.2137
 IR Inten    --     33.0384               118.3709                83.1663

                     28                     29                     30
                      A                      A                      A
 Frequencies --    805.7883               880.6268               888.5886
 Red. masses --      2.1002                 1.2761                 2.9305
 Frc consts  --      0.8034                 0.5831                 1.3633
 IR Inten    --      8.1213                 0.5670                19.2233

                     31                     32                     33
                      A                      A                      A
 Frequencies --    896.2180               963.1861              1015.8563
 Red. masses --      2.6023                 1.4479                 1.3675
 Frc consts  --      1.2315                 0.7914                 0.8315
 IR Inten    --      8.2812                 1.3782                 0.6079

                     34                     35                     36
                      A                      A                      A
 Frequencies --   1026.4518              1032.9959              1036.7584
 Red. masses --      5.5627                 1.3280                 1.3285
 Frc consts  --      3.4532                 0.8349                 0.8413
 IR Inten    --      0.4472                 7.4149                36.0749

                     37                     38                     39
                      A                      A                      A
 Frequencies --   1051.2992              1064.6259              1102.4615
 Red. masses --      1.6895                 2.0618                 1.7699
 Frc consts  --      1.1002                 1.3769                 1.2675
 IR Inten    --      8.1550                 8.4501               136.6506

                     40                     41                     42
                      A                      A                      A
 Frequencies --   1113.2724              1135.4180              1157.6699
 Red. masses --      1.6341                 1.5559                 1.5974
 Frc consts  --      1.1932                 1.1818                 1.2613
 IR Inten    --     25.2082                25.8422                68.6193

                     43                     44                     45
                      A                      A                      A
 Frequencies --   1176.8504              1185.0231              1213.5518
 Red. masses --      2.3159                 1.1464                 1.1240
 Frc consts  --      1.8898                 0.9485                 0.9753
 IR Inten    --     45.7418                 1.5578                 2.0848

                     46                     47                     48
                      A                      A                      A
 Frequencies --   1223.5141              1244.1679              1255.5079
 Red. masses --      2.2001                 1.4235                 1.3613
 Frc consts  --      1.9405                 1.2983                 1.2643
 IR Inten    --    160.3915               180.0296                49.7996

                     49                     50                     51
                      A                      A                      A
 Frequencies --   1278.8994              1293.0793              1312.5597
 Red. masses --      1.5369                 2.0673                 1.8776
 Frc consts  --      1.4810                 2.0366                 1.9059
 IR Inten    --     60.2123                26.5948               329.0848

                     52                     53                     54
                      A                      A                      A
 Frequencies --   1342.5917              1349.6269              1371.2254
 Red. masses --      1.8330                 1.9299                 1.3812
 Frc consts  --      1.9467                 2.0712                 1.5301
 IR Inten    --     22.6407                65.8178                63.2692

                     55                     56                     57
                      A                      A                      A
 Frequencies --   1452.8584              1464.0589              1474.3237
 Red. masses --      1.2169                 1.2456                 1.9923
 Frc consts  --      1.5134                 1.5731                 2.5515
 IR Inten    --     27.9398                26.6181               119.2695

                     58                     59                     60
                      A                      A                      A
 Frequencies --   1479.4126              1492.7484              1501.2589
 Red. masses --      1.0941                 1.0417                 1.2621
 Frc consts  --      1.4109                 1.3676                 1.6759
 IR Inten    --     51.9103                19.6864                53.0907

                     61                     62                     63
                      A                      A                      A
 Frequencies --   1504.4003              1516.5138              1532.2309
 Red. masses --      1.0627                 1.8460                 1.5142
 Frc consts  --      1.4170                 2.5013                 2.0945
 IR Inten    --      9.9074                80.8846               294.4093

                     64                     65                     66
                      A                      A                      A
 Frequencies --   1550.2393              1630.4628              1641.4147
 Red. masses --      2.4686                 5.2660                 1.0940
 Frc consts  --      3.4954                 8.2482                 1.7366
 IR Inten    --      1.5168              1398.0450                40.2451

                     67                     68                     69
                      A                      A                      A
 Frequencies --   1657.2459              1678.9579              3026.9297
 Red. masses --      5.5896                 5.8537                 1.0485
 Frc consts  --      9.0449                 9.7221                 5.6602
 IR Inten    --      2.9853                 0.7149               119.3483

                     70                     71                     72
                      A                      A                      A
 Frequencies --   3077.5083              3096.4038              3111.3436
 Red. masses --      1.0327                 1.0878                 1.0864
 Frc consts  --      5.7625                 6.1447                 6.1963
 IR Inten    --     33.8850                46.0458                47.7444

                     73                     74                     75
                      A                      A                      A
 Frequencies --   3151.3711              3160.8846              3174.3541
 Red. masses --      1.1042                 1.1064                 1.1059
 Frc consts  --      6.4611                 6.5129                 6.5656
 IR Inten    --     27.2798                12.4848                10.8117

                     76                     77                     78
                      A                      A                      A
 Frequencies --   3191.1876              3193.4961              3203.2568
 Red. masses --      1.0871                 1.0886                 1.0906
 Frc consts  --      6.5224                 6.5409                 6.5931
 IR Inten    --      8.8651                 1.5033                 8.6124

                     79                     80                     81
                      A                      A                      A
 Frequencies --   3209.8144              3212.3955              3223.0608
 Red. masses --      1.0886                 1.0941                 1.0988
 Frc consts  --      6.6084                 6.6522                 6.7251
 IR Inten    --      2.9873                41.8928                17.9512

                     82                     83                     84
                      A                      A                      A
 Frequencies --   3500.8414              3582.8919              3643.6179
 Red. masses --      1.0527                 1.0959                 1.0760
 Frc consts  --      7.6017                 8.2884                 8.4163
 IR Inten    --     26.7065                61.3890                13.8177

 - Thermochemistry -
 -------------------
 Temperature   298.150 Kelvin.  Pressure   1.00000 Atm.
 Atom     1 has atomic number  6 and mass  12.00000

 Molecular mass:   192.12626 amu.
 Principal axes and moments of inertia in atomic units:
                           1         2         3
     Eigenvalues --  1379.051635249.766555727.05724
           X            0.99991  -0.01062  -0.00824
           Y            0.01066   0.99993   0.00445
           Z            0.00819  -0.00453   0.99996
 This molecule is an asymmetric top.
 Rotational symmetry number  1.
 Warning -- assumption of classical behavior for rotation
           may cause significant error
 Rotational temperatures (Kelvin)      0.06281     0.01650     0.01512
 Rotational constants (GHZ):           1.30868     0.34378     0.31513
    1 imaginary frequencies ignored.
 Zero-point vibrational energy     678835.1 (Joules/Mol)
                                  162.24548 (Kcal/Mol)
 Warning -- explicit consideration of  20 degrees of freedom as
           vibrations may cause significant error
 Vibrational temperatures:     57.48    81.06   101.23   122.26   130.84
          (Kelvin)            190.95   215.19   258.04   277.74   307.26
                              347.24   415.09   462.35   506.08   602.19
                              607.79   693.15   791.26   827.27   892.80
                              917.51   927.98  1028.40  1044.97  1069.49
                             1136.70  1159.35  1267.03  1278.48  1289.46
                             1385.81  1461.59  1476.84  1486.25  1491.66
                             1512.59  1531.76  1586.20  1601.75  1633.61
                             1665.63  1693.23  1704.98  1746.03  1760.36
                             1790.08  1806.40  1840.05  1860.45  1888.48
                             1931.69  1941.81  1972.89  2090.34  2106.45
                             2121.22  2128.54  2147.73  2159.98  2164.50
                             2181.93  2204.54  2230.45  2345.87  2361.63
                             2384.41  2415.65  4355.08  4427.85  4455.03
                             4476.53  4534.12  4547.81  4567.19  4591.41
                             4594.73  4608.77  4618.21  4621.92  4637.27
                             5036.93  5154.98  5242.35

 Zero-point correction=                           0.258555 (Hartree/Particle)
 Thermal correction to Energy=                    0.272865
 Thermal correction to Enthalpy=                  0.273809
 Thermal correction to Gibbs Free Energy=         0.216434
 Sum of electronic and zero-point Energies=           -613.273976
 Sum of electronic and thermal Energies=              -613.259665
 Sum of electronic and thermal Enthalpies=            -613.258721
 Sum of electronic and thermal Free Energies=         -613.316097

                     E (Thermal)             CV                S
                      KCal/Mol        Cal/Mol-Kelvin    Cal/Mol-Kelvin
 Total                  171.225             52.680            120.757
 Electronic               0.000              0.000              0.000
 Translational            0.889              2.981             41.664
 Rotational               0.889              2.981             32.095
 Vibrational            169.448             46.718             46.998
 Vibration     1          0.594              1.981              5.261
 Vibration     2          0.596              1.975              4.581
 Vibration     3          0.598              1.968              4.143
 Vibration     4          0.601              1.960              3.773
 Vibration     5          0.602              1.956              3.640
 Vibration     6          0.613              1.921              2.906
 Vibration     7          0.618              1.903              2.678
 Vibration     8          0.629              1.868              2.335
 Vibration     9          0.635              1.850              2.198
 Vibration    10          0.644              1.820              2.013
 Vibration    11          0.658              1.777              1.793
 Vibration    12          0.685              1.695              1.483
 Vibration    13          0.707              1.633              1.303
 Vibration    14          0.728              1.572              1.158
 Vibration    15          0.781              1.430              0.897
 Vibration    16          0.785              1.421              0.884
 Vibration    17          0.838              1.290              0.705
 Vibration    18          0.905              1.140              0.544
 Vibration    19          0.931              1.085              0.495
 Vibration    20          0.981              0.989              0.416

 Optimization completed.
    -- Stationary point found.
 Normal termination of Gaussian 16 at Sat Jan 30 16:59:08 2021.
