 Gaussian 16, Revision A.03,
 Gaussian 16:  ES64L-G16RevA.03 25-Dec-2016

 ----------------------------------------------------------------------
 # wB97XD def2tzvp, opt=(ts, noeigen, calcfc, maxcycles=70, maxstep=8),
  freq=noraman, scrf=(iefpcm, solvent=water)
 ----------------------------------------------------------------------

 ------------------------
 1_iteration/TS-589-1.out
 ------------------------
 Symbolic Z-matrix:
 Charge =  0 Multiplicity = 1

 SCF Done:  E(RwB97XD) =  -3455.02276137     A.U. after   15 cycles
 SCF Done:  E(RwB97XD) =  -3455.02280079     A.U. after   11 cycles
 SCF Done:  E(RwB97XD) =  -3455.02281348     A.U. after   10 cycles
 SCF Done:  E(RwB97XD) =  -3455.02281381     A.U. after    8 cycles
 Optimization completed.
    -- Stationary point found.
 Normal termination of Gaussian 16 at Tue Feb 16 16:43:31 2021.

 ---------------------------------------------------------------------
 #N Geom=AllCheck Guess=TCheck SCRF=Check GenChk RwB97XD/def2TZVP Freq
 ---------------------------------------------------------------------

 Structure from the checkpoint file:  "/beegfs/scratch/user/q/tla25/Gau-39264.chk"
 ------------------------
 1_iteration/TS-589-1.out
 ------------------------
 Charge =  0 Multiplicity = 1

                         Standard orientation:
 ---------------------------------------------------------------------
 Center     Atomic      Atomic             Coordinates (Angstroms)
 Number     Number       Type             X           Y           Z
 ---------------------------------------------------------------------
      1          6           0       -0.125715    0.111407   -0.265275
      2          6           0       -0.990364   -1.031853   -0.004096
      3          8           0       -0.513379   -2.126174    0.333975
      4          6           0        1.244529    0.004524   -0.399441
      5          6           0        1.593011    0.025309    2.449620
      6          1           0        1.641442   -0.546050    3.377725
      7          1           0        2.266766    0.877046    2.521346
      8          1           0        0.572176    0.389698    2.318750
      9          7           0        1.940197   -0.781195    1.292147
     10          1           0        2.925604   -1.007547    1.243915
     11          1           0        1.385911   -1.632565    1.246508
     12          6           0        2.136039    1.202038   -0.535881
     13          1           0        1.948654    1.911669    0.268260
     14          1           0        3.180253    0.899975   -0.513141
     15          1           0        1.938594    1.700549   -1.486016
     16         17           0        1.859739   -1.342064   -1.422981
     17         35           0       -0.889926    1.865378   -0.132265
     18          7           0       -2.327105   -0.872968   -0.110003
     19          6           0       -3.246914   -1.946664    0.180667
     20          1           0       -2.691832    0.003897   -0.433945
     21          1           0       -3.145885   -2.768258   -0.531965
     22          1           0       -3.076574   -2.343361    1.182595
     23          1           0       -4.261370   -1.558213    0.125537
 ---------------------------------------------------------------------

 SCF Done:  E(RwB97XD) =  -3455.02281381     A.U. after    1 cycles

 The electronic state is 1-A.
 Alpha  occ. eigenvalues -- -483.12900-101.69218 -62.67727 -56.46837 -56.46496
 Alpha  occ. eigenvalues --  -56.46484 -19.20814 -14.46901 -14.45089 -10.40224
 Alpha  occ. eigenvalues --  -10.38595 -10.31280 -10.31057 -10.30878 -10.29173
 Alpha  occ. eigenvalues --   -9.57811  -8.81837  -7.32446  -7.31600  -7.31559
 Alpha  occ. eigenvalues --   -6.63963  -6.62877  -6.62835  -2.74355  -2.74045
 Alpha  occ. eigenvalues --   -2.74011  -2.73133  -2.73132  -1.13557  -1.03131
 Alpha  occ. eigenvalues --   -1.01864  -0.97338  -0.91286  -0.84824  -0.81909
 Alpha  occ. eigenvalues --   -0.78583  -0.78144  -0.68929  -0.65505  -0.62322
 Alpha  occ. eigenvalues --   -0.59355  -0.57368  -0.55883  -0.55081  -0.54104
 Alpha  occ. eigenvalues --   -0.52170  -0.51837  -0.49900  -0.48236  -0.47665
 Alpha  occ. eigenvalues --   -0.47199  -0.46902  -0.45695  -0.43668  -0.40045
 Alpha  occ. eigenvalues --   -0.39832  -0.38481  -0.37456  -0.34188  -0.33662
 Alpha  occ. eigenvalues --   -0.27470
 Alpha virt. eigenvalues --    0.03124   0.07285   0.10020   0.10739   0.12939
 Alpha virt. eigenvalues --    0.14432   0.14917   0.15961   0.16076   0.17535
 Alpha virt. eigenvalues --    0.17951   0.19676   0.20147   0.20275   0.20858

 Mulliken charges:
               1
     1  C   -0.333611
     2  C    0.420127
     3  O   -0.557696
     4  C    0.223860
     5  C   -0.301089
     6  H    0.151970
     7  H    0.156387
     8  H    0.149323
     9  N   -0.359236
    10  H    0.278621
    11  H    0.274776
    12  C   -0.381529
    13  H    0.152861
    14  H    0.152926
    15  H    0.162541
    16  Cl  -0.133201
    17  Br  -0.145324
    18  N   -0.320128
    19  C   -0.247566
    20  H    0.256122
    21  H    0.128153
    22  H    0.129345
    23  H    0.142367
 Sum of Mulliken charges =  -0.00000

 Dipole moment (field-independent basis, Debye):
    X=              2.0827    Y=              2.3025    Z=              3.3773  Tot=              4.5875
 Quadrupole moment (field-independent basis, Debye-Ang):
   XX=            -65.8527   YY=            -94.8286   ZZ=            -83.1309
   XY=              2.4708   XZ=              8.3940   YZ=             -2.3275

  Exact polarizability: 206.475  -9.048 179.337   6.211   0.648 153.436
 Approx polarizability: 158.695 -11.078 151.584   4.137   0.164 129.114

 ******    1 imaginary frequencies (negative Signs) ******

                      1                      2                      3
                      A                      A                      A
 Frequencies --   -374.8565                49.6129                80.9044
 Red. masses --      5.5214                 3.5431                 3.7905
 Frc consts  --      0.4571                 0.0051                 0.0146
 IR Inten    --    667.5543                 6.2205                 3.5810

                      4                      5                      6
                      A                      A                      A
 Frequencies --     86.4289                90.7726               122.4184
 Red. masses --      1.6823                 2.2597                 2.6393
 Frc consts  --      0.0074                 0.0110                 0.0233
 IR Inten    --      3.3708                14.0991                 1.1650

                      7                      8                      9
                      A                      A                      A
 Frequencies --    136.4096               165.5956               183.3789
 Red. masses --      2.4281                 3.4610                 5.7079
 Frc consts  --      0.0266                 0.0559                 0.1131
 IR Inten    --     20.8510                14.2760                10.4299

                     10                     11                     12
                      A                      A                      A
 Frequencies --    194.8297               202.6286               257.8082
 Red. masses --      2.5851                 1.7723                 2.8900
 Frc consts  --      0.0578                 0.0429                 0.1132
 IR Inten    --     11.6946                 0.0202                 1.0742

                     13                     14                     15
                      A                      A                      A
 Frequencies --    264.2620               288.7755               305.3669
 Red. masses --      1.9252                 2.3361                 3.9259
 Frc consts  --      0.0792                 0.1148                 0.2157
 IR Inten    --      2.5661                27.4513                 8.0740

                     16                     17                     18
                      A                      A                      A
 Frequencies --    311.2056               363.0905               403.1087
 Red. masses --      2.9947                 3.2536                 3.3628
 Frc consts  --      0.1709                 0.2527                 0.3220
 IR Inten    --     25.8047                12.3353                48.9623

                     19                     20                     21
                      A                      A                      A
 Frequencies --    415.9549               469.6662               502.5136
 Red. masses --      1.5979                 3.4925                 4.3130
 Frc consts  --      0.1629                 0.4539                 0.6417
 IR Inten    --     64.8068                32.9919               101.5975

                     22                     23                     24
                      A                      A                      A
 Frequencies --    643.9692               715.5018               781.5853
 Red. masses --      1.7412                 2.5679                 7.8660
 Frc consts  --      0.4254                 0.7746                 2.8311
 IR Inten    --     60.1786               183.3416                47.9799

                     25                     26                     27
                      A                      A                      A
 Frequencies --    782.5668               977.2625               979.6193
 Red. masses --      4.8100                 2.1580                 1.3379
 Frc consts  --      1.7355                 1.2143                 0.7565
 IR Inten    --     41.0912                49.7769                54.6444

                     28                     29                     30
                      A                      A                      A
 Frequencies --   1024.3886              1046.6436              1056.7176
 Red. masses --      1.8190                 1.2721                 1.4764
 Frc consts  --      1.1246                 0.8211                 0.9714
 IR Inten    --     46.8387                40.1717               105.6307

                     31                     32                     33
                      A                      A                      A
 Frequencies --   1092.5820              1130.3921              1156.6276
 Red. masses --      3.9813                 3.0734                 1.3222
 Frc consts  --      2.8001                 2.3138                 1.0421
 IR Inten    --      9.3609                64.6093                 2.4045

                     34                     35                     36
                      A                      A                      A
 Frequencies --   1166.4157              1190.6779              1197.0148
 Red. masses --      3.2591                 1.7916                 1.4082
 Frc consts  --      2.6125                 1.4965                 1.1888
 IR Inten    --      6.7425                22.5468                28.9447

                     37                     38                     39
                      A                      A                      A
 Frequencies --   1304.6374              1348.5350              1414.1891
 Red. masses --      2.1685                 1.3133                 1.2599
 Frc consts  --      2.1746                 1.4072                 1.4845
 IR Inten    --    314.8885                 8.0166                41.3064

                     40                     41                     42
                      A                      A                      A
 Frequencies --   1448.5181              1457.5155              1463.9113
 Red. masses --      1.5711                 1.2087                 1.3479
 Frc consts  --      1.9423                 1.5128                 1.7019
 IR Inten    --    335.3790                25.9679               115.9053

                     43                     44                     45
                      A                      A                      A
 Frequencies --   1476.7104              1479.8438              1491.1521
 Red. masses --      1.0509                 1.0521                 1.1613
 Frc consts  --      1.3501                 1.3574                 1.5214
 IR Inten    --     18.4557                 9.6340                73.3373

                     46                     47                     48
                      A                      A                      A
 Frequencies --   1496.9585              1506.5359              1508.3340
 Red. masses --      1.4556                 1.0832                 1.0445
 Frc consts  --      1.9218                 1.4485                 1.4001
 IR Inten    --    191.7099                28.9427                 2.0626

                     49                     50                     51
                      A                      A                      A
 Frequencies --   1563.2143              1631.2443              1658.0984
 Red. masses --      2.1095                 1.6798                 2.2574
 Frc consts  --      3.0371                 2.6335                 3.6566
 IR Inten    --    673.2934               365.1603               138.5865

                     52                     53                     54
                      A                      A                      A
 Frequencies --   3051.0710              3057.2645              3074.9101
 Red. masses --      1.0369                 1.0338                 1.0368
 Frc consts  --      5.6869                 5.6933                 5.7760
 IR Inten    --     75.6865                44.7906                 6.3230

                     55                     56                     57
                      A                      A                      A
 Frequencies --   3110.4651              3126.1216              3151.4373
 Red. masses --      1.1029                 1.1040                 1.1009
 Frc consts  --      6.2871                 6.3568                 6.4418
 IR Inten    --     40.0666                18.3596                 7.9548

                     58                     59                     60
                      A                      A                      A
 Frequencies --   3158.2578              3163.4807              3174.1178
 Red. masses --      1.1042                 1.1017                 1.1038
 Frc consts  --      6.4892                 6.4958                 6.5520
 IR Inten    --     22.1091                22.2539                13.1314

                     61                     62                     63
                      A                      A                      A
 Frequencies --   3482.5464              3601.8827              3681.4441
 Red. masses --      1.0557                 1.0927                 1.0781
 Frc consts  --      7.5436                 8.3526                 8.6087
 IR Inten    --     58.7551                95.1675                88.3521

 - Thermochemistry -
 -------------------
 Temperature   298.150 Kelvin.  Pressure   1.00000 Atm.
 Atom     1 has atomic number  6 and mass  12.00000

 Molecular mass:   241.98215 amu.
 Principal axes and moments of inertia in atomic units:
                           1         2         3
     Eigenvalues --  2575.242613079.848404184.51065
           X            0.94027   0.33895   0.03169
           Y           -0.33861   0.94079  -0.01571
           Z           -0.03514   0.00404   0.99937
 This molecule is an asymmetric top.
 Rotational symmetry number  1.
 Warning -- assumption of classical behavior for rotation
           may cause significant error
 Rotational temperatures (Kelvin)      0.03363     0.02812     0.02070
 Rotational constants (GHZ):           0.70080     0.58598     0.43129
    1 imaginary frequencies ignored.
 Zero-point vibrational energy     484003.7 (Joules/Mol)
                                  115.67965 (Kcal/Mol)
 Warning -- explicit consideration of  20 degrees of freedom as
           vibrations may cause significant error
 Vibrational temperatures:     71.38   116.40   124.35   130.60   176.13
          (Kelvin)            196.26   238.26   263.84   280.32   291.54
                              370.93   380.21   415.48   439.35   447.76
                              522.41   579.98   598.47   675.74   723.00
                              926.53  1029.45  1124.53  1125.94  1406.06
                             1409.45  1473.87  1505.89  1520.38  1571.98
                             1626.38  1664.13  1678.21  1713.12  1722.24
                             1877.08  1940.24  2034.70  2084.09  2097.04
                             2106.24  2124.66  2129.17  2145.44  2153.79
                             2167.57  2170.16  2249.12  2347.00  2385.63
                             4389.81  4398.72  4424.11  4475.27  4497.79
                             4534.22  4544.03  4551.54  4566.85  5010.61
                             5182.31  5296.78

 Zero-point correction=                           0.184347 (Hartree/Particle)
 Thermal correction to Energy=                    0.198395
 Thermal correction to Enthalpy=                  0.199339
 Thermal correction to Gibbs Free Energy=         0.142683
 Sum of electronic and zero-point Energies=          -3454.838467
 Sum of electronic and thermal Energies=             -3454.824419
 Sum of electronic and thermal Enthalpies=           -3454.823475
 Sum of electronic and thermal Free Energies=        -3454.880131

                     E (Thermal)             CV                S
                      KCal/Mol        Cal/Mol-Kelvin    Cal/Mol-Kelvin
 Total                  124.495             48.172            119.243
 Electronic               0.000              0.000              0.000
 Translational            0.889              2.981             42.352
 Rotational               0.889              2.981             31.873
 Vibrational            122.717             42.211             45.017
 Vibration     1          0.595              1.978              4.833
 Vibration     2          0.600              1.962              3.869
 Vibration     3          0.601              1.959              3.739
 Vibration     4          0.602              1.956              3.643
 Vibration     5          0.610              1.930              3.062
 Vibration     6          0.614              1.917              2.854
 Vibration     7          0.624              1.885              2.485
 Vibration     8          0.631              1.862              2.294
 Vibration     9          0.635              1.847              2.181
 Vibration    10          0.639              1.836              2.109
 Vibration    11          0.667              1.750              1.677
 Vibration    12          0.671              1.738              1.633
 Vibration    13          0.685              1.695              1.481
 Vibration    14          0.696              1.664              1.387
 Vibration    15          0.700              1.652              1.356
 Vibration    16          0.737              1.548              1.109
 Vibration    17          0.769              1.463              0.951
 Vibration    18          0.779              1.436              0.906
 Vibration    19          0.827              1.317              0.738
 Vibration    20          0.858              1.244              0.652

 Optimization completed.
    -- Stationary point found.
 Normal termination of Gaussian 16 at Tue Feb 16 17:08:55 2021.
