 Gaussian 16, Revision A.03,
 Gaussian 16:  ES64L-G16RevA.03 25-Dec-2016

 ----------------------------------------------------------------------
 # wB97XD def2tzvp, opt=(ts, noeigen, calcfc, maxcycles=70, maxstep=8),
  freq=noraman, scrf=(iefpcm, solvent=water)
 ----------------------------------------------------------------------

 ------------------------
 1_iteration/TS-540-1.out
 ------------------------
 Symbolic Z-matrix:
 Charge =  0 Multiplicity = 1

 SCF Done:  E(RwB97XD) =  -3054.58691296     A.U. after   15 cycles
 SCF Done:  E(RwB97XD) =  -3054.58932090     A.U. after   13 cycles
 SCF Done:  E(RwB97XD) =  -3054.59135236     A.U. after   13 cycles
 SCF Done:  E(RwB97XD) =  -3054.59152274     A.U. after   12 cycles
 SCF Done:  E(RwB97XD) =  -3054.59166848     A.U. after   12 cycles
 SCF Done:  E(RwB97XD) =  -3054.59189329     A.U. after   12 cycles
 SCF Done:  E(RwB97XD) =  -3054.59193759     A.U. after   12 cycles
 SCF Done:  E(RwB97XD) =  -3054.59195984     A.U. after   12 cycles
 SCF Done:  E(RwB97XD) =  -3054.59202072     A.U. after   12 cycles
 SCF Done:  E(RwB97XD) =  -3054.59202157     A.U. after   10 cycles
 SCF Done:  E(RwB97XD) =  -3054.59202200     A.U. after   10 cycles
 SCF Done:  E(RwB97XD) =  -3054.59202210     A.U. after    6 cycles
 Optimization completed.
    -- Stationary point found.
 Normal termination of Gaussian 16 at Tue Feb 16 17:31:38 2021.

 ---------------------------------------------------------------------
 #N Geom=AllCheck Guess=TCheck SCRF=Check GenChk RwB97XD/def2TZVP Freq
 ---------------------------------------------------------------------

 Structure from the checkpoint file:  "/beegfs/scratch/user/q/tla25/Gau-122806.chk"
 ------------------------
 1_iteration/TS-540-1.out
 ------------------------
 Charge =  0 Multiplicity = 1

                         Standard orientation:
 ---------------------------------------------------------------------
 Center     Atomic      Atomic             Coordinates (Angstroms)
 Number     Number       Type             X           Y           Z
 ---------------------------------------------------------------------
      1          6           0       -0.509507    0.875630   -0.736752
      2          6           0       -1.698713    0.120403   -0.447822
      3          8           0       -2.795244    0.280094   -0.964948
      4          6           0        0.750145    0.546093   -0.267913
      5          6           0        0.231873    1.927848    2.159643
      6          1           0       -0.083657    1.893268    3.202703
      7          1           0        0.986841    2.702396    2.040954
      8          1           0       -0.631702    2.172307    1.537754
      9          7           0        0.764411    0.652126    1.708336
     10          1           0        1.680543    0.448393    2.089077
     11          1           0        0.135871   -0.111562    1.929187
     12          6           0        1.916830    1.435501   -0.587031
     13          1           0        1.680014    2.470355   -0.339101
     14          1           0        2.809894    1.135136   -0.044601
     15          1           0        2.132345    1.385065   -1.655739
     16         35           0        1.358353   -1.343852   -0.326443
     17          6           0       -0.694485    2.157346   -1.520260
     18          1           0       -0.021762    2.222854   -2.378752
     19          1           0       -1.714637    2.192935   -1.897252
     20          1           0       -0.535453    3.054820   -0.914165
     21          8           0       -1.534118   -0.800681    0.536106
     22          6           0       -2.650516   -1.628276    0.830122
     23          1           0       -2.315932   -2.313352    1.605295
     24          1           0       -3.490782   -1.036584    1.193713
     25          1           0       -2.963682   -2.188694   -0.051094
 ---------------------------------------------------------------------

 SCF Done:  E(RwB97XD) =  -3054.59202210     A.U. after    1 cycles

 The electronic state is 1-A.
 Alpha  occ. eigenvalues -- -483.11933 -62.66787 -56.45889 -56.45558 -56.45543
 Alpha  occ. eigenvalues --  -19.28331 -19.21241 -14.47545 -10.39523 -10.39013
 Alpha  occ. eigenvalues --  -10.32675 -10.31397 -10.28914 -10.27010 -10.26458
 Alpha  occ. eigenvalues --   -8.80893  -6.62993  -6.61952  -6.61901  -2.73382
 Alpha  occ. eigenvalues --   -2.73099  -2.73058  -2.72215  -2.72215  -1.19591
 Alpha  occ. eigenvalues --   -1.09861  -1.03279  -0.93909  -0.86490  -0.83560
 Alpha  occ. eigenvalues --   -0.80927  -0.78432  -0.75021  -0.68136  -0.63286
 Alpha  occ. eigenvalues --   -0.62551  -0.58355  -0.57218  -0.56513  -0.56058
 Alpha  occ. eigenvalues --   -0.54305  -0.52145  -0.50697  -0.49721  -0.48907
 Alpha  occ. eigenvalues --   -0.48052  -0.47409  -0.46435  -0.45231  -0.43558
 Alpha  occ. eigenvalues --   -0.42910  -0.42063  -0.38578  -0.36375  -0.35889
 Alpha  occ. eigenvalues --   -0.35244  -0.27121
 Alpha virt. eigenvalues --    0.04135   0.05916   0.10052   0.12825   0.13322
 Alpha virt. eigenvalues --    0.15056   0.15991   0.16543   0.16679   0.17651
 Alpha virt. eigenvalues --    0.17921   0.19872   0.19945   0.20310   0.21028

 Mulliken charges:
               1
     1  C   -0.330521
     2  C    0.437993
     3  O   -0.506409
     4  C    0.225534
     5  C   -0.302537
     6  H    0.154978
     7  H    0.158394
     8  H    0.151576
     9  N   -0.351044
    10  H    0.282492
    11  H    0.279629
    12  C   -0.382022
    13  H    0.148746
    14  H    0.154166
    15  H    0.164293
    16  Br  -0.164698
    17  C   -0.389666
    18  H    0.125050
    19  H    0.135550
    20  H    0.128105
    21  O   -0.317020
    22  C   -0.196724
    23  H    0.137535
    24  H    0.127376
    25  H    0.129222
 Sum of Mulliken charges =  -0.00000

 Dipole moment (field-independent basis, Debye):
    X=              4.8355    Y=              2.2212    Z=              6.6155  Tot=              8.4901
 Quadrupole moment (field-independent basis, Debye-Ang):
   XX=            -88.4303   YY=            -74.9385   ZZ=            -73.3797
   XY=              9.7798   XZ=             -4.8356   YZ=              1.9322

  Exact polarizability: 190.625  -4.365 172.634  14.529  -2.589 162.232
 Approx polarizability: 149.966  -4.415 138.924  11.929  -2.717 133.702

 ******    1 imaginary frequencies (negative Signs) ******

                      1                      2                      3
                      A                      A                      A
 Frequencies --   -386.0774                60.9409                69.5884
 Red. masses --      5.4832                 3.4239                 4.4426
 Frc consts  --      0.4815                 0.0075                 0.0127
 IR Inten    --    627.5844                 1.6500                 4.7172

                      4                      5                      6
                      A                      A                      A
 Frequencies --     92.9985               120.3040               132.0748
 Red. masses --      2.6595                 2.0526                 1.2707
 Frc consts  --      0.0136                 0.0175                 0.0131
 IR Inten    --      3.6202                 7.2026                 5.3316

                      7                      8                      9
                      A                      A                      A
 Frequencies --    143.0740               150.9273               175.8065
 Red. masses --      1.9437                 1.6348                 3.4763
 Frc consts  --      0.0234                 0.0219                 0.0633
 IR Inten    --      6.0321                 1.0571                 1.0621

                     10                     11                     12
                      A                      A                      A
 Frequencies --    187.7209               207.4821               255.5292
 Red. masses --      3.2446                 1.2111                 2.4143
 Frc consts  --      0.0674                 0.0307                 0.0929
 IR Inten    --      9.8774                 0.3760                10.5855

                     13                     14                     15
                      A                      A                      A
 Frequencies --    268.0151               286.5097               299.6252
 Red. masses --      3.2813                 3.0296                 1.4071
 Frc consts  --      0.1389                 0.1465                 0.0744
 IR Inten    --     17.3431                17.9053                 4.9622

                     16                     17                     18
                      A                      A                      A
 Frequencies --    332.3132               347.0825               369.0138
 Red. masses --      2.9659                 2.5402                 4.1681
 Frc consts  --      0.1930                 0.1803                 0.3344
 IR Inten    --     16.7184                 1.1512                24.8427

                     19                     20                     21
                      A                      A                      A
 Frequencies --    414.7906               521.5797               551.0886
 Red. masses --      4.1901                 5.2594                 3.2513
 Frc consts  --      0.4247                 0.8430                 0.5818
 IR Inten    --     59.0426                32.4751                54.3206

                     22                     23                     24
                      A                      A                      A
 Frequencies --    658.1377               698.2153               795.4956
 Red. masses --      1.6433                 2.6037                 8.5960
 Frc consts  --      0.4194                 0.7479                 3.2050
 IR Inten    --     14.2894               127.3522                56.1756

                     25                     26                     27
                      A                      A                      A
 Frequencies --    823.3389               956.6935               988.8506
 Red. masses --      4.5258                 2.2018                 1.0941
 Frc consts  --      1.8076                 1.1873                 0.6303
 IR Inten    --     57.1068               123.3375                74.5334

                     28                     29                     30
                      A                      A                      A
 Frequencies --   1024.6567              1042.0223              1048.0572
 Red. masses --      1.1249                 2.7846                 1.4154
 Frc consts  --      0.6959                 1.7814                 0.9160
 IR Inten    --     65.1918                21.0513                61.3840

                     31                     32                     33
                      A                      A                      A
 Frequencies --   1072.4426              1086.6202              1092.2639
 Red. masses --      1.4808                 2.4400                 2.4284
 Frc consts  --      1.0035                 1.6974                 1.7070
 IR Inten    --     16.1638                24.4087               125.7621

                     34                     35                     36
                      A                      A                      A
 Frequencies --   1123.1333              1171.1938              1182.1957
 Red. masses --      2.6780                 7.2849                 1.2904
 Frc consts  --      1.9903                 5.8875                 1.0625
 IR Inten    --     58.0308               346.0282                 3.8706

                     37                     38                     39
                      A                      A                      A
 Frequencies --   1203.9168              1217.0418              1342.1978
 Red. masses --      1.4089                 1.5611                 1.6289
 Frc consts  --      1.2031                 1.3624                 1.7290
 IR Inten    --     19.3744                88.6297               123.8943

                     40                     41                     42
                      A                      A                      A
 Frequencies --   1350.7254              1401.3102              1419.4674
 Red. masses --      2.7991                 1.3165                 1.2291
 Frc consts  --      3.0089                 1.5231                 1.4591
 IR Inten    --    290.1321                17.4135                43.9391

                     43                     44                     45
                      A                      A                      A
 Frequencies --   1452.6461              1468.7054              1476.5896
 Red. masses --      1.4366                 1.3667                 1.1074
 Frc consts  --      1.7861                 1.7370                 1.4225
 IR Inten    --    247.6869               160.3386                15.3858

                     46                     47                     48
                      A                      A                      A
 Frequencies --   1480.6589              1481.3468              1488.7878
 Red. masses --      1.0908                 1.0734                 1.1578
 Frc consts  --      1.4090                 1.3877                 1.5120
 IR Inten    --     41.5302                27.9873                24.5135

                     49                     50                     51
                      A                      A                      A
 Frequencies --   1494.0978              1495.7394              1499.6706
 Red. masses --      1.0741                 1.0571                 1.0593
 Frc consts  --      1.4127                 1.3934                 1.4036
 IR Inten    --      9.7132                 3.9066                41.9972

                     52                     53                     54
                      A                      A                      A
 Frequencies --   1507.2754              1512.0754              1636.8800
 Red. masses --      1.1698                 1.3437                 1.1004
 Frc consts  --      1.5659                 1.8101                 1.7371
 IR Inten    --    187.6737               230.0643               100.3544

                     55                     56                     57
                      A                      A                      A
 Frequencies --   1692.4509              3029.7275              3059.2049
 Red. masses --      9.9993                 1.0433                 1.0337
 Frc consts  --     16.8754                 5.6424                 5.6997
 IR Inten    --   1062.9806                94.4176                48.2356

                     58                     59                     60
                      A                      A                      A
 Frequencies --   3061.6511              3067.4371              3082.7214
 Red. masses --      1.0307                 1.0369                 1.0983
 Frc consts  --      5.6926                 5.7483                 6.1495
 IR Inten    --     59.4667                11.2925                51.1992

                     61                     62                     63
                      A                      A                      A
 Frequencies --   3131.0030              3137.3966              3139.4539
 Red. masses --      1.1039                 1.1067                 1.1013
 Frc consts  --      6.3757                 6.4185                 6.3955
 IR Inten    --     13.2734                37.6375                11.8866

                     64                     65                     66
                      A                      A                      A
 Frequencies --   3150.8249              3160.4582              3166.3713
 Red. masses --      1.0964                 1.1046                 1.1030
 Frc consts  --      6.4129                 6.5005                 6.5158
 IR Inten    --      8.8512                18.8358                12.4553

                     67                     68                     69
                      A                      A                      A
 Frequencies --   3169.8963              3523.4669              3614.3049
 Red. masses --      1.1054                 1.0504                 1.0973
 Frc consts  --      6.5443                 7.6835                 8.4451
 IR Inten    --     24.0973                35.3435                75.0459

 - Thermochemistry -
 -------------------
 Temperature   298.150 Kelvin.  Pressure   1.00000 Atm.
 Atom     1 has atomic number  6 and mass  12.00000

 Molecular mass:   223.02079 amu.
 Principal axes and moments of inertia in atomic units:
                           1         2         3
     Eigenvalues --  2111.572212743.457533311.66117
           X            0.97738   0.21143  -0.00579
           Y           -0.21147   0.97631  -0.04585
           Z           -0.00404   0.04604   0.99893
 This molecule is an asymmetric top.
 Rotational symmetry number  1.
 Warning -- assumption of classical behavior for rotation
           may cause significant error
 Rotational temperatures (Kelvin)      0.04102     0.03157     0.02615
 Rotational constants (GHZ):           0.85469     0.65783     0.54497
    1 imaginary frequencies ignored.
 Zero-point vibrational energy     549476.4 (Joules/Mol)
                                  131.32802 (Kcal/Mol)
 Warning -- explicit consideration of  20 degrees of freedom as
           vibrations may cause significant error
 Vibrational temperatures:     87.68   100.12   133.80   173.09   190.03
          (Kelvin)            205.85   217.15   252.95   270.09   298.52
                              367.65   385.61   412.22   431.09   478.12
                              499.37   530.93   596.79   750.44   792.89
                              946.91  1004.58  1144.54  1184.60  1376.47
                             1422.74  1474.25  1499.24  1507.92  1543.01
                             1563.40  1571.52  1615.94  1685.09  1700.92
                             1732.17  1751.05  1931.12  1943.39  2016.17
                             2042.30  2090.03  2113.14  2124.48  2130.34
                             2131.33  2142.03  2149.67  2152.04  2157.69
                             2168.63  2175.54  2355.11  2435.06  4359.10
                             4401.51  4405.03  4413.36  4435.35  4504.81
                             4514.01  4516.97  4533.33  4547.19  4555.70
                             4560.77  5069.48  5200.18

 Zero-point correction=                           0.209285 (Hartree/Particle)
 Thermal correction to Energy=                    0.223287
 Thermal correction to Enthalpy=                  0.224231
 Thermal correction to Gibbs Free Energy=         0.168305
 Sum of electronic and zero-point Energies=          -3054.382738
 Sum of electronic and thermal Energies=             -3054.368735
 Sum of electronic and thermal Enthalpies=           -3054.367791
 Sum of electronic and thermal Free Energies=        -3054.423717

                     E (Thermal)             CV                S
                      KCal/Mol        Cal/Mol-Kelvin    Cal/Mol-Kelvin
 Total                  140.115             48.677            117.705
 Electronic               0.000              0.000              0.000
 Translational            0.889              2.981             42.109
 Rotational               0.889              2.981             31.329
 Vibrational            138.337             42.715             44.268
 Vibration     1          0.597              1.973              4.426
 Vibration     2          0.598              1.969              4.165
 Vibration     3          0.602              1.954              3.596
 Vibration     4          0.609              1.932              3.095
 Vibration     5          0.612              1.921              2.916
 Vibration     6          0.616              1.910              2.762
 Vibration     7          0.618              1.902              2.661
 Vibration     8          0.628              1.872              2.372
 Vibration     9          0.632              1.857              2.250
 Vibration    10          0.641              1.829              2.066
 Vibration    11          0.666              1.753              1.692
 Vibration    12          0.673              1.732              1.609
 Vibration    13          0.684              1.699              1.494
 Vibration    14          0.692              1.674              1.419
 Vibration    15          0.714              1.611              1.249
 Vibration    16          0.725              1.581              1.179
 Vibration    17          0.741              1.536              1.084
 Vibration    18          0.778              1.438              0.910
 Vibration    19          0.877              1.202              0.606
 Vibration    20          0.906              1.137              0.542

 Optimization completed.
    -- Stationary point found.
 Normal termination of Gaussian 16 at Tue Feb 16 18:01:26 2021.
