 Gaussian 16, Revision A.03,
 Gaussian 16:  ES64L-G16RevA.03 25-Dec-2016

 ----------------------------------------------------------------------
 # wB97XD def2tzvp, opt=(ts, noeigen, calcfc, maxcycles=70, maxstep=1),
  freq=noraman, scrf=(iefpcm, solvent=water)
 ----------------------------------------------------------------------

 ------------------------
 0_iteration/TS-507-0.out
 ------------------------
 Symbolic Z-matrix:
 Charge =  0 Multiplicity = 1

 SCF Done:  E(RwB97XD) =  -2995.42381661     A.U. after   15 cycles
 SCF Done:  E(RwB97XD) =  -2995.42375405     A.U. after   11 cycles
 SCF Done:  E(RwB97XD) =  -2995.42369791     A.U. after   11 cycles
 SCF Done:  E(RwB97XD) =  -2995.42364668     A.U. after   11 cycles
 SCF Done:  E(RwB97XD) =  -2995.42359993     A.U. after   11 cycles
 SCF Done:  E(RwB97XD) =  -2995.42355800     A.U. after   11 cycles
 SCF Done:  E(RwB97XD) =  -2995.42352097     A.U. after   11 cycles
 SCF Done:  E(RwB97XD) =  -2995.42348904     A.U. after   11 cycles
 SCF Done:  E(RwB97XD) =  -2995.42346248     A.U. after   11 cycles
 SCF Done:  E(RwB97XD) =  -2995.42344182     A.U. after   11 cycles
 SCF Done:  E(RwB97XD) =  -2995.42688186     A.U. after   10 cycles
 SCF Done:  E(RwB97XD) =  -2995.42699551     A.U. after   10 cycles
 SCF Done:  E(RwB97XD) =  -2995.42709361     A.U. after   10 cycles
 SCF Done:  E(RwB97XD) =  -2995.42717529     A.U. after   10 cycles
 SCF Done:  E(RwB97XD) =  -2995.42723980     A.U. after   10 cycles
 SCF Done:  E(RwB97XD) =  -2995.42728658     A.U. after   10 cycles
 SCF Done:  E(RwB97XD) =  -2995.42731525     A.U. after   10 cycles
 SCF Done:  E(RwB97XD) =  -2995.42732561     A.U. after   10 cycles
 SCF Done:  E(RwB97XD) =  -2995.42732549     A.U. after    7 cycles
 Optimization completed.
    -- Stationary point found.
 Normal termination of Gaussian 16 at Mon Feb 15 21:29:51 2021.

 ---------------------------------------------------------------------
 #N Geom=AllCheck Guess=TCheck SCRF=Check GenChk RwB97XD/def2TZVP Freq
 ---------------------------------------------------------------------

 Structure from the checkpoint file:  "/beegfs/scratch/user/q/tla25/Gau-96394.chk"
 ------------------------
 0_iteration/TS-507-0.out
 ------------------------
 Charge =  0 Multiplicity = 1

                         Standard orientation:
 ---------------------------------------------------------------------
 Center     Atomic      Atomic             Coordinates (Angstroms)
 Number     Number       Type             X           Y           Z
 ---------------------------------------------------------------------
      1          6           0        0.147189    0.273950   -0.380500
      2          6           0        0.191450    1.679657   -0.079731
      3          8           0       -0.848806    2.358858    0.033482
      4          6           0       -1.046789   -0.400976   -0.697023
      5          6           0       -1.612948   -0.638456    2.104480
      6          1           0       -2.114279   -0.223797    2.980133
      7          1           0       -1.659270   -1.724952    2.150772
      8          1           0       -0.567619   -0.326858    2.118745
      9          7           0       -2.210992   -0.174492    0.862082
     10          1           0       -3.140912   -0.548486    0.719537
     11          1           0       -2.246427    0.841388    0.828357
     12          6           0       -1.034601   -1.903022   -0.819203
     13          1           0       -0.453675   -2.186763   -1.699213
     14          1           0       -0.582455   -2.383650    0.045880
     15          1           0       -2.049337   -2.277898   -0.947898
     16          6           0       -1.982948    0.237466   -1.704955
     17          1           0       -1.589446    0.014890   -2.699567
     18          1           0       -2.983219   -0.193154   -1.643374
     19          1           0       -2.039891    1.313924   -1.584037
     20         35           0        1.723433   -0.757179    0.045764
     21          7           0        1.397609    2.297366    0.087079
     22          1           0        2.243277    1.763658    0.172748
     23          1           0        1.379103    3.210251    0.505776
 ---------------------------------------------------------------------

 SCF Done:  E(RwB97XD) =  -2995.42732549     A.U. after    1 cycles

 The electronic state is 1-A.
 Alpha  occ. eigenvalues -- -483.11938 -62.66775 -56.45869 -56.45550 -56.45539
 Alpha  occ. eigenvalues --  -19.19935 -14.46772 -14.43495 -10.37989 -10.35248
 Alpha  occ. eigenvalues --  -10.31101 -10.29600 -10.28027 -10.27411  -8.80889
 Alpha  occ. eigenvalues --   -6.62969  -6.61952  -6.61916  -2.73369  -2.73079
 Alpha  occ. eigenvalues --   -2.73048  -2.72226  -2.72225  -1.12332  -1.02674
 Alpha  occ. eigenvalues --   -0.99133  -0.93199  -0.87330  -0.80185  -0.78371
 Alpha  occ. eigenvalues --   -0.77336  -0.69791  -0.63588  -0.61976  -0.59322
 Alpha  occ. eigenvalues --   -0.57068  -0.56070  -0.54537  -0.53194  -0.51038
 Alpha  occ. eigenvalues --   -0.49591  -0.48675  -0.47444  -0.47383  -0.46495
 Alpha  occ. eigenvalues --   -0.44917  -0.43444  -0.39763  -0.38881  -0.37511
 Alpha  occ. eigenvalues --   -0.34763  -0.33466  -0.26431
 Alpha virt. eigenvalues --    0.05270   0.09260   0.10279   0.13167   0.14167
 Alpha virt. eigenvalues --    0.14443   0.15587   0.16936   0.17661   0.18158
 Alpha virt. eigenvalues --    0.18943   0.19385   0.20177   0.21484   0.21890

 Mulliken charges:
               1
     1  C   -0.290976
     2  C    0.346614
     3  O   -0.578044
     4  C    0.186088
     5  C   -0.297573
     6  H    0.149631
     7  H    0.153949
     8  H    0.149246
     9  N   -0.350050
    10  H    0.275873
    11  H    0.272274
    12  C   -0.376732
    13  H    0.154696
    14  H    0.146435
    15  H    0.141368
    16  C   -0.363667
    17  H    0.136767
    18  H    0.129206
    19  H    0.153572
    20  Br  -0.191442
    21  N   -0.476139
    22  H    0.263436
    23  H    0.265466
 Sum of Mulliken charges =   0.00000

 Dipole moment (field-independent basis, Debye):
    X=             -3.8056    Y=             -3.4211    Z=              2.3272  Tot=              5.6216
 Quadrupole moment (field-independent basis, Debye-Ang):
   XX=            -61.7884   YY=            -79.2802   ZZ=            -71.2419
   XY=             11.8515   XZ=             -1.3433   YZ=              2.5146

  Exact polarizability: 183.389   7.094 162.751  -2.000   1.017 135.096
 Approx polarizability: 146.781   0.214 131.348  -1.586   1.256 112.491

 ******    1 imaginary frequencies (negative Signs) ******

                      1                      2                      3
                      A                      A                      A
 Frequencies --   -381.9484                67.5355                79.2358
 Red. masses --      4.9632                 3.8044                 2.9124
 Frc consts  --      0.4266                 0.0102                 0.0108
 IR Inten    --    772.6155                 0.8969                10.2390

                      4                      5                      6
                      A                      A                      A
 Frequencies --     97.9010               131.8468               198.8752
 Red. masses --      4.1578                 2.5323                 1.5561
 Frc consts  --      0.0235                 0.0259                 0.0363
 IR Inten    --     26.1466                42.0850                 4.4249

                      7                      8                      9
                      A                      A                      A
 Frequencies --    204.2685               208.1485               217.7179
 Red. masses --      3.0859                 1.5164                 3.1352
 Frc consts  --      0.0759                 0.0387                 0.0876
 IR Inten    --      4.6918                 1.3567                 4.6361

                     10                     11                     12
                      A                      A                      A
 Frequencies --    230.9056               285.0532               289.7074
 Red. masses --      1.6847                 1.6567                 1.2026
 Frc consts  --      0.0529                 0.0793                 0.0595
 IR Inten    --     17.6353               166.0005                79.6982

                     13                     14                     15
                      A                      A                      A
 Frequencies --    290.8232               304.3483               358.9168
 Red. masses --      1.9145                 2.5177                 2.9877
 Frc consts  --      0.0954                 0.1374                 0.2268
 IR Inten    --     85.2991                 4.4377                15.9405

                     16                     17                     18
                      A                      A                      A
 Frequencies --    406.7928               413.3974               491.6833
 Red. masses --      4.0726                 3.2736                 1.8547
 Frc consts  --      0.3971                 0.3296                 0.2642
 IR Inten    --     20.7327                 8.8519                27.7055

                     19                     20                     21
                      A                      A                      A
 Frequencies --    508.9856               534.7790               656.7350
 Red. masses --      1.8903                 1.9077                 2.3466
 Frc consts  --      0.2885                 0.3214                 0.5963
 IR Inten    --     50.8661                 5.2893                65.7066

                     22                     23                     24
                      A                      A                      A
 Frequencies --    676.6985               781.9795               894.5510
 Red. masses --      1.7841                 9.0450                 3.3591
 Frc consts  --      0.4814                 3.2587                 1.5838
 IR Inten    --     49.0271                39.4857                18.4953

                     25                     26                     27
                      A                      A                      A
 Frequencies --    954.0974               989.8753               993.4580
 Red. masses --      1.3611                 1.3777                 1.6465
 Frc consts  --      0.7300                 0.7954                 0.9574
 IR Inten    --      7.1559                57.7242                77.0437

                     28                     29                     30
                      A                      A                      A
 Frequencies --   1032.5159              1054.3324              1078.5090
 Red. masses --      1.3230                 1.2727                 2.3140
 Frc consts  --      0.8310                 0.8335                 1.5858
 IR Inten    --     45.2990                91.7017                83.0753

                     31                     32                     33
                      A                      A                      A
 Frequencies --   1087.7250              1111.9723              1118.4148
 Red. masses --      2.1346                 1.9003                 2.1208
 Frc consts  --      1.4880                 1.3844                 1.5630
 IR Inten    --     26.9869                24.6203                15.5687

                     34                     35                     36
                      A                      A                      A
 Frequencies --   1206.4305              1253.4040              1356.6775
 Red. masses --      1.4138                 3.5142                 1.3265
 Frc consts  --      1.2124                 3.2528                 1.4385
 IR Inten    --     32.1038                23.5974                 6.1717

                     37                     38                     39
                      A                      A                      A
 Frequencies --   1386.0934              1399.5586              1404.9283
 Red. masses --      2.6502                 1.7225                 1.8113
 Frc consts  --      2.9999                 1.9879                 2.1065
 IR Inten    --     54.3924               422.9203               455.5094

                     40                     41                     42
                      A                      A                      A
 Frequencies --   1424.9775              1455.5041              1475.2800
 Red. masses --      1.4774                 1.1980                 1.0556
 Frc consts  --      1.7676                 1.4953                 1.3536
 IR Inten    --    245.1349                20.6396                20.1775

                     43                     44                     45
                      A                      A                      A
 Frequencies --   1484.8870              1493.0282              1503.0337
 Red. masses --      1.0543                 1.0516                 1.1704
 Frc consts  --      1.3696                 1.3812                 1.5579
 IR Inten    --      9.0319                15.8411                72.7378

                     46                     47                     48
                      A                      A                      A
 Frequencies --   1508.4372              1509.4000              1591.5669
 Red. masses --      1.1101                 1.0439                 2.4452
 Frc consts  --      1.4882                 1.4013                 3.6493
 IR Inten    --     11.3182                12.6948               404.6792

                     49                     50                     51
                      A                      A                      A
 Frequencies --   1628.4318              1651.7745              3058.3385
 Red. masses --      1.5438                 1.2493                 1.0395
 Frc consts  --      2.4120                 2.0082                 5.7288
 IR Inten    --    466.8666                10.7573                40.0750

                     52                     53                     54
                      A                      A                      A
 Frequencies --   3060.3447              3066.3165              3123.3006
 Red. masses --      1.0338                 1.0378                 1.1009
 Frc consts  --      5.7045                 5.7489                 6.3274
 IR Inten    --     46.9461                21.9479                29.0828

                     55                     56                     57
                      A                      A                      A
 Frequencies --   3131.5725              3138.1935              3157.5924
 Red. masses --      1.1040                 1.0999                 1.1047
 Frc consts  --      6.3789                 6.3822                 6.4892
 IR Inten    --     18.6284                30.1471                24.4546

                     58                     59                     60
                      A                      A                      A
 Frequencies --   3163.0605              3187.0497              3480.6324
 Red. masses --      1.1030                 1.1005                 1.0564
 Frc consts  --      6.5020                 6.5858                 7.5404
 IR Inten    --     19.4381                 4.4549                48.1874

                     61                     62                     63
                      A                      A                      A
 Frequencies --   3597.7287              3624.4755              3746.9234
 Red. masses --      1.0914                 1.0457                 1.1038
 Frc consts  --      8.3231                 8.0938                 9.1300
 IR Inten    --     70.7821                65.8954                85.9802

 - Thermochemistry -
 -------------------
 Temperature   298.150 Kelvin.  Pressure   1.00000 Atm.
 Atom     1 has atomic number  6 and mass  12.00000

 Molecular mass:   208.02112 amu.
 Principal axes and moments of inertia in atomic units:
                           1         2         3
     Eigenvalues --  1697.675182311.551252934.62677
           X            0.98673   0.16234   0.00130
           Y           -0.16234   0.98670   0.00821
           Z            0.00005  -0.00831   0.99997
 This molecule is an asymmetric top.
 Rotational symmetry number  1.
 Warning -- assumption of classical behavior for rotation
           may cause significant error
 Rotational temperatures (Kelvin)      0.05102     0.03747     0.02951
 Rotational constants (GHZ):           1.06307     0.78075     0.61498
    1 imaginary frequencies ignored.
 Zero-point vibrational energy     508536.9 (Joules/Mol)
                                  121.54323 (Kcal/Mol)
 Warning -- explicit consideration of  19 degrees of freedom as
           vibrations may cause significant error
 Vibrational temperatures:     97.17   114.00   140.86   189.70   286.14
          (Kelvin)            293.90   299.48   313.25   332.22   410.13
                              416.82   418.43   437.89   516.40   585.28
                              594.79   707.42   732.32   769.43   944.90
                              973.62  1125.09  1287.06  1372.73  1424.21
                             1429.36  1485.56  1516.95  1551.73  1564.99
                             1599.88  1609.15  1735.78  1803.37  1951.96
                             1994.28  2013.65  2021.38  2050.22  2094.15
                             2122.60  2136.42  2148.13  2162.53  2170.30
                             2171.69  2289.91  2342.95  2376.54  4400.27
                             4403.15  4411.75  4493.73  4505.63  4515.16
                             4543.07  4550.94  4585.45  5007.85  5176.33
                             5214.81  5390.99

 Zero-point correction=                           0.193691 (Hartree/Particle)
 Thermal correction to Energy=                    0.206329
 Thermal correction to Enthalpy=                  0.207273
 Thermal correction to Gibbs Free Energy=         0.154923
 Sum of electronic and zero-point Energies=          -2995.233634
 Sum of electronic and thermal Energies=             -2995.220996
 Sum of electronic and thermal Enthalpies=           -2995.220052
 Sum of electronic and thermal Free Energies=        -2995.272402

                     E (Thermal)             CV                S
                      KCal/Mol        Cal/Mol-Kelvin    Cal/Mol-Kelvin
 Total                  129.474             45.327            110.180
 Electronic               0.000              0.000              0.000
 Translational            0.889              2.981             41.901
 Rotational               0.889              2.981             30.822
 Vibrational            127.696             39.365             37.457
 Vibration     1          0.598              1.970              4.224
 Vibration     2          0.600              1.963              3.910
 Vibration     3          0.603              1.951              3.496
 Vibration     4          0.612              1.922              2.919
 Vibration     5          0.637              1.841              2.143
 Vibration     6          0.640              1.834              2.094
 Vibration     7          0.641              1.828              2.060
 Vibration     8          0.646              1.814              1.978
 Vibration     9          0.653              1.794              1.872
 Vibration    10          0.683              1.701              1.503
 Vibration    11          0.686              1.693              1.476
 Vibration    12          0.687              1.691              1.469
 Vibration    13          0.695              1.665              1.393
 Vibration    14          0.734              1.557              1.127
 Vibration    15          0.772              1.455              0.938
 Vibration    16          0.777              1.441              0.915
 Vibration    17          0.847              1.268              0.679
 Vibration    18          0.864              1.230              0.636
 Vibration    19          0.890              1.173              0.577

 Optimization completed.
    -- Stationary point found.
 Normal termination of Gaussian 16 at Mon Feb 15 21:52:56 2021.
