 Gaussian 16, Revision A.03,
 Gaussian 16:  ES64L-G16RevA.03 25-Dec-2016

 ----------------------------------------------------------------------
 # wB97XD def2tzvp, opt=(ts, noeigen, calcfc, maxcycles=70, maxstep=1),
  freq=noraman, scrf=(iefpcm, solvent=water)
 ----------------------------------------------------------------------

 ------------------------
 0_iteration/TS-513-0.out
 ------------------------
 Symbolic Z-matrix:
 Charge =  0 Multiplicity = 1

 SCF Done:  E(RwB97XD) =  -826.035154153     A.U. after   15 cycles
 SCF Done:  E(RwB97XD) =  -826.035100882     A.U. after   10 cycles
 SCF Done:  E(RwB97XD) =  -826.035051062     A.U. after   10 cycles
 SCF Done:  E(RwB97XD) =  -826.035004723     A.U. after   10 cycles
 SCF Done:  E(RwB97XD) =  -826.034961903     A.U. after   10 cycles
 SCF Done:  E(RwB97XD) =  -826.034922613     A.U. after   10 cycles
 SCF Done:  E(RwB97XD) =  -826.034886858     A.U. after   10 cycles
 SCF Done:  E(RwB97XD) =  -826.034854646     A.U. after   10 cycles
 SCF Done:  E(RwB97XD) =  -826.034826010     A.U. after   10 cycles
 SCF Done:  E(RwB97XD) =  -826.034800974     A.U. after   10 cycles
 SCF Done:  E(RwB97XD) =  -826.037667652     A.U. after   10 cycles
 SCF Done:  E(RwB97XD) =  -826.037702479     A.U. after    9 cycles
 SCF Done:  E(RwB97XD) =  -826.037728880     A.U. after   10 cycles
 SCF Done:  E(RwB97XD) =  -826.037746112     A.U. after   10 cycles
 SCF Done:  E(RwB97XD) =  -826.037757357     A.U. after   10 cycles
 SCF Done:  E(RwB97XD) =  -826.037762528     A.U. after   10 cycles
 SCF Done:  E(RwB97XD) =  -826.037762543     A.U. after    9 cycles
 SCF Done:  E(RwB97XD) =  -826.037762624     A.U. after    7 cycles
 SCF Done:  E(RwB97XD) =  -826.037762683     A.U. after    7 cycles
 Optimization completed.
    -- Stationary point found.
 Normal termination of Gaussian 16 at Mon Feb 15 21:20:07 2021.

 ---------------------------------------------------------------------
 #N Geom=AllCheck Guess=TCheck SCRF=Check GenChk RwB97XD/def2TZVP Freq
 ---------------------------------------------------------------------

 Structure from the checkpoint file:  "/beegfs/scratch/user/q/tla25/Gau-118721.chk"
 ------------------------
 0_iteration/TS-513-0.out
 ------------------------
 Charge =  0 Multiplicity = 1

                         Standard orientation:
 ---------------------------------------------------------------------
 Center     Atomic      Atomic             Coordinates (Angstroms)
 Number     Number       Type             X           Y           Z
 ---------------------------------------------------------------------
      1          6           0       -0.836930    0.120407    0.157259
      2          6           0       -1.678285    1.182023   -0.224950
      3          8           0       -2.836922    1.110300   -0.645229
      4          6           0        0.495453    0.242405    0.595296
      5          6           0        3.026209   -0.170870   -1.025364
      6          1           0        3.442342   -0.246230   -2.031324
      7          1           0        3.479422    0.681345   -0.521884
      8          1           0        3.271401   -1.077418   -0.476093
      9          7           0        1.573485   -0.002532   -1.053452
     10          1           0        1.305923    0.807340   -1.600979
     11          1           0        1.122161   -0.807139   -1.473598
     12          6           0        1.102158   -0.868994    1.411970
     13          1           0        0.594816   -0.892930    2.379314
     14          1           0        0.977214   -1.843504    0.946225
     15          1           0        2.160286   -0.688432    1.592764
     16          6           0        1.004280    1.608324    0.997630
     17          1           0        0.562253    1.880017    1.957617
     18          1           0        2.084790    1.579543    1.128430
     19          1           0        0.767067    2.388482    0.278989
     20         17           0       -1.502550   -1.500218   -0.059515
     21          1           0       -1.220662    2.178189   -0.102751
 ---------------------------------------------------------------------

 SCF Done:  E(RwB97XD) =  -826.037762683     A.U. after    1 cycles

 The electronic state is 1-A.
 Alpha  occ. eigenvalues -- -101.68389 -19.20594 -14.47844 -10.36460 -10.34532
 Alpha  occ. eigenvalues --  -10.31781 -10.30649 -10.28840 -10.28411  -9.56925
 Alpha  occ. eigenvalues --   -7.31530  -7.30731  -7.30711  -1.10866  -1.03500
 Alpha  occ. eigenvalues --   -0.96457  -0.90508  -0.81536  -0.79508  -0.78645
 Alpha  occ. eigenvalues --   -0.69464  -0.62690  -0.60958  -0.59008  -0.56568
 Alpha  occ. eigenvalues --   -0.55554  -0.53678  -0.50407  -0.49856  -0.48821
 Alpha  occ. eigenvalues --   -0.48423  -0.47703  -0.46995  -0.46510  -0.44392
 Alpha  occ. eigenvalues --   -0.41607  -0.39962  -0.38649  -0.32447  -0.27727
 Alpha virt. eigenvalues --    0.03864   0.09673   0.11383   0.13476   0.13867
 Alpha virt. eigenvalues --    0.14574   0.15374   0.17137   0.17919   0.18572
 Alpha virt. eigenvalues --    0.18830   0.20089   0.20873   0.21739   0.21945

 Mulliken charges:
               1
     1  C    0.014133
     2  C    0.034794
     3  O   -0.514661
     4  C    0.043373
     5  C   -0.293357
     6  H    0.155233
     7  H    0.152329
     8  H    0.160250
     9  N   -0.357386
    10  H    0.280496
    11  H    0.278950
    12  C   -0.370905
    13  H    0.155996
    14  H    0.150123
    15  H    0.147567
    16  C   -0.370691
    17  H    0.163124
    18  H    0.142855
    19  H    0.148563
    20  Cl  -0.190721
    21  H    0.069934
 Sum of Mulliken charges =  -0.00000

 Dipole moment (field-independent basis, Debye):
    X=             12.7177    Y=              0.3776    Z=             -0.1440  Tot=             12.7242
 Quadrupole moment (field-independent basis, Debye-Ang):
   XX=            -75.8349   YY=            -62.0505   ZZ=            -57.7359
   XY=              4.3565   XZ=             -8.4380   YZ=              1.9567

  Exact polarizability: 183.367  -8.959 131.715   3.469   0.136 114.106
 Approx polarizability: 138.100  -4.350 109.567   3.863   0.138  97.966

 ******    1 imaginary frequencies (negative Signs) ******

                      1                      2                      3
                      A                      A                      A
 Frequencies --   -322.4183                55.1271                71.2594
 Red. masses --      5.7215                 3.3244                 2.5190
 Frc consts  --      0.3504                 0.0060                 0.0075
 IR Inten    --    846.2949                 0.9809                 2.5583

                      4                      5                      6
                      A                      A                      A
 Frequencies --    104.0016               172.1583               213.8674
 Red. masses --      3.9443                 1.1636                 2.1020
 Frc consts  --      0.0251                 0.0203                 0.0566
 IR Inten    --     13.7534                 0.0998                 5.3075

                      7                      8                      9
                      A                      A                      A
 Frequencies --    216.8416               237.4029               256.2357
 Red. masses --      2.2302                 2.8143                 1.7339
 Frc consts  --      0.0618                 0.0935                 0.0671
 IR Inten    --      7.3845                 5.9242                 3.2109

                     10                     11                     12
                      A                      A                      A
 Frequencies --    276.2798               281.2970               322.7013
 Red. masses --      1.6196                 2.1468                 2.8337
 Frc consts  --      0.0728                 0.1001                 0.1739
 IR Inten    --      0.7983                 1.5723                22.2064

                     13                     14                     15
                      A                      A                      A
 Frequencies --    375.6513               393.9837               441.7890
 Red. masses --      2.6844                 2.6548                 3.4028
 Frc consts  --      0.2232                 0.2428                 0.3913
 IR Inten    --      7.7174                 9.1320                 3.8599

                     16                     17                     18
                      A                      A                      A
 Frequencies --    511.6514               588.6739               648.3936
 Red. masses --      3.9296                 3.7808                 1.3384
 Frc consts  --      0.6061                 0.7719                 0.3315
 IR Inten    --    147.5967                52.6459                52.2111

                     19                     20                     21
                      A                      A                      A
 Frequencies --    662.9231               896.0578               958.6624
 Red. masses --      5.0756                 3.0752                 1.3271
 Frc consts  --      1.3142                 1.4548                 0.7186
 IR Inten    --     55.6025                28.7291                 0.7007

                     22                     23                     24
                      A                      A                      A
 Frequencies --   1008.2860              1013.1262              1032.3103
 Red. masses --      1.5500                 1.2015                 1.2408
 Frc consts  --      0.9284                 0.7266                 0.7791
 IR Inten    --      0.7606                 2.4525                 6.9153

                     25                     26                     27
                      A                      A                      A
 Frequencies --   1042.2710              1058.4486              1083.6176
 Red. masses --      1.1213                 3.1363                 1.8779
 Frc consts  --      0.7177                 2.0702                 1.2992
 IR Inten    --    244.6368               179.2206                31.0283

                     28                     29                     30
                      A                      A                      A
 Frequencies --   1113.1667              1210.3529              1228.8561
 Red. masses --      1.9917                 3.4414                 1.3963
 Frc consts  --      1.4541                 2.9703                 1.2423
 IR Inten    --     35.3093                23.4746                29.8922

                     31                     32                     33
                      A                      A                      A
 Frequencies --   1301.4724              1351.8051              1386.3570
 Red. masses --      3.2039                 1.3106                 2.0029
 Frc consts  --      3.1974                 1.4111                 2.2681
 IR Inten    --     97.2697                 1.1265               577.3470

                     34                     35                     36
                      A                      A                      A
 Frequencies --   1413.8742              1423.7843              1456.3934
 Red. masses --      1.3004                 1.2206                 1.2831
 Frc consts  --      1.5316                 1.4578                 1.6035
 IR Inten    --     71.3439                 7.2091                57.3546

                     37                     38                     39
                      A                      A                      A
 Frequencies --   1471.9545              1477.8635              1484.0016
 Red. masses --      1.2755                 1.0656                 1.0618
 Frc consts  --      1.6283                 1.3712                 1.3777
 IR Inten    --     67.3370                11.9273                 6.0612

                     40                     41                     42
                      A                      A                      A
 Frequencies --   1495.1529              1505.1593              1512.2187
 Red. masses --      1.0611                 1.0780                 1.0326
 Frc consts  --      1.3976                 1.4389                 1.3913
 IR Inten    --     16.2295                41.6188                19.5902

                     43                     44                     45
                      A                      A                      A
 Frequencies --   1523.5442              1645.3628              1660.9373
 Red. masses --      1.5188                 1.1179                 6.0754
 Frc consts  --      2.0771                 1.7831                 9.8750
 IR Inten    --    187.9490               169.0277              1037.4000

                     46                     47                     48
                      A                      A                      A
 Frequencies --   2975.7064              3065.5133              3067.4989
 Red. masses --      1.0809                 1.0361                 1.0396
 Frc consts  --      5.6392                 5.7365                 5.7635
 IR Inten    --    107.3555                50.6896                12.1492

                     49                     50                     51
                      A                      A                      A
 Frequencies --   3076.1825              3140.1072              3141.6925
 Red. masses --      1.0386                 1.0988                 1.1009
 Frc consts  --      5.7905                 6.3836                 6.4019
 IR Inten    --     19.5433                17.9319                12.2599

                     52                     53                     54
                      A                      A                      A
 Frequencies --   3146.9554              3168.2909              3172.6483
 Red. masses --      1.0999                 1.1053                 1.1026
 Frc consts  --      6.4176                 6.5371                 6.5390
 IR Inten    --     27.7521                25.1908                10.2845

                     55                     56                     57
                      A                      A                      A
 Frequencies --   3173.9193              3523.3132              3602.7957
 Red. masses --      1.1034                 1.0512                 1.0959
 Frc consts  --      6.5491                 7.6884                 8.3813
 IR Inten    --     18.1842                15.7268                37.1888

 - Thermochemistry -
 -------------------
 Temperature   298.150 Kelvin.  Pressure   1.00000 Atm.
 Atom     1 has atomic number  6 and mass  12.00000

 Molecular mass:   149.06074 amu.
 Principal axes and moments of inertia in atomic units:
                           1         2         3
     Eigenvalues --  1001.047502042.459032331.52442
           X            0.99986  -0.01212  -0.01170
           Y            0.01234   0.99975   0.01866
           Z            0.01147  -0.01880   0.99976
 This molecule is an asymmetric top.
 Rotational symmetry number  1.
 Warning -- assumption of classical behavior for rotation
           may cause significant error
 Rotational temperatures (Kelvin)      0.08652     0.04241     0.03715
 Rotational constants (GHZ):           1.80285     0.88361     0.77406
    1 imaginary frequencies ignored.
 Zero-point vibrational energy     465586.0 (Joules/Mol)
                                  111.27772 (Kcal/Mol)
 Warning -- explicit consideration of  16 degrees of freedom as
           vibrations may cause significant error
 Vibrational temperatures:     79.32   102.53   149.64   247.70   307.71
          (Kelvin)            311.99   341.57   368.67   397.51   404.72
                              464.30   540.48   566.85   635.64   736.15
                              846.97   932.89   953.80  1289.23  1379.30
                             1450.70  1457.66  1485.26  1499.60  1522.87
                             1559.08  1601.60  1741.43  1768.05  1872.53
                             1944.95  1994.66  2034.25  2048.51  2095.43
                             2117.81  2126.32  2135.15  2151.19  2165.59
                             2175.75  2192.04  2367.31  2389.72  4281.38
                             4410.59  4413.45  4425.94  4517.91  4520.19
                             4527.77  4558.46  4564.73  4566.56  5069.26
                             5183.62

 Zero-point correction=                           0.177332 (Hartree/Particle)
 Thermal correction to Energy=                    0.188453
 Thermal correction to Enthalpy=                  0.189397
 Thermal correction to Gibbs Free Energy=         0.140440
 Sum of electronic and zero-point Energies=           -825.860430
 Sum of electronic and thermal Energies=              -825.849310
 Sum of electronic and thermal Enthalpies=            -825.848365
 Sum of electronic and thermal Free Energies=         -825.897322

                     E (Thermal)             CV                S
                      KCal/Mol        Cal/Mol-Kelvin    Cal/Mol-Kelvin
 Total                  118.256             39.344            103.038
 Electronic               0.000              0.000              0.000
 Translational            0.889              2.981             40.908
 Rotational               0.889              2.981             29.945
 Vibrational            116.479             33.383             32.185
 Vibration     1          0.596              1.976              4.624
 Vibration     2          0.598              1.968              4.118
 Vibration     3          0.605              1.946              3.378
 Vibration     4          0.626              1.877              2.412
 Vibration     5          0.644              1.820              2.010
 Vibration     6          0.646              1.815              1.985
 Vibration     7          0.656              1.783              1.822
 Vibration     8          0.666              1.752              1.687
 Vibration     9          0.678              1.717              1.557
 Vibration    10          0.681              1.708              1.526
 Vibration    11          0.708              1.630              1.296
 Vibration    12          0.746              1.522              1.057
 Vibration    13          0.761              1.483              0.985
 Vibration    14          0.802              1.379              0.821
 Vibration    15          0.867              1.224              0.630
 Vibration    16          0.946              1.056              0.470

 Optimization completed.
    -- Stationary point found.
 Normal termination of Gaussian 16 at Mon Feb 15 21:31:38 2021.
