 Gaussian 16, Revision A.03,
 Gaussian 16:  ES64L-G16RevA.03 25-Dec-2016

 ----------------------------------------------------------------------
 # wB97XD def2tzvp, opt=(ts, noeigen, calcfc, maxcycles=70, maxstep=8),
  freq=noraman, scrf=(iefpcm, solvent=water)
 ----------------------------------------------------------------------

 ------------------------
 1_iteration/TS-561-1.out
 ------------------------
 Symbolic Z-matrix:
 Charge =  0 Multiplicity = 1

 SCF Done:  E(RwB97XD) =  -1017.76663160     A.U. after   15 cycles
 SCF Done:  E(RwB97XD) =  -1017.76659860     A.U. after   12 cycles
 SCF Done:  E(RwB97XD) =  -1017.76670698     A.U. after   12 cycles
 SCF Done:  E(RwB97XD) =  -1017.76673449     A.U. after   11 cycles
 SCF Done:  E(RwB97XD) =  -1017.76660877     A.U. after   12 cycles
 SCF Done:  E(RwB97XD) =  -1017.76673584     A.U. after   12 cycles
 SCF Done:  E(RwB97XD) =  -1017.76673659     A.U. after    9 cycles
 SCF Done:  E(RwB97XD) =  -1017.76673670     A.U. after    8 cycles
 SCF Done:  E(RwB97XD) =  -1017.76673672     A.U. after    6 cycles
 Optimization completed.
    -- Stationary point found.
 Normal termination of Gaussian 16 at Tue Feb 16 18:18:15 2021.

 ---------------------------------------------------------------------
 #N Geom=AllCheck Guess=TCheck SCRF=Check GenChk RwB97XD/def2TZVP Freq
 ---------------------------------------------------------------------

 Structure from the checkpoint file:  "/beegfs/scratch/user/q/tla25/Gau-54916.chk"
 ------------------------
 1_iteration/TS-561-1.out
 ------------------------
 Charge =  0 Multiplicity = 1

                         Standard orientation:
 ---------------------------------------------------------------------
 Center     Atomic      Atomic             Coordinates (Angstroms)
 Number     Number       Type             X           Y           Z
 ---------------------------------------------------------------------
      1          6           0       -0.332750   -0.630808   -0.097186
      2          6           0       -0.637923   -1.761207   -0.903158
      3          8           0        0.171721   -2.496061   -1.473311
      4          6           0       -1.351400    0.145593    0.475902
      5          6           0       -1.231791    2.190311   -1.518708
      6          1           0       -1.644393    2.629493   -2.426890
      7          1           0       -0.994357    2.985265   -0.815380
      8          1           0       -0.321040    1.648505   -1.767895
      9          7           0       -2.170018    1.259603   -0.900502
     10          1           0       -2.987245    1.734916   -0.532655
     11          1           0       -2.490343    0.567177   -1.568289
     12          6           0       -1.046858    1.217355    1.483826
     13          1           0       -0.209654    1.828259    1.150933
     14          1           0       -1.914412    1.850233    1.657693
     15          1           0       -0.771536    0.751724    2.429919
     16         17           0       -2.879912   -0.689639    0.911210
     17          6           0        1.099087   -0.246307    0.065053
     18          6           0        1.727274   -0.308348    1.308522
     19          6           0        3.065185    0.028969    1.457095
     20          6           0        3.811365    0.419740    0.355326
     21          6           0        3.208775    0.463669   -0.894541
     22          6           0        1.869627    0.133589   -1.034331
     23          1           0        1.161116   -0.632726    2.173080
     24          1           0        3.526399   -0.022294    2.435711
     25          1           0        4.856003    0.681479    0.467620
     26          1           0        3.783217    0.758460   -1.764148
     27          1           0        1.412415    0.163312   -2.015849
     28          1           0       -1.714847   -1.984009   -1.011218
 ---------------------------------------------------------------------

 SCF Done:  E(RwB97XD) =  -1017.76673672     A.U. after    1 cycles

 The electronic state is 1-A.
 Alpha  occ. eigenvalues -- -101.69940 -19.20883 -14.48816 -10.40931 -10.34460
 Alpha  occ. eigenvalues --  -10.31904 -10.29854 -10.29283 -10.28720 -10.28698
 Alpha  occ. eigenvalues --  -10.28613 -10.28517 -10.28502 -10.26853  -9.58546
 Alpha  occ. eigenvalues --   -7.33170  -7.32339  -7.32299  -1.11048  -1.04648
 Alpha  occ. eigenvalues --   -0.98082  -0.96144  -0.89043  -0.84929  -0.84464
 Alpha  occ. eigenvalues --   -0.81549  -0.79187  -0.70279  -0.70181  -0.69437
 Alpha  occ. eigenvalues --   -0.63582  -0.63446  -0.59115  -0.58289  -0.57957
 Alpha  occ. eigenvalues --   -0.55659  -0.54667  -0.53713  -0.52801  -0.50659
 Alpha  occ. eigenvalues --   -0.50228  -0.49917  -0.48362  -0.48195  -0.47259
 Alpha  occ. eigenvalues --   -0.46605  -0.45909  -0.44206  -0.42496  -0.42370
 Alpha  occ. eigenvalues --   -0.40403  -0.38798  -0.33718  -0.33527  -0.31972
 Alpha  occ. eigenvalues --   -0.27944
 Alpha virt. eigenvalues --    0.03246   0.04802   0.05646   0.08659   0.10248
 Alpha virt. eigenvalues --    0.12926   0.13297   0.14282   0.15277   0.15901
 Alpha virt. eigenvalues --    0.16839   0.16895   0.18625   0.18965   0.19120

 Mulliken charges:
               1
     1  C   -0.144060
     2  C    0.070854
     3  O   -0.500712
     4  C    0.143937
     5  C   -0.280500
     6  H    0.161035
     7  H    0.163901
     8  H    0.123078
     9  N   -0.324997
    10  H    0.289174
    11  H    0.280113
    12  C   -0.402274
    13  H    0.166831
    14  H    0.159250
    15  H    0.161737
    16  Cl  -0.114390
    17  C    0.195043
    18  C   -0.260769
    19  C   -0.143259
    20  C   -0.154252
    21  C   -0.142823
    22  C   -0.248529
    23  H    0.150561
    24  H    0.139579
    25  H    0.141386
    26  H    0.139014
    27  H    0.158121
    28  H    0.072952
 Sum of Mulliken charges =  -0.00000

 Dipole moment (field-independent basis, Debye):
    X=             -4.9148    Y=              9.9369    Z=              0.5463  Tot=             11.0994
 Quadrupole moment (field-independent basis, Debye-Ang):
   XX=            -78.5326   YY=            -99.7967   ZZ=            -85.7411
   XY=             -4.6427   XZ=              8.5034   YZ=            -11.4436

  Exact polarizability: 255.038  -2.750 197.191  -4.571   2.056 207.557
 Approx polarizability: 197.785  -0.839 162.001  -4.777   1.628 177.974

 ******    1 imaginary frequencies (negative Signs) ******

                      1                      2                      3
                      A                      A                      A
 Frequencies --   -366.2094                36.2102                55.7847
 Red. masses --      5.6867                 3.8450                 3.4783
 Frc consts  --      0.4493                 0.0030                 0.0064
 IR Inten    --    901.2546                 1.9745                 2.7573

                      4                      5                      6
                      A                      A                      A
 Frequencies --     75.6134                91.9208               124.2784
 Red. masses --      3.2536                 3.9967                 3.5609
 Frc consts  --      0.0110                 0.0199                 0.0324
 IR Inten    --      5.1559                 2.9388                 7.1873

                      7                      8                      9
                      A                      A                      A
 Frequencies --    167.1984               188.5564               207.8426
 Red. masses --      2.5672                 4.8967                 1.6132
 Frc consts  --      0.0423                 0.1026                 0.0411
 IR Inten    --      2.1049                 9.6344                 2.1351

                     10                     11                     12
                      A                      A                      A
 Frequencies --    234.0816               259.4474               272.3167
 Red. masses --      3.7908                 3.2750                 2.7124
 Frc consts  --      0.1224                 0.1299                 0.1185
 IR Inten    --     21.5848                14.1042                 3.3675

                     13                     14                     15
                      A                      A                      A
 Frequencies --    289.4538               305.7350               336.5530
 Red. masses --      3.8860                 2.2761                 1.4644
 Frc consts  --      0.1918                 0.1253                 0.0977
 IR Inten    --      3.8900                23.0193                21.5023

                     16                     17                     18
                      A                      A                      A
 Frequencies --    372.8880               396.5380               429.9505
 Red. masses --      4.1222                 2.8767                 2.8847
 Frc consts  --      0.3377                 0.2665                 0.3142
 IR Inten    --      6.8208                 6.0139                 0.3339

                     19                     20                     21
                      A                      A                      A
 Frequencies --    499.9906               537.3971               561.8375
 Red. masses --      4.6192                 3.7450                 4.7464
 Frc consts  --      0.6804                 0.6372                 0.8828
 IR Inten    --     22.4299                 6.5736                41.1421

                     22                     23                     24
                      A                      A                      A
 Frequencies --    595.7746               641.2443               688.4843
 Red. masses --      4.0003                 5.5399                 1.8931
 Frc consts  --      0.8366                 1.3421                 0.5287
 IR Inten    --     79.9170                 3.1287                22.3556

                     25                     26                     27
                      A                      A                      A
 Frequencies --    719.5615               733.5999               773.7980
 Red. masses --      3.0337                 1.4008                 3.8892
 Frc consts  --      0.9255                 0.4442                 1.3720
 IR Inten    --    111.0143               172.6707                75.2296

                     28                     29                     30
                      A                      A                      A
 Frequencies --    813.3424               881.6421               959.7301
 Red. masses --      2.4653                 1.2432                 1.4332
 Frc consts  --      0.9609                 0.5693                 0.7778
 IR Inten    --     40.7243                 1.2082                 3.2016

                     31                     32                     33
                      A                      A                      A
 Frequencies --    997.2159              1014.5813              1025.8240
 Red. masses --      1.0987                 1.3676                 1.8645
 Frc consts  --      0.6438                 0.8294                 1.1560
 IR Inten    --      6.6411                 0.6858                 0.3421

                     34                     35                     36
                      A                      A                      A
 Frequencies --   1026.9460              1032.8892              1036.2172
 Red. masses --      2.4334                 1.4952                 1.3726
 Frc consts  --      1.5120                 0.9399                 0.8683
 IR Inten    --      1.2451                11.5618               102.1293

                     37                     38                     39
                      A                      A                      A
 Frequencies --   1048.2471              1054.3748              1072.2033
 Red. masses --      2.4717                 1.7496                 1.7612
 Frc consts  --      1.6002                 1.1460                 1.1929
 IR Inten    --     28.5758                80.4203                 8.3055

                     40                     41                     42
                      A                      A                      A
 Frequencies --   1081.7906              1106.7441              1114.4243
 Red. masses --      3.2297                 2.1891                 1.9484
 Frc consts  --      2.2269                 1.5798                 1.4257
 IR Inten    --      3.5769                49.2311                80.7478

                     43                     44                     45
                      A                      A                      A
 Frequencies --   1173.6679              1181.5709              1209.5994
 Red. masses --      2.7398                 1.1302                 1.1231
 Frc consts  --      2.2236                 0.9297                 0.9682
 IR Inten    --     38.0045                 0.1294                 0.1365

                     46                     47                     48
                      A                      A                      A
 Frequencies --   1229.1925              1308.5318              1340.5119
 Red. masses --      1.3926                 4.3131                 1.6609
 Frc consts  --      1.2397                 4.3512                 1.7585
 IR Inten    --     29.3049                48.5845               225.7368

                     49                     50                     51
                      A                      A                      A
 Frequencies --   1348.7936              1362.4310              1404.0595
 Red. masses --      1.8563                 1.5401                 3.1894
 Frc consts  --      1.9897                 1.6843                 3.7045
 IR Inten    --    287.7300               127.4865               268.2871

                     52                     53                     54
                      A                      A                      A
 Frequencies --   1424.1483              1453.8380              1470.9354
 Red. masses --      1.2682                 1.2058                 1.7355
 Frc consts  --      1.5155                 1.5016                 2.2124
 IR Inten    --     54.2766                14.8292               169.2071

                     55                     56                     57
                      A                      A                      A
 Frequencies --   1479.9241              1488.2469              1492.2519
 Red. masses --      1.0518                 1.6496                 1.1320
 Frc consts  --      1.3573                 2.1527                 1.4852
 IR Inten    --     11.6011                11.6092                19.3518

                     58                     59                     60
                      A                      A                      A
 Frequencies --   1504.2022              1505.9191              1545.8860
 Red. masses --      1.2773                 1.0387                 2.4397
 Frc consts  --      1.7027                 1.3879                 3.4351
 IR Inten    --     67.6410                19.2180                66.9128

                     61                     62                     63
                      A                      A                      A
 Frequencies --   1644.6353              1645.2208              1658.7638
 Red. masses --      1.2989                 3.0971                 7.0881
 Frc consts  --      2.0699                 4.9392                11.4907
 IR Inten    --     55.9016                17.9244               652.6485

                     64                     65                     66
                      A                      A                      A
 Frequencies --   1677.0571              2952.1246              3075.9939
 Red. masses --      6.2870                 1.0815                 1.0341
 Frc consts  --     10.4181                 5.5533                 5.7649
 IR Inten    --    286.3954               131.4849                38.8698

                     67                     68                     69
                      A                      A                      A
 Frequencies --   3079.8980              3153.7326              3157.1703
 Red. masses --      1.0357                 1.1033                 1.1017
 Frc consts  --      5.7885                 6.4653                 6.4698
 IR Inten    --      6.5935                 6.8183                 9.7536

                     70                     71                     72
                      A                      A                      A
 Frequencies --   3171.2193              3177.1180              3189.1592
 Red. masses --      1.1044                 1.1053                 1.0854
 Frc consts  --      6.5436                 6.5737                 6.5042
 IR Inten    --     21.7746                 9.0588                 5.7748

                     73                     74                     75
                      A                      A                      A
 Frequencies --   3193.8816              3203.2035              3209.0601
 Red. masses --      1.0879                 1.0915                 1.0952
 Frc consts  --      6.5382                 6.5985                 6.6450
 IR Inten    --      0.2909                19.9775                51.5838

                     76                     77                     78
                      A                      A                      A
 Frequencies --   3219.3639              3515.0651              3600.3574
 Red. masses --      1.0988                 1.0507                 1.0967
 Frc consts  --      6.7100                 7.6488                 8.3761
 IR Inten    --     16.6781                48.4970                47.4478

 - Thermochemistry -
 -------------------
 Temperature   298.150 Kelvin.  Pressure   1.00000 Atm.
 Atom     1 has atomic number  6 and mass  12.00000

 Molecular mass:   211.07639 amu.
 Principal axes and moments of inertia in atomic units:
                           1         2         3
     Eigenvalues --  1964.462584470.488114633.14110
           X            0.99971  -0.01315   0.02033
           Y            0.01616   0.98772  -0.15541
           Z           -0.01804   0.15569   0.98764
 This molecule is an asymmetric top.
 Rotational symmetry number  1.
 Warning -- assumption of classical behavior for rotation
           may cause significant error
 Rotational temperatures (Kelvin)      0.04409     0.01937     0.01869
 Rotational constants (GHZ):           0.91869     0.40370     0.38953
    1 imaginary frequencies ignored.
 Zero-point vibrational energy     605962.2 (Joules/Mol)
                                  144.82844 (Kcal/Mol)
 Warning -- explicit consideration of  21 degrees of freedom as
           vibrations may cause significant error
 Vibrational temperatures:     52.10    80.26   108.79   132.25   178.81
          (Kelvin)            240.56   271.29   299.04   336.79   373.29
                              391.80   416.46   439.88   484.22   536.50
                              570.53   618.60   719.37   773.19   808.36
                              857.19   922.61   990.58  1035.29  1055.49
                             1113.32  1170.22  1268.49  1380.84  1434.77
                             1459.76  1475.93  1477.55  1486.10  1490.89
                             1508.19  1517.01  1542.66  1556.46  1592.36
                             1603.41  1688.65  1700.02  1740.34  1768.53
                             1882.69  1928.70  1940.61  1960.23  2020.13
                             2049.03  2091.75  2116.35  2129.28  2141.26
                             2147.02  2164.21  2166.68  2224.19  2366.26
                             2367.11  2386.59  2412.91  4247.45  4425.67
                             4431.29  4537.52  4542.46  4562.68  4571.16
                             4588.49  4595.28  4608.70  4617.12  4631.95
                             5057.39  5180.11

 Zero-point correction=                           0.230799 (Hartree/Particle)
 Thermal correction to Energy=                    0.244900
 Thermal correction to Enthalpy=                  0.245844
 Thermal correction to Gibbs Free Energy=         0.189267
 Sum of electronic and zero-point Energies=          -1017.535938
 Sum of electronic and thermal Energies=             -1017.521837
 Sum of electronic and thermal Enthalpies=           -1017.520893
 Sum of electronic and thermal Free Energies=        -1017.577470

                     E (Thermal)             CV                S
                      KCal/Mol        Cal/Mol-Kelvin    Cal/Mol-Kelvin
 Total                  153.677             52.414            119.077
 Electronic               0.000              0.000              0.000
 Translational            0.889              2.981             41.945
 Rotational               0.889              2.981             32.076
 Vibrational            151.899             46.453             45.056
 Vibration     1          0.594              1.982              5.456
 Vibration     2          0.596              1.975              4.601
 Vibration     3          0.599              1.965              4.002
 Vibration     4          0.602              1.955              3.619
 Vibration     5          0.610              1.929              3.033
 Vibration     6          0.624              1.883              2.467
 Vibration     7          0.633              1.856              2.242
 Vibration     8          0.641              1.829              2.063
 Vibration     9          0.654              1.789              1.847
 Vibration    10          0.668              1.747              1.665
 Vibration    11          0.675              1.724              1.581
 Vibration    12          0.686              1.693              1.477
 Vibration    13          0.696              1.663              1.385
 Vibration    14          0.717              1.602              1.228
 Vibration    15          0.744              1.528              1.068
 Vibration    16          0.763              1.478              0.975
 Vibration    17          0.791              1.405              0.859
 Vibration    18          0.855              1.250              0.658
 Vibration    19          0.892              1.167              0.571
 Vibration    20          0.918              1.114              0.520
 Vibration    21          0.954              1.041              0.457

 Optimization completed.
    -- Stationary point found.
 Normal termination of Gaussian 16 at Tue Feb 16 19:08:24 2021.
