 Gaussian 16, Revision A.03,
 Gaussian 16:  ES64L-G16RevA.03 25-Dec-2016

 ----------------------------------------------------------------------
 # wB97XD def2tzvp, opt=(ts, noeigen, calcfc, maxcycles=70, maxstep=1),
  freq=noraman, scrf=(iefpcm, solvent=water)
 ----------------------------------------------------------------------

 ------------------------
 0_iteration/TS-516-0.out
 ------------------------
 Symbolic Z-matrix:
 Charge =  0 Multiplicity = 1

 SCF Done:  E(RwB97XD) =  -940.588643513     A.U. after   15 cycles
 SCF Done:  E(RwB97XD) =  -940.588630577     A.U. after   10 cycles
 SCF Done:  E(RwB97XD) =  -940.588621110     A.U. after   10 cycles
 SCF Done:  E(RwB97XD) =  -940.588615279     A.U. after   10 cycles
 SCF Done:  E(RwB97XD) =  -940.588614424     A.U. after   10 cycles
 SCF Done:  E(RwB97XD) =  -940.588625240     A.U. after   10 cycles
 SCF Done:  E(RwB97XD) =  -940.588656566     A.U. after    9 cycles
 SCF Done:  E(RwB97XD) =  -940.588702833     A.U. after   10 cycles
 SCF Done:  E(RwB97XD) =  -940.588763668     A.U. after   10 cycles
 SCF Done:  E(RwB97XD) =  -940.588838960     A.U. after   10 cycles
 SCF Done:  E(RwB97XD) =  -940.594200206     A.U. after   10 cycles
 SCF Done:  E(RwB97XD) =  -940.594217459     A.U. after   10 cycles
 SCF Done:  E(RwB97XD) =  -940.594228134     A.U. after   10 cycles
 SCF Done:  E(RwB97XD) =  -940.594234640     A.U. after   10 cycles
 SCF Done:  E(RwB97XD) =  -940.594238812     A.U. after   10 cycles
 SCF Done:  E(RwB97XD) =  -940.594238155     A.U. after    8 cycles
 SCF Done:  E(RwB97XD) =  -940.594238516     A.U. after   10 cycles
 SCF Done:  E(RwB97XD) =  -940.594238249     A.U. after    8 cycles
 SCF Done:  E(RwB97XD) =  -940.594238096     A.U. after    6 cycles
 Optimization completed.
    -- Stationary point found.
 Normal termination of Gaussian 16 at Tue Feb 16 00:17:27 2021.

 ---------------------------------------------------------------------
 #N Geom=AllCheck Guess=TCheck SCRF=Check GenChk RwB97XD/def2TZVP Freq
 ---------------------------------------------------------------------

 Structure from the checkpoint file:  "/beegfs/scratch/user/q/tla25/Gau-96306.chk"
 ------------------------
 0_iteration/TS-516-0.out
 ------------------------
 Charge =  0 Multiplicity = 1

                         Standard orientation:
 ---------------------------------------------------------------------
 Center     Atomic      Atomic             Coordinates (Angstroms)
 Number     Number       Type             X           Y           Z
 ---------------------------------------------------------------------
      1          6           0        0.045740    0.409307   -0.383314
      2          6           0        1.208192   -0.399635   -0.220245
      3          8           0        1.213208   -1.630225   -0.219975
      4          6           0       -1.229125   -0.127724   -0.653728
      5          6           0       -1.561736   -0.483450    2.165235
      6          1           0       -2.374947    0.231092    2.276298
      7          1           0       -1.562035   -1.159389    3.020878
      8          1           0       -0.615117    0.057126    2.142294
      9          7           0       -1.711627   -1.200616    0.906244
     10          1           0       -1.017233   -1.935822    0.823016
     11          1           0       -2.631613   -1.614011    0.811139
     12          6           0       -2.404029    0.815635   -0.705372
     13          1           0       -2.293802    1.472429   -1.570589
     14          1           0       -3.332501    0.257636   -0.819826
     15          1           0       -2.468282    1.444622    0.179633
     16          6           0       -1.347622   -1.238329   -1.676862
     17          1           0       -0.539364   -1.957439   -1.598618
     18          1           0       -2.306054   -1.751272   -1.589696
     19          1           0       -1.310561   -0.776545   -2.666183
     20         17           0        0.177610    2.109686    0.084547
     21          8           0        2.353485    0.292132   -0.028279
     22          6           0        3.521471   -0.481696    0.206423
     23          1           0        3.407975   -1.104943    1.094017
     24          1           0        3.749851   -1.118910   -0.648376
     25          1           0        4.324806    0.235163    0.358212
 ---------------------------------------------------------------------

 SCF Done:  E(RwB97XD) =  -940.594238096     A.U. after    1 cycles

 The electronic state is 1-A.
 Alpha  occ. eigenvalues -- -101.68034 -19.28065 -19.21206 -14.47483 -10.39770
 Alpha  occ. eigenvalues --  -10.35471 -10.32557 -10.31329 -10.30129 -10.28091
 Alpha  occ. eigenvalues --  -10.27576  -9.56564  -7.31188  -7.30356  -7.30344
 Alpha  occ. eigenvalues --   -1.19508  -1.09740  -1.03252  -0.96059  -0.89768
 Alpha  occ. eigenvalues --   -0.83212  -0.80016  -0.78205  -0.77049  -0.68159
 Alpha  occ. eigenvalues --   -0.62860  -0.62228  -0.58363  -0.56987  -0.56454
 Alpha  occ. eigenvalues --   -0.56031  -0.54979  -0.53326  -0.51319  -0.49774
 Alpha  occ. eigenvalues --   -0.47978  -0.47643  -0.47566  -0.47030  -0.45662
 Alpha  occ. eigenvalues --   -0.44120  -0.43303  -0.41585  -0.39991  -0.39158
 Alpha  occ. eigenvalues --   -0.37788  -0.34703  -0.26712
 Alpha virt. eigenvalues --    0.05503   0.10121   0.11884   0.13312   0.14218
 Alpha virt. eigenvalues --    0.14425   0.15794   0.16757   0.16887   0.18225
 Alpha virt. eigenvalues --    0.18752   0.19353   0.19728   0.20731   0.21071

 Mulliken charges:
               1
     1  C   -0.261478
     2  C    0.435560
     3  O   -0.538113
     4  C    0.167966
     5  C   -0.297383
     6  H    0.154796
     7  H    0.152161
     8  H    0.151579
     9  N   -0.349984
    10  H    0.278962
    11  H    0.281137
    12  C   -0.382402
    13  H    0.153536
    14  H    0.140528
    15  H    0.143993
    16  C   -0.360044
    17  H    0.156907
    18  H    0.131262
    19  H    0.138911
    20  Cl  -0.189433
    21  O   -0.307703
    22  C   -0.188238
    23  H    0.124721
    24  H    0.125009
    25  H    0.137751
 Sum of Mulliken charges =  -0.00000

 Dipole moment (field-independent basis, Debye):
    X=             -5.8136    Y=             -3.1221    Z=              2.3560  Tot=              7.0069
 Quadrupole moment (field-independent basis, Debye-Ang):
   XX=            -58.1147   YY=            -80.5825   ZZ=            -69.2044
   XY=              5.3054   XZ=             -1.2986   YZ=             -3.0581

  Exact polarizability: 180.632   4.898 156.523  -1.610  -1.479 136.301
 Approx polarizability: 136.723   4.261 135.063  -0.829  -1.082 113.545

 ******    1 imaginary frequencies (negative Signs) ******

                      1                      2                      3
                      A                      A                      A
 Frequencies --   -369.2746                45.5145                50.4079
 Red. masses --      5.2585                 2.5778                 2.8261
 Frc consts  --      0.4225                 0.0031                 0.0042
 IR Inten    --    680.4694                 2.2109                15.2371

                      4                      5                      6
                      A                      A                      A
 Frequencies --     78.0972               116.0438               130.0546
 Red. masses --      3.8307                 3.3863                 2.6379
 Frc consts  --      0.0138                 0.0269                 0.0263
 IR Inten    --      8.7645                 3.9627                15.7177

                      7                      8                      9
                      A                      A                      A
 Frequencies --    166.6064               179.9066               190.7290
 Red. masses --      1.4272                 1.6714                 1.7102
 Frc consts  --      0.0233                 0.0319                 0.0367
 IR Inten    --      0.5282                 5.2264                 6.3266

                     10                     11                     12
                      A                      A                      A
 Frequencies --    210.6230               236.0979               238.6868
 Red. masses --      1.5003                 1.8339                 2.4512
 Frc consts  --      0.0392                 0.0602                 0.0823
 IR Inten    --      4.6014                 5.1094                 0.2055

                     13                     14                     15
                      A                      A                      A
 Frequencies --    284.7655               295.2073               314.3172
 Red. masses --      1.5923                 2.7581                 2.7751
 Frc consts  --      0.0761                 0.1416                 0.1615
 IR Inten    --      3.6379                 8.3578                 5.6187

                     16                     17                     18
                      A                      A                      A
 Frequencies --    350.2239               371.8872               413.8809
 Red. masses --      4.2563                 2.4948                 3.4368
 Frc consts  --      0.3076                 0.2033                 0.3469
 IR Inten    --     35.7051                 4.8621                11.1243

                     19                     20                     21
                      A                      A                      A
 Frequencies --    462.8047               512.0372               540.1349
 Red. masses --     10.1823                 3.4220                 3.0851
 Frc consts  --      1.2850                 0.5286                 0.5303
 IR Inten    --      9.1784                36.7299                45.2941

                     22                     23                     24
                      A                      A                      A
 Frequencies --    662.8581               768.6950               789.3398
 Red. masses --      1.4310                 5.7130                10.6191
 Frc consts  --      0.3705                 1.9889                 3.8982
 IR Inten    --     77.7417                20.8989                51.3038

                     25                     26                     27
                      A                      A                      A
 Frequencies --    891.9251               956.5642               981.1430
 Red. masses --      3.4309                 1.3725                 3.6494
 Frc consts  --      1.6081                 0.7399                 2.0698
 IR Inten    --     15.6734                 5.5940                28.9337

                     28                     29                     30
                      A                      A                      A
 Frequencies --    999.6717              1022.6366              1044.4419
 Red. masses --      1.1267                 1.3026                 1.3285
 Frc consts  --      0.6634                 0.8026                 0.8538
 IR Inten    --     89.5972                32.1141                94.5082

                     31                     32                     33
                      A                      A                      A
 Frequencies --   1066.0228              1075.0532              1113.6566
 Red. masses --      2.0376                 2.5442                 2.1403
 Frc consts  --      1.3643                 1.7325                 1.5640
 IR Inten    --     74.8433               106.0957                43.7488

                     34                     35                     36
                      A                      A                      A
 Frequencies --   1140.9375              1182.8631              1213.2915
 Red. masses --      3.5505                 1.2806                 1.4241
 Frc consts  --      2.7231                 1.0557                 1.2351
 IR Inten    --    162.8699                 1.9779                27.8998

                     37                     38                     39
                      A                      A                      A
 Frequencies --   1216.4810              1257.5232              1327.7340
 Red. masses --      1.5610                 3.6465                 5.2507
 Frc consts  --      1.3610                 3.3975                 5.4537
 IR Inten    --    149.2084                99.8195               680.9646

                     40                     41                     42
                      A                      A                      A
 Frequencies --   1353.1079              1401.7775              1408.2649
 Red. masses --      1.3159                 1.6947                 1.4751
 Frc consts  --      1.4196                 1.9620                 1.7236
 IR Inten    --     24.4809               344.2302               112.0390

                     43                     44                     45
                      A                      A                      A
 Frequencies --   1426.9157              1457.9183              1475.6460
 Red. masses --      1.4748                 1.1937                 1.0609
 Frc consts  --      1.7692                 1.4948                 1.3611
 IR Inten    --    183.2387                11.7802                17.9987

                     46                     47                     48
                      A                      A                      A
 Frequencies --   1479.7582              1482.5462              1488.6736
 Red. masses --      1.1423                 1.0854                 1.0563
 Frc consts  --      1.4737                 1.4056                 1.3793
 IR Inten    --     71.7680                37.5430                 5.0646

                     49                     50                     51
                      A                      A                      A
 Frequencies --   1491.6745              1496.7104              1503.5806
 Red. masses --      1.0440                 1.0752                 1.0861
 Frc consts  --      1.3686                 1.4192                 1.4466
 IR Inten    --     12.6615                 8.3634                59.0555

                     52                     53                     54
                      A                      A                      A
 Frequencies --   1508.7943              1510.9710              1639.7242
 Red. masses --      1.1027                 1.1723                 1.2589
 Frc consts  --      1.4790                 1.5769                 1.9942
 IR Inten    --     24.2889                25.6630               223.1561

                     55                     56                     57
                      A                      A                      A
 Frequencies --   1666.5354              3059.5626              3060.0450
 Red. masses --      4.4844                 1.0330                 1.0375
 Frc consts  --      7.3381                 5.6974                 5.7242
 IR Inten    --    355.4466                73.0355                24.2703

                     58                     59                     60
                      A                      A                      A
 Frequencies --   3064.1904              3068.9602              3124.5951
 Red. masses --      1.0337                 1.0378                 1.1011
 Frc consts  --      5.7183                 5.7592                 6.3339
 IR Inten    --     42.2769                21.5939                26.7176

                     61                     62                     63
                      A                      A                      A
 Frequencies --   3134.0779              3137.6086              3140.0264
 Red. masses --      1.1066                 1.1042                 1.1002
 Frc consts  --      6.4043                 6.4045                 6.3915
 IR Inten    --     40.3971                14.5808                32.1268

                     64                     65                     66
                      A                      A                      A
 Frequencies --   3161.4028              3167.4897              3168.5972
 Red. masses --      1.1051                 1.1027                 1.1050
 Frc consts  --      6.5072                 6.5182                 6.5368
 IR Inten    --     18.5666                19.0911                27.4400

                     67                     68                     69
                      A                      A                      A
 Frequencies --   3187.8153              3513.2312              3600.7177
 Red. masses --      1.1004                 1.0511                 1.0961
 Frc consts  --      6.5884                 7.6439                 8.3729
 IR Inten    --      3.7748                26.6009                60.8581

 - Thermochemistry -
 -------------------
 Temperature   298.150 Kelvin.  Pressure   1.00000 Atm.
 Atom     1 has atomic number  6 and mass  12.00000

 Molecular mass:   179.07131 amu.
 Principal axes and moments of inertia in atomic units:
                           1         2         3
     Eigenvalues --  1541.406452514.398922955.25185
           X            0.99998  -0.00387   0.00565
           Y            0.00390   0.99998  -0.00566
           Z           -0.00562   0.00569   0.99997
 This molecule is an asymmetric top.
 Rotational symmetry number  1.
 Warning -- assumption of classical behavior for rotation
           may cause significant error
 Rotational temperatures (Kelvin)      0.05619     0.03445     0.02931
 Rotational constants (GHZ):           1.17084     0.71776     0.61069
    1 imaginary frequencies ignored.
 Zero-point vibrational energy     551955.7 (Joules/Mol)
                                  131.92057 (Kcal/Mol)
 Warning -- explicit consideration of  20 degrees of freedom as
           vibrations may cause significant error
 Vibrational temperatures:     65.49    72.53   112.36   166.96   187.12
          (Kelvin)            239.71   258.85   274.42   303.04   339.69
                              343.42   409.71   424.74   452.23   503.89
                              535.06   595.48   665.87   736.71   777.13
                              953.70  1105.98  1135.68  1283.28  1376.28
                             1411.65  1438.30  1471.35  1502.72  1533.77
                             1546.76  1602.30  1641.55  1701.88  1745.66
                             1750.24  1809.30  1910.31  1946.82  2016.85
                             2026.18  2053.01  2097.62  2123.13  2129.04
                             2133.05  2141.87  2146.19  2153.43  2163.32
                             2170.82  2173.95  2359.20  2397.77  4402.03
                             4402.72  4408.69  4415.55  4495.60  4509.24
                             4514.32  4517.80  4548.55  4557.31  4558.90
                             4586.56  5054.76  5180.63

 Zero-point correction=                           0.210229 (Hartree/Particle)
 Thermal correction to Energy=                    0.223963
 Thermal correction to Enthalpy=                  0.224907
 Thermal correction to Gibbs Free Energy=         0.169660
 Sum of electronic and zero-point Energies=           -940.384009
 Sum of electronic and thermal Energies=              -940.370275
 Sum of electronic and thermal Enthalpies=            -940.369331
 Sum of electronic and thermal Free Energies=         -940.424578

                     E (Thermal)             CV                S
                      KCal/Mol        Cal/Mol-Kelvin    Cal/Mol-Kelvin
 Total                  140.539             48.036            116.278
 Electronic               0.000              0.000              0.000
 Translational            0.889              2.981             41.455
 Rotational               0.889              2.981             30.816
 Vibrational            138.762             42.075             44.008
 Vibration     1          0.595              1.979              5.003
 Vibration     2          0.595              1.977              4.801
 Vibration     3          0.599              1.964              3.938
 Vibration     4          0.608              1.936              3.165
 Vibration     5          0.612              1.923              2.945
 Vibration     6          0.624              1.884              2.473
 Vibration     7          0.629              1.867              2.329
 Vibration     8          0.634              1.853              2.221
 Vibration     9          0.643              1.825              2.038
 Vibration    10          0.655              1.786              1.832
 Vibration    11          0.657              1.781              1.813
 Vibration    12          0.683              1.702              1.505
 Vibration    13          0.689              1.683              1.444
 Vibration    14          0.702              1.646              1.340
 Vibration    15          0.727              1.575              1.165
 Vibration    16          0.744              1.530              1.072
 Vibration    17          0.777              1.440              0.913
 Vibration    18          0.820              1.333              0.758
 Vibration    19          0.867              1.223              0.629
 Vibration    20          0.895              1.161              0.565

 Optimization completed.
    -- Stationary point found.
 Normal termination of Gaussian 16 at Tue Feb 16 00:43:50 2021.
