 Gaussian 16, Revision A.03,
 Gaussian 16:  ES64L-G16RevA.03 25-Dec-2016

 ----------------------------------------------------------------------
 # wB97XD def2tzvp, opt=(ts, noeigen, calcfc, maxcycles=70, maxstep=5),
  freq=noraman, scrf=(iefpcm, solvent=water)
 ----------------------------------------------------------------------

 ------------------------
 2_iteration/TS-524-2.out
 ------------------------
 Symbolic Z-matrix:
 Charge =  0 Multiplicity = 1

 SCF Done:  E(RwB97XD) =  -3246.32989904     A.U. after   15 cycles
 Optimization completed.
    -- Stationary point found.
 Normal termination of Gaussian 16 at Wed Feb 17 15:30:21 2021.

 ---------------------------------------------------------------------
 #N Geom=AllCheck Guess=TCheck SCRF=Check GenChk RwB97XD/def2TZVP Freq
 ---------------------------------------------------------------------

 Structure from the checkpoint file:  "/beegfs/scratch/user/q/tla25/Gau-22674.chk"
 ------------------------
 2_iteration/TS-524-2.out
 ------------------------
 Charge =  0 Multiplicity = 1

                         Standard orientation:
 ---------------------------------------------------------------------
 Center     Atomic      Atomic             Coordinates (Angstroms)
 Number     Number       Type             X           Y           Z
 ---------------------------------------------------------------------
      1          6           0        0.228739    0.234689   -0.146181
      2          6           0       -0.238713    1.567629   -0.445931
      3          8           0        0.426576    2.455560   -0.952591
      4          6           0       -0.593640   -0.823012    0.202699
      5          6           0       -0.531971   -0.064292    2.975429
      6          1           0       -0.986501    0.465168    3.813579
      7          1           0       -0.064660   -0.976521    3.341059
      8          1           0        0.234579    0.573229    2.532439
      9          7           0       -1.500500   -0.390733    1.942819
     10          1           0       -2.141200   -1.124293    2.220219
     11          1           0       -2.032771    0.423427    1.658629
     12          6           0       -0.017878   -2.163781    0.563059
     13          1           0        0.825732   -2.039050    1.241489
     14          1           0       -0.766698   -2.797932    1.031779
     15          1           0        0.339132   -2.669731   -0.333761
     16         35           0       -2.288510   -1.096654   -0.776111
     17          6           0        1.709769    0.042711   -0.174311
     18          6           0        2.546148    0.696472    0.730309
     19          6           0        3.921019    0.522814    0.691939
     20          6           0        4.491780   -0.315986   -0.255791
     21          6           0        3.675980   -0.966817   -1.169331
     22          6           0        2.301340   -0.781108   -1.130741
     23          1           0        2.113388    1.356321    1.472769
     24          1           0        4.548478    1.040644    1.406929
     25          1           0        5.564960   -0.456845   -0.284291
     26          1           0        4.110111   -1.615606   -1.920081
     27          1           0        1.672641   -1.280109   -1.858571
     28          8           0       -1.516483    1.794137   -0.060421
     29          6           0       -2.065954    3.064597   -0.386041
     30          1           0       -2.039615    3.234497   -1.462411
     31          1           0       -3.095524    3.039766   -0.038331
     32          1           0       -1.521175    3.863967    0.116149
 ---------------------------------------------------------------------

 SCF Done:  E(RwB97XD) =  -3246.32989904     A.U. after    1 cycles

 The electronic state is 1-A.
 Alpha  occ. eigenvalues -- -483.12270 -62.67117 -56.46223 -56.45887 -56.45871
 Alpha  occ. eigenvalues --  -19.28784 -19.21769 -14.47286 -10.40161 -10.39539
 Alpha  occ. eigenvalues --  -10.32873 -10.31376 -10.29948 -10.29003 -10.28766
 Alpha  occ. eigenvalues --  -10.28742 -10.28667 -10.28561 -10.28509 -10.27213
 Alpha  occ. eigenvalues --   -8.81220  -6.63332  -6.62272  -6.62221  -2.73720
 Alpha  occ. eigenvalues --   -2.73430  -2.73390  -2.72531  -2.72531  -1.20132
 Alpha  occ. eigenvalues --   -1.10441  -1.03096  -0.96859  -0.93765  -0.87493
 Alpha  occ. eigenvalues --   -0.84808  -0.83900  -0.83289  -0.78629  -0.78394
 Alpha  occ. eigenvalues --   -0.70242  -0.69844  -0.68241  -0.64118  -0.62745
 Alpha  occ. eigenvalues --   -0.61059  -0.58131  -0.57364  -0.56687  -0.56407
 Alpha  occ. eigenvalues --   -0.54733  -0.53959  -0.53612  -0.52078  -0.51181
 Alpha  occ. eigenvalues --   -0.50556  -0.49896  -0.48385  -0.47733  -0.47576
 Alpha  occ. eigenvalues --   -0.46017  -0.45500  -0.43917  -0.42970  -0.41992
 Alpha  occ. eigenvalues --   -0.41637  -0.38966  -0.36584  -0.36133  -0.35835
 Alpha  occ. eigenvalues --   -0.33460  -0.33437  -0.27806
 Alpha virt. eigenvalues --    0.02699   0.05188   0.05700   0.06617   0.10209
 Alpha virt. eigenvalues --    0.12784   0.13114   0.14228   0.14770   0.15809
 Alpha virt. eigenvalues --    0.16010   0.16655   0.17160   0.18335   0.18889

 Mulliken charges:
               1
     1  C   -0.280272
     2  C    0.405664
     3  O   -0.482226
     4  C    0.161735
     5  C   -0.275081
     6  H    0.154733
     7  H    0.156748
     8  H    0.120505
     9  N   -0.362726
    10  H    0.281616
    11  H    0.277209
    12  C   -0.379896
    13  H    0.160536
    14  H    0.157086
    15  H    0.160712
    16  Br  -0.144267
    17  C    0.212844
    18  C   -0.234079
    19  C   -0.149729
    20  C   -0.145835
    21  C   -0.147426
    22  C   -0.263102
    23  H    0.153709
    24  H    0.138937
    25  H    0.142009
    26  H    0.139178
    27  H    0.153012
    28  O   -0.315058
    29  C   -0.198178
    30  H    0.131830
    31  H    0.139735
    32  H    0.130076
 Sum of Mulliken charges =  -0.00000

 Dipole moment (field-independent basis, Debye):
    X=             -3.2117    Y=             -3.3078    Z=              7.1135  Tot=              8.4769
 Quadrupole moment (field-independent basis, Debye-Ang):
   XX=           -100.2745   YY=           -109.0982   ZZ=            -97.4846
   XY=             -9.5159   XZ=             -5.0922   YZ=              4.6224

  Exact polarizability: 293.765   9.638 232.383  -4.497  11.608 232.286
 Approx polarizability: 226.212   7.904 190.717  -2.597  10.956 193.672

 ******    1 imaginary frequencies (negative Signs) ******

                      1                      2                      3
                      A                      A                      A
 Frequencies --   -375.8932                35.2678                48.7435
 Red. masses --      5.5193                 3.3447                 3.3401
 Frc consts  --      0.4595                 0.0025                 0.0047
 IR Inten    --    645.1941                 0.3094                 0.1947

                      4                      5                      6
                      A                      A                      A
 Frequencies --     65.7110                75.1754                81.4282
 Red. masses --      3.6111                 5.6121                 3.9835
 Frc consts  --      0.0092                 0.0187                 0.0156
 IR Inten    --      4.6795                 4.5267                 2.7256

                      7                      8                      9
                      A                      A                      A
 Frequencies --     83.2670               135.1797               149.2680
 Red. masses --      4.1183                 2.4962                 3.3507
 Frc consts  --      0.0168                 0.0269                 0.0440
 IR Inten    --      3.7500                 4.4781                 0.6607

                     10                     11                     12
                      A                      A                      A
 Frequencies --    153.8153               181.1463               190.8906
 Red. masses --      1.4735                 1.6315                 1.9788
 Frc consts  --      0.0205                 0.0315                 0.0425
 IR Inten    --      5.3689                 6.6736                 2.1135

                     13                     14                     15
                      A                      A                      A
 Frequencies --    216.5965               250.8524               261.8139
 Red. masses --      5.0672                 2.9223                 3.0761
 Frc consts  --      0.1401                 0.1083                 0.1242
 IR Inten    --      4.9011                16.3543                 8.9902

                     16                     17                     18
                      A                      A                      A
 Frequencies --    271.8453               295.4313               310.2095
 Red. masses --      3.8075                 5.3639                 1.2653
 Frc consts  --      0.1658                 0.2758                 0.0717
 IR Inten    --      6.1057                11.3412                 4.5938

                     19                     20                     21
                      A                      A                      A
 Frequencies --    321.7627               376.3392               378.1486
 Red. masses --      3.0354                 3.3992                 3.9771
 Frc consts  --      0.1852                 0.2837                 0.3351
 IR Inten    --     27.5877                10.3538                12.6044

                     22                     23                     24
                      A                      A                      A
 Frequencies --    427.5820               480.2908               524.2126
 Red. masses --      2.8746                 5.8583                 3.4011
 Frc consts  --      0.3096                 0.7962                 0.5507
 IR Inten    --      0.3290                35.3274                20.0129

                     25                     26                     27
                      A                      A                      A
 Frequencies --    548.8695               616.5892               639.8679
 Red. masses --      5.6444                 2.3045                 5.0751
 Frc consts  --      1.0019                 0.5162                 1.2243
 IR Inten    --     63.1717                49.5933                 1.6468

                     28                     29                     30
                      A                      A                      A
 Frequencies --    671.2817               713.3882               729.9435
 Red. masses --      2.2788                 3.6554                 1.4656
 Frc consts  --      0.6050                 1.0961                 0.4601
 IR Inten    --     47.0936               120.0919               129.0510

                     31                     32                     33
                      A                      A                      A
 Frequencies --    797.5658               807.1962               812.6651
 Red. masses --      3.7921                 3.2045                 7.3814
 Frc consts  --      1.4212                 1.2302                 2.8722
 IR Inten    --     37.5749                15.9358                62.8947

                     34                     35                     36
                      A                      A                      A
 Frequencies --    879.5740               931.5987               962.5455
 Red. masses --      1.2483                 3.5380                 1.5757
 Frc consts  --      0.5690                 1.8091                 0.8602
 IR Inten    --      0.6306                28.6786                 6.9354

                     37                     38                     39
                      A                      A                      A
 Frequencies --    980.8183              1013.6403              1018.6879
 Red. masses --      1.1087                 1.3687                 1.1901
 Frc consts  --      0.6284                 0.8286                 0.7276
 IR Inten    --     69.9955                 2.0744                91.8547

                     40                     41                     42
                      A                      A                      A
 Frequencies --   1026.4974              1027.6678              1051.2867
 Red. masses --      1.8044                 2.6372                 1.7287
 Frc consts  --      1.1202                 1.6410                 1.1257
 IR Inten    --      0.0728                 0.8653                62.4768

                     43                     44                     45
                      A                      A                      A
 Frequencies --   1057.5871              1073.8529              1089.7194
 Red. masses --      2.3408                 1.8318                 3.3116
 Frc consts  --      1.5426                 1.2446                 2.3170
 IR Inten    --     28.4771                 3.2889                11.4592

                     46                     47                     48
                      A                      A                      A
 Frequencies --   1096.0201              1111.0988              1123.8091
 Red. masses --      3.9145                 1.6124                 2.9604
 Frc consts  --      2.7705                 1.1728                 2.2029
 IR Inten    --    110.1932                42.2648               137.1189

                     49                     50                     51
                      A                      A                      A
 Frequencies --   1181.4415              1182.2495              1198.1020
 Red. masses --      1.1315                 1.2833                 1.4293
 Frc consts  --      0.9305                 1.0568                 1.2088
 IR Inten    --      0.0985                 1.4534                37.4813

                     52                     53                     54
                      A                      A                      A
 Frequencies --   1208.3112              1217.2290              1238.9205
 Red. masses --      1.1211                 1.5284                 4.8497
 Frc consts  --      0.9644                 1.3342                 4.3858
 IR Inten    --      0.0776                20.9852               392.7546

                     55                     56                     57
                      A                      A                      A
 Frequencies --   1308.8075              1341.2981              1352.7127
 Red. masses --      4.4970                 1.6548                 2.5615
 Frc consts  --      4.5386                 1.7541                 2.7615
 IR Inten    --     14.7447               123.0137               275.1402

                     58                     59                     60
                      A                      A                      A
 Frequencies --   1358.5666              1421.1215              1448.4922
 Red. masses --      1.5599                 1.2642                 1.4308
 Frc consts  --      1.6963                 1.5042                 1.7687
 IR Inten    --     47.5785                47.3094               245.8569

                     61                     62                     63
                      A                      A                      A
 Frequencies --   1468.4763              1477.9936              1481.4291
 Red. masses --      1.6665                 1.1266                 1.0855
 Frc consts  --      2.1174                 1.4500                 1.4036
 IR Inten    --    308.1352                38.7213                22.7450

                     64                     65                     66
                      A                      A                      A
 Frequencies --   1482.7486              1486.8069              1490.6265
 Red. masses --      1.0764                 1.9067                 1.0728
 Frc consts  --      1.3943                 2.4834                 1.4044
 IR Inten    --     12.7152                 5.8680                14.1910

                     67                     68                     69
                      A                      A                      A
 Frequencies --   1496.1840              1506.8140              1508.4448
 Red. masses --      1.0653                 1.1020                 1.4977
 Frc consts  --      1.4050                 1.4741                 2.0079
 IR Inten    --      9.8475                60.2492               180.1902

                     70                     71                     72
                      A                      A                      A
 Frequencies --   1544.7321              1643.8755              1645.4820
 Red. masses --      2.4636                 1.0985                 5.6993
 Frc consts  --      3.4636                 1.7491                 9.0920
 IR Inten    --     95.2886                84.7591                 2.6238

                     73                     74                     75
                      A                      A                      A
 Frequencies --   1670.7156              1704.9156              3063.1392
 Red. masses --      6.0147                10.5654                 1.0334
 Frc consts  --      9.8917                18.0942                 5.7130
 IR Inten    --     22.4027               948.6052                53.7092

                     76                     77                     78
                      A                      A                      A
 Frequencies --   3064.7974              3076.4765              3134.2410
 Red. masses --      1.0307                 1.0358                 1.1037
 Frc consts  --      5.7042                 5.7763                 6.3880
 IR Inten    --     58.0821                 9.0827                10.2036

                     79                     80                     81
                      A                      A                      A
 Frequencies --   3141.7266              3152.5841              3162.5393
 Red. masses --      1.1069                 1.1019                 1.1045
 Frc consts  --      6.4372                 6.4523                 6.5085
 IR Inten    --     34.9652                 8.7985                20.6202

                     82                     83                     84
                      A                      A                      A
 Frequencies --   3167.6768              3174.4318              3188.1508
 Red. masses --      1.1035                 1.1056                 1.0857
 Frc consts  --      6.5240                 6.5644                 6.5019
 IR Inten    --     20.0628                22.5738                 8.1097

                     85                     86                     87
                      A                      A                      A
 Frequencies --   3191.4831              3201.0604              3207.8068
 Red. masses --      1.0881                 1.0914                 1.0952
 Frc consts  --      6.5299                 6.5890                 6.6397
 IR Inten    --      1.4189                14.9743                49.5942

                     88                     89                     90
                      A                      A                      A
 Frequencies --   3219.0400              3521.8516              3612.2300
 Red. masses --      1.0988                 1.0503                 1.0975
 Frc consts  --      6.7087                 7.6757                 8.4370
 IR Inten    --     20.1808                42.8338                78.7104

 - Thermochemistry -
 -------------------
 Temperature   298.150 Kelvin.  Pressure   1.00000 Atm.
 Atom     1 has atomic number  6 and mass  12.00000

 Molecular mass:   285.03644 amu.
 Principal axes and moments of inertia in atomic units:
                           1         2         3
     Eigenvalues --  3114.877866225.775886989.22527
           X            0.99831  -0.05379  -0.02198
           Y            0.05301   0.99799  -0.03474
           Z            0.02380   0.03352   0.99915
 This molecule is an asymmetric top.
 Rotational symmetry number  1.
 Warning -- assumption of classical behavior for rotation
           may cause significant error
 Rotational temperatures (Kelvin)      0.02781     0.01391     0.01239
 Rotational constants (GHZ):           0.57939     0.28988     0.25822
    1 imaginary frequencies ignored.
 Zero-point vibrational energy     690499.4 (Joules/Mol)
                                  165.03331 (Kcal/Mol)
 Warning -- explicit consideration of  25 degrees of freedom as
           vibrations may cause significant error
 Vibrational temperatures:     50.74    70.13    94.54   108.16   117.16
          (Kelvin)            119.80   194.49   214.76   221.31   260.63
                              274.65   311.63   360.92   376.69   391.12
                              425.06   446.32   462.94   541.47   544.07
                              615.20   691.03   754.23   789.70   887.13
                              920.63   965.82  1026.41  1050.23  1147.52
                             1161.38  1169.24  1265.51  1340.36  1384.89
                             1411.18  1458.40  1465.66  1476.90  1478.58
                             1512.57  1521.63  1545.03  1567.86  1576.93
                             1598.62  1616.91  1699.83  1700.99  1723.80
                             1738.49  1751.32  1782.53  1883.08  1929.83
                             1946.25  1954.67  2044.68  2084.06  2112.81
                             2126.50  2131.45  2133.34  2139.18  2144.68
                             2152.68  2167.97  2170.32  2222.53  2365.17
                             2367.48  2403.79  2452.99  4407.17  4409.56
                             4426.36  4509.47  4520.24  4535.87  4550.19
                             4557.58  4567.30  4587.04  4591.83  4605.61
                             4615.32  4631.48  5067.16  5197.19

 Zero-point correction=                           0.262997 (Hartree/Particle)
 Thermal correction to Energy=                    0.280106
 Thermal correction to Enthalpy=                  0.281050
 Thermal correction to Gibbs Free Energy=         0.216831
 Sum of electronic and zero-point Energies=          -3246.066902
 Sum of electronic and thermal Energies=             -3246.049793
 Sum of electronic and thermal Enthalpies=           -3246.048849
 Sum of electronic and thermal Free Energies=        -3246.113068

                     E (Thermal)             CV                S
                      KCal/Mol        Cal/Mol-Kelvin    Cal/Mol-Kelvin
 Total                  175.769             61.769            135.159
 Electronic               0.000              0.000              0.000
 Translational            0.889              2.981             42.840
 Rotational               0.889              2.981             33.271
 Vibrational            173.992             55.807             59.048
 Vibration     1          0.594              1.982              5.509
 Vibration     2          0.595              1.978              4.868
 Vibration     3          0.597              1.971              4.278
 Vibration     4          0.599              1.966              4.013
 Vibration     5          0.600              1.962              3.856
 Vibration     6          0.600              1.961              3.812
 Vibration     7          0.613              1.918              2.871
 Vibration     8          0.618              1.903              2.682
 Vibration     9          0.619              1.898              2.624
 Vibration    10          0.630              1.865              2.317
 Vibration    11          0.634              1.852              2.219
 Vibration    12          0.645              1.816              1.987
 Vibration    13          0.663              1.761              1.725
 Vibration    14          0.669              1.743              1.650
 Vibration    15          0.675              1.725              1.584
 Vibration    16          0.690              1.682              1.443
 Vibration    17          0.699              1.654              1.361
 Vibration    18          0.707              1.632              1.301
 Vibration    19          0.747              1.521              1.054
 Vibration    20          0.748              1.517              1.047
 Vibration    21          0.789              1.410              0.867
 Vibration    22          0.837              1.294              0.709
 Vibration    23          0.879              1.196              0.600
 Vibration    24          0.904              1.142              0.547
 Vibration    25          0.976              0.997              0.422

 Optimization completed.
    -- Stationary point found.
 Normal termination of Gaussian 16 at Wed Feb 17 16:51:45 2021.
