 Gaussian 16, Revision A.03,
 Gaussian 16:  ES64L-G16RevA.03 25-Dec-2016

 ----------------------------------------------------------------------
 # wB97XD def2tzvp, opt=(ts, noeigen, calcfc, maxcycles=70, maxstep=8),
  freq=noraman, scrf=(iefpcm, solvent=water)
 ----------------------------------------------------------------------

 ------------------------
 1_iteration/TS-530-1.out
 ------------------------
 Symbolic Z-matrix:
 Charge =  0 Multiplicity = 1

 SCF Done:  E(RwB97XD) =  -2940.04219428     A.U. after   15 cycles
 SCF Done:  E(RwB97XD) =  -2940.04205064     A.U. after   12 cycles
 SCF Done:  E(RwB97XD) =  -2940.04209472     A.U. after   12 cycles
 SCF Done:  E(RwB97XD) =  -2940.04217945     A.U. after   12 cycles
 SCF Done:  E(RwB97XD) =  -2940.04225004     A.U. after   12 cycles
 SCF Done:  E(RwB97XD) =  -2940.04228891     A.U. after   11 cycles
 SCF Done:  E(RwB97XD) =  -2940.04229556     A.U. after   11 cycles
 SCF Done:  E(RwB97XD) =  -2940.04229890     A.U. after   10 cycles
 SCF Done:  E(RwB97XD) =  -2940.04229947     A.U. after    9 cycles
 SCF Done:  E(RwB97XD) =  -2940.04229418     A.U. after   11 cycles
 SCF Done:  E(RwB97XD) =  -2940.04229946     A.U. after   11 cycles
 SCF Done:  E(RwB97XD) =  -2940.04229957     A.U. after    9 cycles
 SCF Done:  E(RwB97XD) =  -2940.04229963     A.U. after    8 cycles
 Optimization completed.
    -- Stationary point found.
 Normal termination of Gaussian 16 at Tue Feb 16 15:17:32 2021.

 ---------------------------------------------------------------------
 #N Geom=AllCheck Guess=TCheck SCRF=Check GenChk RwB97XD/def2TZVP Freq
 ---------------------------------------------------------------------

 Structure from the checkpoint file:  "/beegfs/scratch/user/q/tla25/Gau-119538.chk"
 ------------------------
 1_iteration/TS-530-1.out
 ------------------------
 Charge =  0 Multiplicity = 1

                         Standard orientation:
 ---------------------------------------------------------------------
 Center     Atomic      Atomic             Coordinates (Angstroms)
 Number     Number       Type             X           Y           Z
 ---------------------------------------------------------------------
      1          6           0        0.999573    0.076001    0.900029
      2          6           0        1.893802   -0.574829   -0.005430
      3          8           0        1.595812   -0.872419   -1.167469
      4          6           0       -0.331274    0.337851    0.666558
      5          6           0        0.443377    2.800113   -0.680236
      6          1           0        0.781315    3.290946   -1.594364
      7          1           0       -0.129591    3.510667   -0.087079
      8          1           0        1.321108    2.488369   -0.107425
      9          7           0       -0.363988    1.623922   -0.945996
     10          1           0       -1.299025    1.844318   -1.263708
     11          1           0        0.078775    1.002086   -1.613463
     12          6           0       -1.126901    1.133189    1.656229
     13          1           0       -0.532885    1.975847    2.010916
     14          1           0       -2.053872    1.503756    1.224170
     15          1           0       -1.376443    0.501737    2.510662
     16         35           0       -1.438590   -1.012783   -0.197237
     17          1           0        1.424051    0.549229    1.777019
     18          6           0        3.288969   -0.882733    0.494562
     19          1           0        3.376546   -1.963651    0.628388
     20          1           0        4.022516   -0.582577   -0.254255
     21          1           0        3.514322   -0.398970    1.443875
 ---------------------------------------------------------------------

 SCF Done:  E(RwB97XD) =  -2940.04229963     A.U. after    1 cycles

 The electronic state is 1-A.
 Alpha  occ. eigenvalues -- -483.12503 -62.67358 -56.46466 -56.46127 -56.46107
 Alpha  occ. eigenvalues --  -19.21061 -14.46410 -10.39069 -10.35603 -10.31026
 Alpha  occ. eigenvalues --  -10.29056 -10.27195 -10.25790  -8.81471  -6.63597
 Alpha  occ. eigenvalues --   -6.62524  -6.62457  -2.73988  -2.73692  -2.73639
 Alpha  occ. eigenvalues --   -2.72770  -2.72769  -1.11661  -1.02239  -0.93774
 Alpha  occ. eigenvalues --   -0.85639  -0.83595  -0.79677  -0.77898  -0.67736
 Alpha  occ. eigenvalues --   -0.61951  -0.59862  -0.56628  -0.55657  -0.54694
 Alpha  occ. eigenvalues --   -0.53849  -0.51632  -0.49843  -0.49286  -0.48645
 Alpha  occ. eigenvalues --   -0.47003  -0.45904  -0.44135  -0.43296  -0.41435
 Alpha  occ. eigenvalues --   -0.37143  -0.36049  -0.32190  -0.29076
 Alpha virt. eigenvalues --    0.02465   0.05935   0.10405   0.13189   0.13750
 Alpha virt. eigenvalues --    0.14748   0.16001   0.16685   0.17611   0.19557
 Alpha virt. eigenvalues --    0.20154   0.20558   0.21102   0.21320   0.21983

 Mulliken charges:
               1
     1  C   -0.541263
     2  C    0.356826
     3  O   -0.520817
     4  C    0.247005
     5  C   -0.280742
     6  H    0.148314
     7  H    0.153128
     8  H    0.139879
     9  N   -0.402067
    10  H    0.279418
    11  H    0.272727
    12  C   -0.376549
    13  H    0.150614
    14  H    0.152593
    15  H    0.159581
    16  Br  -0.122392
    17  H    0.153840
    18  C   -0.367066
    19  H    0.138228
    20  H    0.131208
    21  H    0.127535
 Sum of Mulliken charges =  -0.00000

 Dipole moment (field-independent basis, Debye):
    X=             -1.4460    Y=              6.5862    Z=              1.8462  Tot=              6.9912
 Quadrupole moment (field-independent basis, Debye-Ang):
   XX=            -67.0024   YY=            -61.9194   ZZ=            -67.4221
   XY=             -1.0893   XZ=              5.0664   YZ=             -4.5085

  Exact polarizability: 170.209  -9.604 152.906   5.359   0.396 137.866
 Approx polarizability: 128.683  -3.934 121.452   5.137   3.438 120.122

 ******    1 imaginary frequencies (negative Signs) ******

                      1                      2                      3
                      A                      A                      A
 Frequencies --   -373.3836                42.6938                62.2911
 Red. masses --      4.7080                 1.1676                 2.7384
 Frc consts  --      0.3867                 0.0013                 0.0063
 IR Inten    --    586.8075                 1.0003                 2.4824

                      4                      5                      6
                      A                      A                      A
 Frequencies --     78.8266               110.1009               127.2986
 Red. masses --      3.3530                 3.5252                 3.0992
 Frc consts  --      0.0123                 0.0252                 0.0296
 IR Inten    --     19.2570                10.7117                10.2805

                      7                      8                      9
                      A                      A                      A
 Frequencies --    155.7344               178.1758               222.0778
 Red. masses --      3.5225                 1.1475                 1.2707
 Frc consts  --      0.0503                 0.0215                 0.0369
 IR Inten    --      8.0732                 1.7813                 0.4210

                     10                     11                     12
                      A                      A                      A
 Frequencies --    248.0534               274.4848               292.2854
 Red. masses --      3.6291                 1.9898                 2.9386
 Frc consts  --      0.1316                 0.0883                 0.1479
 IR Inten    --     22.7229                 3.1426                 3.4180

                     13                     14                     15
                      A                      A                      A
 Frequencies --    314.2049               403.4636               446.3510
 Red. masses --      5.4729                 3.4873                 3.1226
 Frc consts  --      0.3183                 0.3345                 0.3665
 IR Inten    --     16.6655                 8.5871                33.2552

                     16                     17                     18
                      A                      A                      A
 Frequencies --    554.2924               592.9012               648.3306
 Red. masses --      2.6747                 1.9029                 2.7891
 Frc consts  --      0.4842                 0.3941                 0.6907
 IR Inten    --     51.1385                64.0918                 5.5555

                     19                     20                     21
                      A                      A                      A
 Frequencies --    670.4650               734.2619               932.4320
 Red. masses --      1.7876                 1.4664                 3.2740
 Frc consts  --      0.4734                 0.4658                 1.6771
 IR Inten    --     23.8331               112.9707                25.9930

                     22                     23                     24
                      A                      A                      A
 Frequencies --    958.3718               984.2320              1011.2123
 Red. masses --      1.1095                 2.0248                 1.1406
 Frc consts  --      0.6004                 1.1556                 0.6872
 IR Inten    --    138.6064                26.1566                50.6043

                     25                     26                     27
                      A                      A                      A
 Frequencies --   1036.5749              1042.3978              1058.2332
 Red. masses --      1.5771                 1.7047                 1.5352
 Frc consts  --      0.9984                 1.0914                 1.0129
 IR Inten    --     60.9256                40.6675                40.2980

                     28                     29                     30
                      A                      A                      A
 Frequencies --   1093.9684              1118.7481              1185.5965
 Red. masses --      3.9074                 2.5331                 1.4203
 Frc consts  --      2.7552                 1.8679                 1.1762
 IR Inten    --     12.2717               113.3148                17.8970

                     31                     32                     33
                      A                      A                      A
 Frequencies --   1232.1129              1331.5999              1344.7417
 Red. masses --      1.7819                 2.0590                 1.4390
 Frc consts  --      1.5938                 2.1511                 1.5332
 IR Inten    --    314.4479                52.3895                16.2251

                     34                     35                     36
                      A                      A                      A
 Frequencies --   1387.3799              1413.8020              1450.7198
 Red. masses --      1.2762                 1.2615                 1.1929
 Frc consts  --      1.4473                 1.4856                 1.4792
 IR Inten    --     26.7933                 7.2786                58.8491

                     37                     38                     39
                      A                      A                      A
 Frequencies --   1461.1243              1472.3691              1476.2002
 Red. masses --      1.1206                 1.0749                 1.0673
 Frc consts  --      1.4095                 1.3729                 1.3704
 IR Inten    --     97.3314                42.2400                24.1360

                     40                     41                     42
                      A                      A                      A
 Frequencies --   1479.4465              1490.4673              1504.4188
 Red. masses --      1.0707                 1.0432                 1.0396
 Frc consts  --      1.3808                 1.3654                 1.3862
 IR Inten    --     34.1600                 5.7939                38.1702

                     43                     44                     45
                      A                      A                      A
 Frequencies --   1516.3906              1644.8994              1672.0116
 Red. masses --      3.2196                 1.1563                 6.0179
 Frc consts  --      4.3618                 1.8433                 9.9123
 IR Inten    --    978.8154               130.5049               267.3840

                     46                     47                     48
                      A                      A                      A
 Frequencies --   3043.9274              3056.9246              3066.0376
 Red. masses --      1.0359                 1.0367                 1.0365
 Frc consts  --      5.6551                 5.7081                 5.7406
 IR Inten    --     52.6149                13.7043                 9.5837

                     49                     50                     51
                      A                      A                      A
 Frequencies --   3111.3593              3129.5559              3140.4095
 Red. masses --      1.1021                 1.0994                 1.1018
 Frc consts  --      6.2858                 6.3438                 6.4021
 IR Inten    --     21.4070                16.2071                11.4681

                     52                     53                     54
                      A                      A                      A
 Frequencies --   3151.4977              3154.8874              3164.7246
 Red. masses --      1.1036                 1.1040                 1.1030
 Frc consts  --      6.4582                 6.4744                 6.5085
 IR Inten    --     21.3622                25.0137                13.1828

                     55                     56                     57
                      A                      A                      A
 Frequencies --   3194.6906              3522.6442              3617.3725
 Red. masses --      1.0883                 1.0509                 1.0965
 Frc consts  --      6.5443                 7.6833                 8.4535
 IR Inten    --      6.7919                24.0397                68.3438

 - Thermochemistry -
 -------------------
 Temperature   298.150 Kelvin.  Pressure   1.00000 Atm.
 Atom     1 has atomic number  6 and mass  12.00000

 Molecular mass:   193.01023 amu.
 Principal axes and moments of inertia in atomic units:
                           1         2         3
     Eigenvalues --  1471.775232074.378532703.09906
           X            0.99157  -0.12954   0.00148
           Y            0.12954   0.99127  -0.02464
           Z            0.00173   0.02462   0.99970
 This molecule is an asymmetric top.
 Rotational symmetry number  1.
 Warning -- assumption of classical behavior for rotation
           may cause significant error
 Rotational temperatures (Kelvin)      0.05885     0.04175     0.03204
 Rotational constants (GHZ):           1.22623     0.87002     0.66766
    1 imaginary frequencies ignored.
 Zero-point vibrational energy     459424.5 (Joules/Mol)
                                  109.80509 (Kcal/Mol)
 Warning -- explicit consideration of  16 degrees of freedom as
           vibrations may cause significant error
 Vibrational temperatures:     61.43    89.62   113.41   158.41   183.15
          (Kelvin)            224.07   256.36   319.52   356.89   394.92
                              420.53   452.07   580.49   642.20   797.50
                              853.05   932.80   964.65  1056.44  1341.56
                             1378.88  1416.09  1454.91  1491.40  1499.78
                             1522.56  1573.98  1609.63  1705.81  1772.74
                             1915.88  1934.78  1996.13  2034.15  2087.26
                             2102.23  2118.41  2123.92  2128.59  2144.45
                             2164.52  2181.75  2366.64  2405.65  4379.53
                             4398.23  4411.34  4476.55  4502.73  4518.35
                             4534.30  4539.18  4553.33  4596.45  5068.30
                             5204.59

 Zero-point correction=                           0.174986 (Hartree/Particle)
 Thermal correction to Energy=                    0.186888
 Thermal correction to Enthalpy=                  0.187833
 Thermal correction to Gibbs Free Energy=         0.135733
 Sum of electronic and zero-point Energies=          -2939.867314
 Sum of electronic and thermal Energies=             -2939.855411
 Sum of electronic and thermal Enthalpies=           -2939.854467
 Sum of electronic and thermal Free Energies=        -2939.906566

                     E (Thermal)             CV                S
                      KCal/Mol        Cal/Mol-Kelvin    Cal/Mol-Kelvin
 Total                  117.274             40.511            109.652
 Electronic               0.000              0.000              0.000
 Translational            0.889              2.981             41.678
 Rotational               0.889              2.981             30.491
 Vibrational            115.497             34.549             37.483
 Vibration     1          0.595              1.980              5.130
 Vibration     2          0.597              1.972              4.383
 Vibration     3          0.600              1.963              3.920
 Vibration     4          0.606              1.941              3.267
 Vibration     5          0.611              1.926              2.986
 Vibration     6          0.620              1.896              2.601
 Vibration     7          0.629              1.869              2.347
 Vibration     8          0.648              1.807              1.942
 Vibration     9          0.662              1.766              1.744
 Vibration    10          0.677              1.720              1.568
 Vibration    11          0.688              1.688              1.461
 Vibration    12          0.702              1.647              1.340
 Vibration    13          0.769              1.463              0.950
 Vibration    14          0.806              1.369              0.807
 Vibration    15          0.910              1.130              0.535
 Vibration    16          0.950              1.047              0.462

 Optimization completed.
    -- Stationary point found.
 Normal termination of Gaussian 16 at Tue Feb 16 15:30:04 2021.
