 Gaussian 16, Revision A.03,
 Gaussian 16:  ES64L-G16RevA.03 25-Dec-2016

 ----------------------------------------------------------------------
 # wB97XD def2tzvp, opt=(ts, noeigen, calcfc, maxcycles=70, maxstep=8),
  freq=noraman, scrf=(iefpcm, solvent=water)
 ----------------------------------------------------------------------

 ------------------------
 1_iteration/TS-519-1.out
 ------------------------
 Symbolic Z-matrix:
 Charge =  0 Multiplicity = 1

 SCF Done:  E(RwB97XD) =  -1112.46786118     A.U. after   14 cycles
 SCF Done:  E(RwB97XD) =  -1112.46878787     A.U. after   12 cycles
 SCF Done:  E(RwB97XD) =  -1112.46893387     A.U. after   11 cycles
 SCF Done:  E(RwB97XD) =  -1112.46895882     A.U. after   11 cycles
 SCF Done:  E(RwB97XD) =  -1112.46894881     A.U. after   11 cycles
 SCF Done:  E(RwB97XD) =  -1112.46895890     A.U. after   10 cycles
 SCF Done:  E(RwB97XD) =  -1112.46896230     A.U. after   10 cycles
 SCF Done:  E(RwB97XD) =  -1112.46896236     A.U. after    9 cycles
 SCF Done:  E(RwB97XD) =  -1112.46896242     A.U. after    7 cycles
 Optimization completed.
    -- Stationary point found.
 Normal termination of Gaussian 16 at Wed Feb 17 10:32:55 2021.

 ---------------------------------------------------------------------
 #N Geom=AllCheck Guess=TCheck SCRF=Check GenChk RwB97XD/def2TZVP Freq
 ---------------------------------------------------------------------

 Structure from the checkpoint file:  "/beegfs/scratch/user/q/tla25/Gau-113359.chk"
 ------------------------
 1_iteration/TS-519-1.out
 ------------------------
 Charge =  0 Multiplicity = 1

                         Standard orientation:
 ---------------------------------------------------------------------
 Center     Atomic      Atomic             Coordinates (Angstroms)
 Number     Number       Type             X           Y           Z
 ---------------------------------------------------------------------
      1          6           0        1.418170    0.475411   -0.398961
      2          6           0        0.158176   -0.214542   -0.367432
      3          8           0        0.089081   -1.454096   -0.395274
      4          6           0        2.647043   -0.187055   -0.581326
      5          6           0        2.663400   -0.774698    2.220383
      6          1           0        1.836841   -0.065927    2.155540
      7          1           0        2.448838   -1.492432    3.013108
      8          1           0        3.575060   -0.234276    2.467922
      9          7           0        2.814109   -1.422025    0.925499
     10          1           0        3.651681   -1.988940    0.874233
     11          1           0        2.006732   -2.000102    0.710163
     12          6           0        3.919496    0.607417   -0.434551
     13          1           0        3.988844    1.325795   -1.253919
     14          1           0        3.952168    1.165690    0.498668
     15          1           0        4.784235   -0.052862   -0.489002
     16          6           0        2.751407   -1.229077   -1.676400
     17          1           0        2.897582   -0.696945   -2.619236
     18          1           0        3.618569   -1.872907   -1.524937
     19          1           0        1.855009   -1.835121   -1.752180
     20         17           0        1.437256    2.161027    0.159594
     21          7           0       -0.978082    0.561627   -0.282898
     22          6           0       -2.310567    0.178571   -0.127230
     23          6           0       -2.756442   -1.144906   -0.110655
     24          6           0       -4.108736   -1.415124    0.050208
     25          6           0       -5.037312   -0.396182    0.191481
     26          6           0       -4.594661    0.920237    0.171420
     27          6           0       -3.251061    1.205547    0.015486
     28          1           0       -0.818987    1.555231   -0.278185
     29          1           0       -2.045048   -1.945655   -0.224568
     30          1           0       -4.435467   -2.447969    0.061534
     31          1           0       -6.088730   -0.621168    0.313995
     32          1           0       -5.300227    1.734691    0.279280
     33          1           0       -2.918763    2.237407    0.003941
 ---------------------------------------------------------------------

 SCF Done:  E(RwB97XD) =  -1112.46896242     A.U. after    1 cycles

 The electronic state is 1-A.
 Alpha  occ. eigenvalues -- -101.68772 -19.20529 -14.47089 -14.46025 -10.38612
 Alpha  occ. eigenvalues --  -10.35332 -10.33735 -10.31223 -10.30185 -10.28954
 Alpha  occ. eigenvalues --  -10.28795 -10.28700 -10.28120 -10.28084 -10.28021
 Alpha  occ. eigenvalues --  -10.27501  -9.57311  -7.31915  -7.31131  -7.31084
 Alpha  occ. eigenvalues --   -1.13364  -1.03875  -1.02923  -0.96604  -0.94915
 Alpha  occ. eigenvalues --   -0.89882  -0.85037  -0.84880  -0.80195  -0.78849
 Alpha  occ. eigenvalues --   -0.77575  -0.73085  -0.71185  -0.67068  -0.63818
 Alpha  occ. eigenvalues --   -0.62291  -0.61757  -0.58301  -0.57583  -0.56640
 Alpha  occ. eigenvalues --   -0.55257  -0.54305  -0.53483  -0.52275  -0.51787
 Alpha  occ. eigenvalues --   -0.51137  -0.50060  -0.49669  -0.47637  -0.47551
 Alpha  occ. eigenvalues --   -0.47305  -0.46620  -0.45663  -0.44660  -0.43943
 Alpha  occ. eigenvalues --   -0.42676  -0.42099  -0.40153  -0.39839  -0.38970
 Alpha  occ. eigenvalues --   -0.33766  -0.33620  -0.30151  -0.26135
 Alpha virt. eigenvalues --    0.03912   0.05488   0.08118   0.10198   0.11523
 Alpha virt. eigenvalues --    0.12918   0.13949   0.14344   0.14973   0.15292
 Alpha virt. eigenvalues --    0.16605   0.17123   0.17946   0.18191   0.18415

 Mulliken charges:
               1
     1  C   -0.305981
     2  C    0.459527
     3  O   -0.586215
     4  C    0.186861
     5  C   -0.298481
     6  H    0.150497
     7  H    0.150695
     8  H    0.154578
     9  N   -0.349252
    10  H    0.278512
    11  H    0.275639
    12  C   -0.379559
    13  H    0.153823
    14  H    0.144982
    15  H    0.141129
    16  C   -0.362955
    17  H    0.137733
    18  H    0.129873
    19  H    0.155008
    20  Cl  -0.197309
    21  N   -0.275023
    22  C    0.299499
    23  C   -0.297787
    24  C   -0.109461
    25  C   -0.200650
    26  C   -0.098105
    27  C   -0.312033
    28  H    0.231841
    29  H    0.160413
    30  H    0.140187
    31  H    0.139603
    32  H    0.142421
    33  H    0.139991
 Sum of Mulliken charges =  -0.00000

 Dipole moment (field-independent basis, Debye):
    X=              6.2846    Y=             -1.4198    Z=              2.4060  Tot=              6.8775
 Quadrupole moment (field-independent basis, Debye-Ang):
   XX=            -78.0147   YY=            -99.5306   ZZ=           -102.9412
   XY=            -13.9824   XZ=              3.8360   YZ=             -4.0491

  Exact polarizability: 333.145  -7.426 249.634  -4.009  -1.199 175.709
 Approx polarizability: 235.780  -4.103 215.745  -3.945  -0.290 150.775

 ******    1 imaginary frequencies (negative Signs) ******

                      1                      2                      3
                      A                      A                      A
 Frequencies --   -382.5047                27.2499                33.9612
 Red. masses --      5.2150                 4.1803                 3.9160
 Frc consts  --      0.4496                 0.0018                 0.0027
 IR Inten    --    894.3141                 3.3495                 1.1966

                      4                      5                      6
                      A                      A                      A
 Frequencies --     64.3434                70.7196                94.3154
 Red. masses --      4.0503                 2.5886                 5.0979
 Frc consts  --      0.0099                 0.0076                 0.0267
 IR Inten    --      0.2270                19.1192                15.3782

                      7                      8                      9
                      A                      A                      A
 Frequencies --    102.5853               140.3582               195.4562
 Red. masses --      5.1122                 3.1744                 1.3586
 Frc consts  --      0.0317                 0.0368                 0.0306
 IR Inten    --      2.0274                31.2319                 1.1001

                     10                     11                     12
                      A                      A                      A
 Frequencies --    202.0461               218.2939               231.3259
 Red. masses --      1.4518                 3.2930                 2.0034
 Frc consts  --      0.0349                 0.0925                 0.0632
 IR Inten    --      1.3224                17.6178                 3.7381

                     13                     14                     15
                      A                      A                      A
 Frequencies --    237.0379               248.1023               263.3304
 Red. masses --      3.7294                 3.7177                 1.6507
 Frc consts  --      0.1235                 0.1348                 0.0674
 IR Inten    --      4.7723                 1.4561                 4.2178

                     16                     17                     18
                      A                      A                      A
 Frequencies --    304.4929               312.1043               333.8555
 Red. masses --      2.1544                 2.9245                 2.7124
 Frc consts  --      0.1177                 0.1678                 0.1781
 IR Inten    --      6.9986                 9.1004                 1.4886

                     19                     20                     21
                      A                      A                      A
 Frequencies --    378.8618               417.8083               424.1497
 Red. masses --      6.4560                 2.9726                 3.0060
 Frc consts  --      0.5460                 0.3057                 0.3186
 IR Inten    --     13.4674                19.7983                 0.1155

                     22                     23                     24
                      A                      A                      A
 Frequencies --    446.5550               506.9855               508.0541
 Red. masses --      6.1961                 3.3082                 4.1849
 Frc consts  --      0.7280                 0.5010                 0.6364
 IR Inten    --      4.9298                 3.4783                74.3820

                     25                     26                     27
                      A                      A                      A
 Frequencies --    529.1556               567.9701               607.8490
 Red. masses --      2.7920                 1.1371                 4.8567
 Frc consts  --      0.4606                 0.2161                 1.0573
 IR Inten    --     42.5025               100.7669                24.9693

                     28                     29                     30
                      A                      A                      A
 Frequencies --    636.0180               666.6902               719.6436
 Red. masses --      6.3916                 1.4626                 1.8927
 Frc consts  --      1.5234                 0.3830                 0.5775
 IR Inten    --      2.6463               111.2708                62.4481

                     31                     32                     33
                      A                      A                      A
 Frequencies --    771.1892               782.9701               799.2145
 Red. masses --      8.6508                 1.8377                 6.0549
 Frc consts  --      3.0313                 0.6638                 2.2787
 IR Inten    --     27.4238                99.6665                 5.3894

                     34                     35                     36
                      A                      A                      A
 Frequencies --    862.5350               866.0812               918.6704
 Red. masses --      1.2622                 5.9974                 3.2212
 Frc consts  --      0.5533                 2.6505                 1.6017
 IR Inten    --      0.0036                 6.2580                15.4062

                     37                     38                     39
                      A                      A                      A
 Frequencies --    932.0130               960.6802               993.7483
 Red. masses --      1.4632                 1.3331                 1.1257
 Frc consts  --      0.7489                 0.7249                 0.6550
 IR Inten    --     13.9927                 6.9951               102.4420

                     40                     41                     42
                      A                      A                      A
 Frequencies --   1001.0335              1016.1384              1016.4325
 Red. masses --      1.3423                 1.7356                 1.2906
 Frc consts  --      0.7925                 1.0559                 0.7856
 IR Inten    --      0.0334                23.8794                 1.3942

                     43                     44                     45
                      A                      A                      A
 Frequencies --   1019.8149              1038.8472              1058.4852
 Red. masses --      3.8114                 1.4690                 1.9659
 Frc consts  --      2.3355                 0.9341                 1.2977
 IR Inten    --     20.9841               104.0363                27.6507

                     46                     47                     48
                      A                      A                      A
 Frequencies --   1064.9841              1077.3428              1099.5677
 Red. masses --      1.9048                 2.4288                 1.9583
 Frc consts  --      1.2729                 1.6609                 1.3950
 IR Inten    --     55.0384               110.1315                19.5304

                     49                     50                     51
                      A                      A                      A
 Frequencies --   1116.3629              1124.7929              1181.7226
 Red. masses --      2.0250                 1.6640                 1.1184
 Frc consts  --      1.4869                 1.2404                 0.9202
 IR Inten    --     27.5656                14.0516                 3.8015

                     52                     53                     54
                      A                      A                      A
 Frequencies --   1207.5240              1208.4657              1249.3828
 Red. masses --      1.1595                 1.3878                 3.0477
 Frc consts  --      0.9961                 1.1941                 2.8029
 IR Inten    --     35.3754                32.0872               321.4465

                     55                     56                     57
                      A                      A                      A
 Frequencies --   1270.2749              1298.7185              1345.8573
 Red. masses --      2.6259                 4.5232                 4.2017
 Frc consts  --      2.4965                 4.4950                 4.4841
 IR Inten    --    306.7735                54.8386               729.1776

                     58                     59                     60
                      A                      A                      A
 Frequencies --   1354.9497              1360.3340              1404.5182
 Red. masses --      1.3325                 1.5468                 1.8819
 Frc consts  --      1.4413                 1.6865                 2.1873
 IR Inten    --      8.1750                16.9227               330.2153

                     61                     62                     63
                      A                      A                      A
 Frequencies --   1410.3912              1427.0561              1456.6445
 Red. masses --      1.3664                 1.4240                 1.1930
 Frc consts  --      1.6014                 1.7086                 1.4914
 IR Inten    --     63.4512               191.9944                10.1069

                     64                     65                     66
                      A                      A                      A
 Frequencies --   1475.7537              1478.2337              1486.4349
 Red. masses --      1.2498                 1.6385                 1.0550
 Frc consts  --      1.6036                 2.1095                 1.3734
 IR Inten    --    202.8437               248.7260                 7.7202

                     67                     68                     69
                      A                      A                      A
 Frequencies --   1492.8441              1505.3574              1509.5856
 Red. masses --      1.0466                 1.0939                 1.1779
 Frc consts  --      1.3743                 1.4605                 1.5815
 IR Inten    --     18.2656                75.0534                76.9384

                     70                     71                     72
                      A                      A                      A
 Frequencies --   1510.0854              1546.4235              1561.9922
 Red. masses --      1.0762                 2.4364                 2.2369
 Frc consts  --      1.4460                 3.4328                 3.2155
 IR Inten    --     43.1945               202.1067               729.4819

                     73                     74                     75
                      A                      A                      A
 Frequencies --   1634.0658              1653.4155              1660.2405
 Red. masses --      1.8999                 1.9691                 3.4816
 Frc consts  --      2.9890                 3.1716                 5.6543
 IR Inten    --    358.3794                47.3763               102.4548

                     76                     77                     78
                      A                      A                      A
 Frequencies --   1676.3959              3061.5138              3062.1865
 Red. masses --      6.0741                 1.0405                 1.0337
 Frc consts  --     10.0575                 5.7459                 5.7107
 IR Inten    --    195.7463                40.1663                40.5745

                     79                     80                     81
                      A                      A                      A
 Frequencies --   3067.5347              3124.6881              3134.0183
 Red. masses --      1.0381                 1.1008                 1.1042
 Frc consts  --      5.7553                 6.3325                 6.3901
 IR Inten    --     28.8989                30.6998                16.8228

                     82                     83                     84
                      A                      A                      A
 Frequencies --   3138.9570              3159.1428              3165.3523
 Red. masses --      1.0999                 1.1048                 1.1029
 Frc consts  --      6.3852                 6.4965                 6.5108
 IR Inten    --     31.6795                21.8946                19.1804

                     85                     86                     87
                      A                      A                      A
 Frequencies --   3186.9455              3195.5896              3199.9123
 Red. masses --      1.0876                 1.0884                 1.0980
 Frc consts  --      6.5081                 6.5486                 6.6243
 IR Inten    --     14.0156                 2.9407                 5.2109

                     88                     89                     90
                      A                      A                      A
 Frequencies --   3205.4833              3220.7645              3278.9797
 Red. masses --      1.0932                 1.0980                 1.0915
 Frc consts  --      6.6182                 6.7105                 6.9144
 IR Inten    --     32.0394                23.5012                 6.2014

                     91                     92                     93
                      A                      A                      A
 Frequencies --   3494.6651              3597.4499              3636.4592
 Red. masses --      1.0540                 1.0935                 1.0763
 Frc consts  --      7.5843                 8.3381                 8.3856
 IR Inten    --     33.0820                77.5223                87.9728

 - Thermochemistry -
 -------------------
 Temperature   298.150 Kelvin.  Pressure   1.00000 Atm.
 Atom     1 has atomic number  6 and mass  12.00000

 Molecular mass:   240.10294 amu.
 Principal axes and moments of inertia in atomic units:
                           1         2         3
     Eigenvalues --  1893.851357437.850838214.93072
           X            0.99992  -0.01297   0.00005
           Y            0.01297   0.99988  -0.00817
           Z            0.00005   0.00817   0.99997
 This molecule is an asymmetric top.
 Rotational symmetry number  1.
 Warning -- assumption of classical behavior for rotation
           may cause significant error
 Rotational temperatures (Kelvin)      0.04573     0.01165     0.01054
 Rotational constants (GHZ):           0.95295     0.24264     0.21969
    1 imaginary frequencies ignored.
 Zero-point vibrational energy     725574.2 (Joules/Mol)
                                  173.41640 (Kcal/Mol)
 Warning -- explicit consideration of  26 degrees of freedom as
           vibrations may cause significant error
 Vibrational temperatures:     39.21    48.86    92.58   101.75   135.70
          (Kelvin)            147.60   201.94   281.22   290.70   314.08
                              332.83   341.04   356.96   378.87   438.10
                              449.05   480.34   545.10   601.13   610.26
                              642.49   729.44   730.98   761.34   817.18
                              874.56   915.09   959.22  1035.41  1109.57
                             1126.52  1149.89  1241.00  1246.10  1321.76
                             1340.96  1382.20  1429.78  1440.26  1462.00
                             1462.42  1467.29  1494.67  1522.92  1532.27
                             1550.06  1582.03  1606.20  1618.33  1700.24
                             1737.36  1738.71  1797.58  1827.64  1868.57
                             1936.39  1949.47  1957.22  2020.79  2029.24
                             2053.22  2095.79  2123.28  2126.85  2138.65
                             2147.87  2165.87  2171.96  2172.68  2224.96
                             2247.36  2351.06  2378.90  2388.72  2411.96
                             4404.84  4405.80  4413.50  4495.73  4509.15
                             4516.26  4545.30  4554.24  4585.30  4597.74
                             4603.96  4611.98  4633.96  4717.72  5028.04
                             5175.93  5232.05

 Zero-point correction=                           0.276357 (Hartree/Particle)
 Thermal correction to Energy=                    0.293106
 Thermal correction to Enthalpy=                  0.294050
 Thermal correction to Gibbs Free Energy=         0.230952
 Sum of electronic and zero-point Energies=          -1112.192606
 Sum of electronic and thermal Energies=             -1112.175856
 Sum of electronic and thermal Enthalpies=           -1112.174912
 Sum of electronic and thermal Free Energies=        -1112.238011

                     E (Thermal)             CV                S
                      KCal/Mol        Cal/Mol-Kelvin    Cal/Mol-Kelvin
 Total                  183.927             62.420            132.802
 Electronic               0.000              0.000              0.000
 Translational            0.889              2.981             42.329
 Rotational               0.889              2.981             33.114
 Vibrational            182.149             56.459             57.359
 Vibration     1          0.593              1.984              6.020
 Vibration     2          0.594              1.983              5.583
 Vibration     3          0.597              1.971              4.319
 Vibration     4          0.598              1.968              4.133
 Vibration     5          0.603              1.953              3.569
 Vibration     6          0.605              1.947              3.405
 Vibration     7          0.615              1.913              2.799
 Vibration     8          0.636              1.846              2.175
 Vibration     9          0.639              1.837              2.114
 Vibration    10          0.646              1.813              1.973
 Vibration    11          0.653              1.793              1.869
 Vibration    12          0.656              1.784              1.825
 Vibration    13          0.662              1.766              1.744
 Vibration    14          0.670              1.740              1.640
 Vibration    15          0.695              1.665              1.392
 Vibration    16          0.700              1.651              1.351
 Vibration    17          0.715              1.608              1.241
 Vibration    18          0.749              1.515              1.044
 Vibration    19          0.781              1.432              0.899
 Vibration    20          0.786              1.418              0.878
 Vibration    21          0.806              1.368              0.806
 Vibration    22          0.862              1.235              0.641
 Vibration    23          0.863              1.232              0.638
 Vibration    24          0.884              1.185              0.589
 Vibration    25          0.924              1.101              0.508
 Vibration    26          0.967              1.015              0.436

 Optimization completed.
    -- Stationary point found.
 Normal termination of Gaussian 16 at Wed Feb 17 11:42:19 2021.
