 Gaussian 16, Revision A.03,
 Gaussian 16:  ES64L-G16RevA.03 25-Dec-2016

 ----------------------------------------------------------------------
 # wB97XD def2tzvp, opt=(ts, noeigen, calcfc, maxcycles=70, maxstep=3),
  freq=noraman, scrf=(iefpcm, solvent=water)
 ----------------------------------------------------------------------

 ------------------------
 3_iteration/TS-567-3.out
 ------------------------
 Symbolic Z-matrix:
 Charge =  0 Multiplicity = 1

 SCF Done:  E(RwB97XD) =  -1304.20403733     A.U. after   15 cycles
 Optimization completed.
    -- Stationary point found.
 Normal termination of Gaussian 16 at Wed Feb 17 22:59:26 2021.

 ---------------------------------------------------------------------
 #N Geom=AllCheck Guess=TCheck SCRF=Check GenChk RwB97XD/def2TZVP Freq
 ---------------------------------------------------------------------

 Structure from the checkpoint file:  "/beegfs/scratch/user/q/tla25/Gau-22140.chk"
 ------------------------
 3_iteration/TS-567-3.out
 ------------------------
 Charge =  0 Multiplicity = 1

                         Standard orientation:
 ---------------------------------------------------------------------
 Center     Atomic      Atomic             Coordinates (Angstroms)
 Number     Number       Type             X           Y           Z
 ---------------------------------------------------------------------
      1          6           0        1.055421   -0.220300   -0.247260
      2          6           0       -0.279199   -0.788400   -0.156220
      3          8           0       -0.497509   -1.970900    0.129430
      4          6           0        2.157071   -1.055210   -0.346600
      5          6           0        2.289691   -1.407700    2.513200
      6          1           0        1.948591   -1.953400    3.394400
      7          1           0        3.323731   -1.102119    2.662750
      8          1           0        1.671611   -0.515920    2.396510
      9          7           0        2.180701   -2.196380    1.299870
     10          1           0        2.863361   -2.941410    1.244680
     11          1           0        1.244841   -2.572590    1.169660
     12          6           0        3.558721   -0.519659   -0.315340
     13          1           0        3.660530    0.226391    0.471830
     14          1           0        4.270851   -1.323839   -0.144510
     15          1           0        3.801651   -0.048819   -1.267920
     16         17           0        2.070301   -2.472840   -1.457270
     17          6           0        1.246420    1.251380   -0.100040
     18          6           0        1.797120    2.008170   -1.135750
     19          6           0        1.968100    3.379390   -1.013910
     20          6           0        1.570230    4.030640    0.144260
     21          6           0        1.000270    3.299190    1.177260
     22          6           0        0.845130    1.927250    1.055490
     23          1           0        2.088420    1.511190   -2.053090
     24          1           0        2.402900    3.941210   -1.831260
     25          1           0        1.697320    5.101540    0.239730
     26          1           0        0.681340    3.797460    2.084260
     27          1           0        0.398340    1.367270    1.868680
     28          7           0       -1.309570    0.094970   -0.390010
     29          6           0       -2.684899   -0.063841   -0.207940
     30          6           0       -3.301779   -1.279091    0.093630
     31          6           0       -4.679859   -1.329931    0.254240
     32          6           0       -5.464439   -0.196141    0.114760
     33          6           0       -4.850480    1.011619   -0.191340
     34          6           0       -3.478760    1.079349   -0.349470
     35          1           0       -1.023720    1.027510   -0.638410
     36          1           0       -2.702029   -2.167991    0.197890
     37          1           0       -5.142609   -2.280711    0.489460
     38          1           0       -6.537959   -0.250391    0.240100
     39          1           0       -5.442580    1.911009   -0.305930
     40          1           0       -3.010090    2.028649   -0.583490
 ---------------------------------------------------------------------

 SCF Done:  E(RwB97XD) =  -1304.20403733     A.U. after    1 cycles

 The electronic state is 1-A.
 Alpha  occ. eigenvalues -- -101.68798 -19.21126 -14.46491 -14.46405 -10.39564
 Alpha  occ. eigenvalues --  -10.38788 -10.33815 -10.31130 -10.30322 -10.29054
 Alpha  occ. eigenvalues --  -10.29053 -10.29019 -10.28948 -10.28931 -10.28897
 Alpha  occ. eigenvalues --  -10.28850 -10.28846 -10.28837 -10.28257 -10.28200
 Alpha  occ. eigenvalues --  -10.26892  -9.57399  -7.32016  -7.31199  -7.31157
 Alpha  occ. eigenvalues --   -1.13894  -1.04198  -1.02679  -0.97523  -0.95953
 Alpha  occ. eigenvalues --   -0.95438  -0.89190  -0.85341  -0.85117  -0.84840
 Alpha  occ. eigenvalues --   -0.84103  -0.80503  -0.78077  -0.73649  -0.71411
 Alpha  occ. eigenvalues --   -0.70344  -0.70088  -0.67191  -0.64169  -0.62670
 Alpha  occ. eigenvalues --   -0.62023  -0.61323  -0.58426  -0.57580  -0.57053
 Alpha  occ. eigenvalues --   -0.55557  -0.54524  -0.53962  -0.53734  -0.52845
 Alpha  occ. eigenvalues --   -0.52288  -0.51731  -0.50982  -0.50822  -0.50234
 Alpha  occ. eigenvalues --   -0.49706  -0.48109  -0.47395  -0.46875  -0.46682
 Alpha  occ. eigenvalues --   -0.46200  -0.44690  -0.43736  -0.43022  -0.42719
 Alpha  occ. eigenvalues --   -0.42506  -0.40214  -0.38736  -0.37353  -0.35411
 Alpha  occ. eigenvalues --   -0.33863  -0.33737  -0.32982  -0.30505  -0.26883
 Alpha virt. eigenvalues --    0.02773   0.04187   0.05210   0.05446   0.07767
 Alpha virt. eigenvalues --    0.09573   0.10645   0.12407   0.12956   0.13989
 Alpha virt. eigenvalues --    0.14140   0.14810   0.15617   0.16413   0.16805

 Mulliken charges:
               1
     1  C   -0.267574
     2  C    0.434774
     3  O   -0.559199
     4  C    0.221371
     5  C   -0.279268
     6  H    0.150108
     7  H    0.154578
     8  H    0.122023
     9  N   -0.359407
    10  H    0.275501
    11  H    0.270691
    12  C   -0.396226
    13  H    0.159691
    14  H    0.155290
    15  H    0.157099
    16  Cl  -0.147350
    17  C    0.057594
    18  C   -0.227948
    19  C   -0.154315
    20  C   -0.135827
    21  C   -0.137430
    22  C   -0.240767
    23  H    0.156104
    24  H    0.140608
    25  H    0.143771
    26  H    0.141479
    27  H    0.159308
    28  N   -0.255051
    29  C    0.301990
    30  C   -0.299506
    31  C   -0.108827
    32  C   -0.196980
    33  C   -0.098132
    34  C   -0.319850
    35  H    0.255503
    36  H    0.159842
    37  H    0.141001
    38  H    0.140487
    39  H    0.143202
    40  H    0.141641
 Sum of Mulliken charges =  -0.00000

 Dipole moment (field-independent basis, Debye):
    X=              4.9153    Y=              2.6943    Z=              3.7290  Tot=              6.7323
 Quadrupole moment (field-independent basis, Debye-Ang):
   XX=           -116.7697   YY=           -122.5335   ZZ=           -127.0965
   XY=             -8.3187   XZ=              5.9759   YZ=            -10.8475

  Exact polarizability: 372.624 -14.371 367.665 -16.273 -11.302 263.857
 Approx polarizability: 274.989  -5.176 296.135 -15.582  -8.523 227.543

 ******    1 imaginary frequencies (negative Signs) ******

                      1                      2                      3
                      A                      A                      A
 Frequencies --   -392.1660                18.4344                28.7667
 Red. masses --      5.4960                 3.8138                 4.9269
 Frc consts  --      0.4980                 0.0008                 0.0024
 IR Inten    --    866.3765                 0.6908                 1.3906

                      4                      5                      6
                      A                      A                      A
 Frequencies --     40.2340                47.3223                70.0918
 Red. masses --      4.0119                 4.7937                 4.7395
 Frc consts  --      0.0038                 0.0063                 0.0137
 IR Inten    --      0.6177                 0.3051                 4.1697

                      7                      8                      9
                      A                      A                      A
 Frequencies --     88.4040                97.2645               105.8727
 Red. masses --      2.5498                 6.0282                 4.9954
 Frc consts  --      0.0117                 0.0336                 0.0330
 IR Inten    --      1.4591                 6.0624                 1.5035

                     10                     11                     12
                      A                      A                      A
 Frequencies --    144.7977               156.9184               190.1401
 Red. masses --      2.6185                 2.9296                 2.1945
 Frc consts  --      0.0323                 0.0425                 0.0467
 IR Inten    --     27.6642                 1.1000                 0.4651

                     13                     14                     15
                      A                      A                      A
 Frequencies --    202.2304               218.4390               236.0882
 Red. masses --      2.8881                 4.8568                 2.1583
 Frc consts  --      0.0696                 0.1365                 0.0709
 IR Inten    --      3.9392                16.3274                11.2605

                     16                     17                     18
                      A                      A                      A
 Frequencies --    255.6740               264.0926               285.0112
 Red. masses --      4.3909                 3.5054                 1.4221
 Frc consts  --      0.1691                 0.1440                 0.0681
 IR Inten    --      3.7245                 9.5090                 5.6572

                     19                     20                     21
                      A                      A                      A
 Frequencies --    299.3036               335.9558               364.0817
 Red. masses --      3.9346                 3.9095                 5.3881
 Frc consts  --      0.2077                 0.2600                 0.4208
 IR Inten    --     24.1765                19.4219                27.3057

                     22                     23                     24
                      A                      A                      A
 Frequencies --    370.5537               405.0287               423.3150
 Red. masses --      4.2382                 5.1661                 2.9814
 Frc consts  --      0.3429                 0.4993                 0.3148
 IR Inten    --      2.1474                 8.8296                 0.1002

                     25                     26                     27
                      A                      A                      A
 Frequencies --    428.3672               437.8224               520.6387
 Red. masses --      2.9107                 5.0073                 3.1718
 Frc consts  --      0.3147                 0.5655                 0.5066
 IR Inten    --      0.4273                 7.5217                40.1113

                     28                     29                     30
                      A                      A                      A
 Frequencies --    538.6619               542.5369               593.4546
 Red. masses --      3.5852                 4.2110                 1.4291
 Frc consts  --      0.6129                 0.7303                 0.2966
 IR Inten    --     51.2117                49.3711                77.4084

                     31                     32                     33
                      A                      A                      A
 Frequencies --    596.2702               630.2338               636.8322
 Red. masses --      3.1030                 3.2188                 5.5300
 Frc consts  --      0.6500                 0.7533                 1.3214
 IR Inten    --     62.5950                29.1346                 4.2798

                     34                     35                     36
                      A                      A                      A
 Frequencies --    640.6354               685.9116               718.7571
 Red. masses --      3.2344                 2.4381                 1.8766
 Frc consts  --      0.7821                 0.6758                 0.5712
 IR Inten    --     11.8113                72.3969                71.7523

                     37                     38                     39
                      A                      A                      A
 Frequencies --    726.1338               733.9144               784.1610
 Red. masses --      3.7078                 1.4913                 1.8417
 Frc consts  --      1.1519                 0.4733                 0.6672
 IR Inten    --     75.3350               195.1675                72.3743

                     40                     41                     42
                      A                      A                      A
 Frequencies --    791.1425               808.8943               843.3881
 Red. masses --      6.5487                 2.6253                 5.4947
 Frc consts  --      2.4150                 1.0121                 2.3028
 IR Inten    --     77.7664                38.8852                49.9327

                     43                     44                     45
                      A                      A                      A
 Frequencies --    861.3295               878.1145               884.0717
 Red. masses --      1.2629                 4.2889                 1.3412
 Frc consts  --      0.5520                 1.9485                 0.6176
 IR Inten    --      0.2065                 6.0930                 0.8118

                     46                     47                     48
                      A                      A                      A
 Frequencies --    933.6800               963.8236               974.3097
 Red. masses --      1.4751                 1.4360                 1.0880
 Frc consts  --      0.7577                 0.7860                 0.6085
 IR Inten    --     13.5578                 3.1216                99.9878

                     49                     50                     51
                      A                      A                      A
 Frequencies --   1001.4636              1017.6489              1018.1864
 Red. masses --      1.3475                 2.1917                 1.3015
 Frc consts  --      0.7962                 1.3373                 0.7950
 IR Inten    --      0.0404                 1.0875                 0.7478

                     52                     53                     54
                      A                      A                      A
 Frequencies --   1019.3134              1021.5938              1027.3561
 Red. masses --      2.6205                 2.5853                 4.0524
 Frc consts  --      1.6042                 1.5897                 2.5200
 IR Inten    --      7.2947                10.4196                 2.8467

                     55                     56                     57
                      A                      A                      A
 Frequencies --   1028.8815              1031.0884              1050.3130
 Red. masses --      1.4327                 1.3462                 1.7290
 Frc consts  --      0.8936                 0.8432                 1.1238
 IR Inten    --    106.2395                 8.1175                23.3577

                     58                     59                     60
                      A                      A                      A
 Frequencies --   1060.3146              1066.7610              1075.8963
 Red. masses --      1.9679                 1.8906                 2.1193
 Frc consts  --      1.3035                 1.2676                 1.4454
 IR Inten    --     32.2383                 5.3429                34.6034

                     61                     62                     63
                      A                      A                      A
 Frequencies --   1096.1462              1111.6831              1119.9664
 Red. masses --      4.0656                 1.5646                 1.6202
 Frc consts  --      2.8781                 1.1392                 1.1974
 IR Inten    --     23.9809                17.2368                26.1990

                     64                     65                     66
                      A                      A                      A
 Frequencies --   1132.9313              1181.7221              1182.4949
 Red. masses --      2.2674                 1.1213                 1.1317
 Frc consts  --      1.7147                 0.9226                 0.9323
 IR Inten    --    164.2485                 3.5396                 0.9041

                     67                     68                     69
                      A                      A                      A
 Frequencies --   1192.4093              1207.7454              1209.6747
 Red. masses --      1.4121                 1.1429                 1.1216
 Frc consts  --      1.1829                 0.9822                 0.9670
 IR Inten    --     27.3327                36.7055                 0.3403

                     70                     71                     72
                      A                      A                      A
 Frequencies --   1247.8387              1275.3456              1303.8154
 Red. masses --      3.6574                 2.7668                 4.4127
 Frc consts  --      3.3553                 2.6515                 4.4197
 IR Inten    --    319.3415               310.5552                37.3930

                     73                     74                     75
                      A                      A                      A
 Frequencies --   1323.7074              1346.1258              1346.2955
 Red. masses --      4.8425                 1.3686                 3.4599
 Frc consts  --      4.9993                 1.4611                 3.6948
 IR Inten    --     90.1815                29.9841               676.5572

                     76                     77                     78
                      A                      A                      A
 Frequencies --   1358.7995              1360.9130              1416.3846
 Red. masses --      1.5078                 1.5957                 1.2892
 Frc consts  --      1.6403                 1.7412                 1.5238
 IR Inten    --      8.2344                13.6658                28.7639

                     79                     80                     81
                      A                      A                      A
 Frequencies --   1448.5102              1463.2571              1477.9810
 Red. masses --      1.6015                 1.3825                 1.9734
 Frc consts  --      1.9798                 1.7441                 2.5398
 IR Inten    --    368.2650               192.1137               278.1512

                     82                     83                     84
                      A                      A                      A
 Frequencies --   1480.7179              1485.8409              1490.3992
 Red. masses --      1.0921                 1.8741                 1.0887
 Frc consts  --      1.4107                 2.4378                 1.4248
 IR Inten    --     31.1270                 5.5045                22.2339

                     85                     86                     87
                      A                      A                      A
 Frequencies --   1498.8641              1508.2591              1541.9570
 Red. masses --      1.5815                 1.0676                 2.3830
 Frc consts  --      2.0934                 1.4309                 3.3383
 IR Inten    --    271.3575                 8.1013                88.0313

                     88                     89                     90
                      A                      A                      A
 Frequencies --   1546.7157              1568.1742              1641.2251
 Red. masses --      2.4756                 2.1043                 2.4952
 Frc consts  --      3.4894                 3.0490                 3.9599
 IR Inten    --    148.0729               653.4835               144.5584

                     91                     92                     93
                      A                      A                      A
 Frequencies --   1644.0727              1659.8679              1669.1762
 Red. masses --      1.7830                 4.4379                 4.9294
 Frc consts  --      2.8396                 7.2041                 8.0918
 IR Inten    --    120.9501                95.3594                68.6817

                     94                     95                     96
                      A                      A                      A
 Frequencies --   1671.8255              1686.5838              3058.3472
 Red. masses --      4.4755                 5.1009                 1.0339
 Frc consts  --      7.3701                 8.5489                 5.6975
 IR Inten    --     23.1650               410.8107                58.9966

                     97                     98                     99
                      A                      A                      A
 Frequencies --   3075.4814              3127.4908              3151.3742
 Red. masses --      1.0360                 1.1031                 1.1019
 Frc consts  --      5.7734                 6.3570                 6.4473
 IR Inten    --      9.9702                13.9832                 9.1529

                    100                    101                    102
                      A                      A                      A
 Frequencies --   3156.3363              3168.0498              3186.2606
 Red. masses --      1.1043                 1.1036                 1.0880
 Frc consts  --      6.4818                 6.5260                 6.5077
 IR Inten    --     22.8636                22.0658                13.5991

                    103                    104                    105
                      A                      A                      A
 Frequencies --   3189.8544              3193.4987              3195.7516
 Red. masses --      1.0863                 1.0879                 1.0883
 Frc consts  --      6.5125                 6.5368                 6.5484
 IR Inten    --      8.8582                 1.3566                 3.0003

                    106                    107                    108
                      A                      A                      A
 Frequencies --   3202.8241              3205.7288              3210.1064
 Red. masses --      1.0913                 1.0931                 1.0951
 Frc consts  --      6.5956                 6.6184                 6.6487
 IR Inten    --     12.7727                29.4114                43.2937

                    109                    110                    111
                      A                      A                      A
 Frequencies --   3220.9239              3220.9904              3265.3488
 Red. masses --      1.0981                 1.0987                 1.0930
 Frc consts  --      6.7118                 6.7162                 6.8667
 IR Inten    --     22.5377                19.6974                 6.3120

                    112                    113                    114
                      A                      A                      A
 Frequencies --   3478.9463              3602.6440              3639.4822
 Red. masses --      1.0564                 1.0921                 1.0763
 Frc consts  --      7.5330                 8.3513                 8.3993
 IR Inten    --     70.1722               105.0101                87.0921

 - Thermochemistry -
 -------------------
 Temperature   298.150 Kelvin.  Pressure   1.00000 Atm.
 Atom     1 has atomic number  6 and mass  12.00000

 Molecular mass:   302.11859 amu.
 Principal axes and moments of inertia in atomic units:
                           1         2         3
     Eigenvalues --  5081.197288716.87872**********
           X            0.99994   0.00653   0.00905
           Y           -0.00629   0.99962  -0.02677
           Z           -0.00922   0.02671   0.99960
 This molecule is an asymmetric top.
 Rotational symmetry number  1.
 Warning -- assumption of classical behavior for rotation
           may cause significant error
 Rotational temperatures (Kelvin)      0.01705     0.00994     0.00737
 Rotational constants (GHZ):           0.35518     0.20704     0.15356
    1 imaginary frequencies ignored.
 Zero-point vibrational energy     865299.6 (Joules/Mol)
                                  206.81156 (Kcal/Mol)
 Warning -- explicit consideration of  30 degrees of freedom as
           vibrations may cause significant error
 Vibrational temperatures:     26.52    41.39    57.89    68.09   100.85
          (Kelvin)            127.19   139.94   152.33   208.33   225.77
                              273.57   290.96   314.29   339.68   367.86
                              379.97   410.07   430.63   483.37   523.83
                              533.14   582.75   609.06   616.32   629.93
                              749.08   775.01   780.59   853.85   857.90
                              906.77   916.26   921.73   986.87  1034.13
                             1044.74  1055.94  1128.23  1138.28  1163.82
                             1213.45  1239.26  1263.41  1271.98  1343.36
                             1386.73  1401.81  1440.88  1464.17  1464.94
                             1466.56  1469.85  1478.14  1480.33  1483.51
                             1511.17  1525.56  1534.83  1547.97  1577.11
                             1599.46  1611.38  1630.04  1700.23  1701.35
                             1715.61  1737.68  1740.45  1795.36  1834.94
                             1875.90  1904.52  1936.77  1937.02  1955.01
                             1958.05  2037.86  2084.08  2105.30  2126.48
                             2130.42  2137.79  2144.35  2156.53  2170.05
                             2218.53  2225.38  2256.25  2361.36  2365.45
                             2388.18  2401.57  2405.38  2426.62  4400.28
                             4424.93  4499.76  4534.12  4541.26  4558.12
                             4584.32  4589.49  4594.73  4597.97  4608.15
                             4612.33  4618.63  4634.19  4634.29  4698.11
                             5005.43  5183.40  5236.40

 Zero-point correction=                           0.329575 (Hartree/Particle)
 Thermal correction to Energy=                    0.349493
 Thermal correction to Enthalpy=                  0.350437
 Thermal correction to Gibbs Free Energy=         0.279044
 Sum of electronic and zero-point Energies=          -1303.874462
 Sum of electronic and thermal Energies=             -1303.854545
 Sum of electronic and thermal Enthalpies=           -1303.853600
 Sum of electronic and thermal Free Energies=        -1303.924993

                     E (Thermal)             CV                S
                      KCal/Mol        Cal/Mol-Kelvin    Cal/Mol-Kelvin
 Total                  219.310             75.658            150.259
 Electronic               0.000              0.000              0.000
 Translational            0.889              2.981             43.014
 Rotational               0.889              2.981             34.608
 Vibrational            217.533             69.696             72.636
 Vibration     1          0.593              1.986              6.796
 Vibration     2          0.593              1.984              5.913
 Vibration     3          0.594              1.981              5.248
 Vibration     4          0.595              1.979              4.926
 Vibration     5          0.598              1.968              4.151
 Vibration     6          0.601              1.957              3.695
 Vibration     7          0.603              1.951              3.508
 Vibration     8          0.605              1.945              3.343
 Vibration     9          0.616              1.908              2.739
 Vibration    10          0.621              1.895              2.587
 Vibration    11          0.633              1.853              2.226
 Vibration    12          0.639              1.837              2.113
 Vibration    13          0.646              1.813              1.972
 Vibration    14          0.655              1.786              1.832
 Vibration    15          0.666              1.753              1.691
 Vibration    16          0.671              1.739              1.635
 Vibration    17          0.683              1.701              1.503
 Vibration    18          0.692              1.675              1.421
 Vibration    19          0.717              1.604              1.231
 Vibration    20          0.738              1.546              1.105
 Vibration    21          0.743              1.533              1.077
 Vibration    22          0.770              1.459              0.944
 Vibration    23          0.785              1.420              0.881
 Vibration    24          0.790              1.408              0.864
 Vibration    25          0.798              1.388              0.833
 Vibration    26          0.876              1.204              0.608
 Vibration    27          0.894              1.165              0.568
 Vibration    28          0.898              1.156              0.560
 Vibration    29          0.951              1.046              0.461
 Vibration    30          0.954              1.040              0.456

 Optimization completed.
    -- Stationary point found.
 Normal termination of Gaussian 16 at Thu Feb 18 01:38:59 2021.
