 Gaussian 16, Revision A.03,
 Gaussian 16:  ES64L-G16RevA.03 25-Dec-2016

 ----------------------------------------------------------------------
 # wB97XD def2tzvp, opt=(ts, noeigen, calcfc, maxcycles=70, maxstep=8),
  freq=noraman, scrf=(iefpcm, solvent=water)
 ----------------------------------------------------------------------

 ------------------------
 1_iteration/TS-576-1.out
 ------------------------
 Symbolic Z-matrix:
 Charge =  0 Multiplicity = 1

 SCF Done:  E(RwB97XD) =  -1017.77147727     A.U. after   15 cycles
 SCF Done:  E(RwB97XD) =  -1017.77258723     A.U. after   12 cycles
 SCF Done:  E(RwB97XD) =  -1017.77320251     A.U. after   12 cycles
 SCF Done:  E(RwB97XD) =  -1017.77325867     A.U. after   12 cycles
 SCF Done:  E(RwB97XD) =  -1017.77326706     A.U. after   10 cycles
 SCF Done:  E(RwB97XD) =  -1017.77326683     A.U. after   10 cycles
 SCF Done:  E(RwB97XD) =  -1017.77326784     A.U. after    9 cycles
 SCF Done:  E(RwB97XD) =  -1017.77326783     A.U. after    7 cycles
 Optimization completed.
    -- Stationary point found.
 Normal termination of Gaussian 16 at Tue Feb 16 17:30:00 2021.

 ---------------------------------------------------------------------
 #N Geom=AllCheck Guess=TCheck SCRF=Check GenChk RwB97XD/def2TZVP Freq
 ---------------------------------------------------------------------

 Structure from the checkpoint file:  "/beegfs/scratch/user/q/tla25/Gau-39447.chk"
 ------------------------
 1_iteration/TS-576-1.out
 ------------------------
 Charge =  0 Multiplicity = 1

                         Standard orientation:
 ---------------------------------------------------------------------
 Center     Atomic      Atomic             Coordinates (Angstroms)
 Number     Number       Type             X           Y           Z
 ---------------------------------------------------------------------
      1          6           0       -0.460746    0.696128   -0.277407
      2          6           0        0.404876   -0.296450    0.265860
      3          8           0        0.005133   -1.313729    0.848922
      4          6           0       -1.830216    0.741900   -0.091215
      5          6           0       -3.930298   -1.320013   -1.022567
      6          1           0       -4.085109   -2.304503   -1.469715
      7          1           0       -4.284357   -1.343315    0.007161
      8          1           0       -4.514722   -0.588350   -1.578296
      9          7           0       -2.527144   -0.928057   -1.031789
     10          1           0       -1.935391   -1.591980   -0.542676
     11          1           0       -2.165972   -0.813462   -1.970677
     12          6           0       -2.647398    1.790713   -0.781044
     13          1           0       -2.317618    1.898010   -1.813936
     14          1           0       -3.707171    1.545927   -0.762547
     15          1           0       -2.510557    2.744513   -0.268824
     16         17           0       -2.500368    0.345008    1.505221
     17          1           0       -0.073369    1.363207   -1.035801
     18          6           0        1.886598   -0.117079    0.065515
     19          6           0        2.705521   -1.243518    0.074329
     20          6           0        4.074961   -1.122750   -0.096330
     21          6           0        4.646159    0.131902   -0.264992
     22          6           0        3.840512    1.261618   -0.263475
     23          6           0        2.468305    1.137057   -0.103888
     24          1           0        2.251875   -2.216142    0.214740
     25          1           0        4.699529   -2.007276   -0.097253
     26          1           0        5.716880    0.228717   -0.393906
     27          1           0        4.281593    2.243092   -0.383536
     28          1           0        1.849926    2.025615   -0.091054
 ---------------------------------------------------------------------

 SCF Done:  E(RwB97XD) =  -1017.77326783     A.U. after    1 cycles

 The electronic state is 1-A.
 Alpha  occ. eigenvalues -- -101.69462 -19.21155 -14.46630 -10.39934 -10.35848
 Alpha  occ. eigenvalues --  -10.31244 -10.29543 -10.29323 -10.29294 -10.29125
 Alpha  occ. eigenvalues --  -10.29105 -10.29081 -10.29024 -10.25829  -9.58057
 Alpha  occ. eigenvalues --   -7.32685  -7.31862  -7.31797  -1.11838  -1.02626
 Alpha  occ. eigenvalues --   -0.97282  -0.96682  -0.87812  -0.86052  -0.85233
 Alpha  occ. eigenvalues --   -0.81551  -0.78169  -0.73096  -0.70527  -0.67239
 Alpha  occ. eigenvalues --   -0.62574  -0.62089  -0.60492  -0.56664  -0.56402
 Alpha  occ. eigenvalues --   -0.55401  -0.54704  -0.53818  -0.52558  -0.51136
 Alpha  occ. eigenvalues --   -0.50580  -0.49960  -0.48611  -0.47988  -0.47163
 Alpha  occ. eigenvalues --   -0.46109  -0.45303  -0.43888  -0.43293  -0.42574
 Alpha  occ. eigenvalues --   -0.39577  -0.37844  -0.33986  -0.33802  -0.32561
 Alpha  occ. eigenvalues --   -0.28744
 Alpha virt. eigenvalues --    0.00699   0.05188   0.06068   0.09736   0.10474
 Alpha virt. eigenvalues --    0.13380   0.14001   0.14763   0.15216   0.16359
 Alpha virt. eigenvalues --    0.16705   0.18291   0.18632   0.19282   0.19664

 Mulliken charges:
               1
     1  C   -0.456970
     2  C    0.331450
     3  O   -0.520040
     4  C    0.220953
     5  C   -0.274129
     6  H    0.147055
     7  H    0.141482
     8  H    0.148631
     9  N   -0.384256
    10  H    0.270616
    11  H    0.271737
    12  C   -0.376587
    13  H    0.147356
    14  H    0.151439
    15  H    0.156369
    16  Cl  -0.117310
    17  H    0.160473
    18  C    0.139766
    19  C   -0.230541
    20  C   -0.130188
    21  C   -0.136064
    22  C   -0.146685
    23  C   -0.241711
    24  H    0.139739
    25  H    0.143299
    26  H    0.146123
    27  H    0.143478
    28  H    0.154517
 Sum of Mulliken charges =  -0.00000

 Dipole moment (field-independent basis, Debye):
    X=             -3.5418    Y=              1.3762    Z=             -6.1897  Tot=              7.2629
 Quadrupole moment (field-independent basis, Debye-Ang):
   XX=            -67.9380   YY=            -84.4803   ZZ=            -92.2213
   XY=              3.7382   XZ=              9.2531   YZ=              2.4843

  Exact polarizability: 303.291   3.890 214.975   1.748  -6.759 160.763
 Approx polarizability: 211.580   3.572 185.079  -2.761  -8.699 142.023

 ******    1 imaginary frequencies (negative Signs) ******

                      1                      2                      3
                      A                      A                      A
 Frequencies --   -370.5827                39.3082                44.1806
 Red. masses --      5.6391                 4.6219                 4.3831
 Frc consts  --      0.4563                 0.0042                 0.0050
 IR Inten    --    865.7902                 2.7180                 2.6355

                      4                      5                      6
                      A                      A                      A
 Frequencies --     64.0963                99.2978               120.0742
 Red. masses --      2.9545                 2.2420                 5.8266
 Frc consts  --      0.0072                 0.0130                 0.0495
 IR Inten    --      5.6809                 6.2653                17.9756

                      7                      8                      9
                      A                      A                      A
 Frequencies --    148.0414               161.1533               175.4575
 Red. masses --      2.7374                 4.6117                 1.9337
 Frc consts  --      0.0353                 0.0706                 0.0351
 IR Inten    --      7.1549                 1.1426                 1.5476

                     10                     11                     12
                      A                      A                      A
 Frequencies --    218.4233               233.3431               253.3142
 Red. masses --      3.4086                 1.1592                 2.2825
 Frc consts  --      0.0958                 0.0372                 0.0863
 IR Inten    --     19.5654                 2.5288                 4.6453

                     13                     14                     15
                      A                      A                      A
 Frequencies --    286.1720               319.1589               363.8311
 Red. masses --      3.8935                 3.5646                 5.0923
 Frc consts  --      0.1879                 0.2139                 0.3972
 IR Inten    --      9.5841                 8.7169                 6.4335

                     16                     17                     18
                      A                      A                      A
 Frequencies --    407.1678               421.7283               440.5621
 Red. masses --      4.4883                 2.9163                 4.9276
 Frc consts  --      0.4384                 0.3056                 0.5635
 IR Inten    --     20.2478                 0.2581                13.3073

                     19                     20                     21
                      A                      A                      A
 Frequencies --    463.5677               509.6113               608.7941
 Red. masses --      3.5753                 4.6417                 2.2432
 Frc consts  --      0.4527                 0.7102                 0.4899
 IR Inten    --    108.7026                18.3500                22.2297

                     22                     23                     24
                      A                      A                      A
 Frequencies --    635.9013               652.1480               689.4901
 Red. masses --      6.2876                 1.5812                 3.8262
 Frc consts  --      1.4980                 0.3962                 1.0717
 IR Inten    --      0.6548                51.3319                32.0097

                     25                     26                     27
                      A                      A                      A
 Frequencies --    711.5110               722.7121               749.1004
 Red. masses --      2.1694                 1.5707                 1.9642
 Frc consts  --      0.6471                 0.4834                 0.6494
 IR Inten    --     46.3699                45.1483               227.9771

                     28                     29                     30
                      A                      A                      A
 Frequencies --    833.5381               876.1258               882.6747
 Red. masses --      3.0462                 6.3718                 1.2501
 Frc consts  --      1.2470                 2.8817                 0.5738
 IR Inten    --     26.5232                28.8436                 0.3247

                     31                     32                     33
                      A                      A                      A
 Frequencies --    970.4421               998.2476               999.0405
 Red. masses --      1.4934                 1.4792                 1.3146
 Frc consts  --      0.8287                 0.8684                 0.7731
 IR Inten    --     14.3454                14.7259               196.4185

                     34                     35                     36
                      A                      A                      A
 Frequencies --   1018.7888              1022.4943              1026.2900
 Red. masses --      1.3773                 1.1552                 5.6143
 Frc consts  --      0.8423                 0.7116                 3.4840
 IR Inten    --      8.3048                87.9226                 1.1145

                     37                     38                     39
                      A                      A                      A
 Frequencies --   1034.3625              1047.8149              1058.8810
 Red. masses --      1.3193                 1.6073                 2.0566
 Frc consts  --      0.8317                 1.0397                 1.3586
 IR Inten    --      0.5426               100.9180                13.8803

                     40                     41                     42
                      A                      A                      A
 Frequencies --   1084.4584              1105.2339              1125.2384
 Red. masses --      3.6727                 1.5571                 1.9860
 Frc consts  --      2.5448                 1.1207                 1.4816
 IR Inten    --     77.0629                29.5393                29.1985

                     43                     44                     45
                      A                      A                      A
 Frequencies --   1134.7417              1183.5441              1195.8477
 Red. masses --      3.4501                 1.1369                 1.4100
 Frc consts  --      2.6175                 0.9383                 1.1880
 IR Inten    --     58.8054                 1.8876                34.9240

                     46                     47                     48
                      A                      A                      A
 Frequencies --   1201.5844              1255.3589              1323.7754
 Red. masses --      1.1374                 2.0135                 2.7362
 Frc consts  --      0.9675                 1.8695                 2.8251
 IR Inten    --     28.1677               514.6256                26.7679

                     49                     50                     51
                      A                      A                      A
 Frequencies --   1340.6432              1347.2362              1354.4715
 Red. masses --      1.9805                 1.9669                 1.5856
 Frc consts  --      2.0973                 2.1034                 1.7139
 IR Inten    --     22.2143                 2.4411                13.7008

                     52                     53                     54
                      A                      A                      A
 Frequencies --   1416.4804              1454.7556              1474.7477
 Red. masses --      1.2801                 1.2011                 1.0484
 Frc consts  --      1.5133                 1.4977                 1.3434
 IR Inten    --      9.9874                72.3762                 4.7391

                     55                     56                     57
                      A                      A                      A
 Frequencies --   1479.6646              1487.9468              1491.1776
 Red. masses --      1.2048                 1.8668                 1.0497
 Frc consts  --      1.5542                 2.4352                 1.3752
 IR Inten    --    163.5280                71.5050                10.6927

                     58                     59                     60
                      A                      A                      A
 Frequencies --   1504.8342              1514.9219              1539.9427
 Red. masses --      1.0652                 2.9643                 2.3895
 Frc consts  --      1.4212                 4.0082                 3.3386
 IR Inten    --     77.4260              1192.4048               100.2820

                     61                     62                     63
                      A                      A                      A
 Frequencies --   1635.1174              1649.9808              1665.5052
 Red. masses --      7.0357                 1.0907                 7.1120
 Frc consts  --     11.0829                 1.7496                11.6234
 IR Inten    --    255.6086                50.7593               153.2619

                     64                     65                     66
                      A                      A                      A
 Frequencies --   1673.5179              3054.3798              3069.6835
 Red. masses --      6.1965                 1.0375                 1.0366
 Frc consts  --     10.2248                 5.7026                 5.7549
 IR Inten    --     31.1243                70.8536                 8.7615

                     67                     68                     69
                      A                      A                      A
 Frequencies --   3129.5196              3145.7240              3158.9230
 Red. masses --      1.0994                 1.1012                 1.1053
 Frc consts  --      6.3437                 6.4203                 6.4984
 IR Inten    --     19.3459                10.8052                18.7594

                     70                     71                     72
                      A                      A                      A
 Frequencies --   3168.3451              3194.0525              3200.9589
 Red. masses --      1.1036                 1.0859                 1.0887
 Frc consts  --      6.5270                 6.5271                 6.5722
 IR Inten    --     14.0798                 1.0402                 4.7072

                     73                     74                     75
                      A                      A                      A
 Frequencies --   3207.9831              3212.3131              3218.1633
 Red. masses --      1.0908                 1.0897                 1.0939
 Frc consts  --      6.6140                 6.6251                 6.6751
 IR Inten    --     12.0625                 9.0285                26.6334

                     76                     77                     78
                      A                      A                      A
 Frequencies --   3223.5226              3512.1762              3603.1735
 Red. masses --      1.0978                 1.0524                 1.0952
 Frc consts  --      6.7210                 7.6489                 8.3776
 IR Inten    --     18.1326                21.9603                48.4452

 - Thermochemistry -
 -------------------
 Temperature   298.150 Kelvin.  Pressure   1.00000 Atm.
 Atom     1 has atomic number  6 and mass  12.00000

 Molecular mass:   211.07639 amu.
 Principal axes and moments of inertia in atomic units:
                           1         2         3
     Eigenvalues --  1330.298456343.782836655.32900
           X            0.99984   0.00505   0.01725
           Y           -0.00469   0.99976  -0.02117
           Z           -0.01735   0.02109   0.99963
 This molecule is an asymmetric top.
 Rotational symmetry number  1.
 Warning -- assumption of classical behavior for rotation
           may cause significant error
 Rotational temperatures (Kelvin)      0.06511     0.01365     0.01301
 Rotational constants (GHZ):           1.35664     0.28449     0.27117
    1 imaginary frequencies ignored.
 Zero-point vibrational energy     604392.2 (Joules/Mol)
                                  144.45321 (Kcal/Mol)
 Warning -- explicit consideration of  20 degrees of freedom as
           vibrations may cause significant error
 Vibrational temperatures:     56.56    63.57    92.22   142.87   172.76
          (Kelvin)            213.00   231.86   252.44   314.26   335.73
                              364.46   411.74   459.20   523.47   585.82
                              606.77   633.87   666.97   733.22   875.92
                              914.92   938.30   992.02  1023.71  1039.82
                             1077.79  1199.28  1260.55  1269.97  1396.25
                             1436.26  1437.40  1465.81  1471.14  1476.60
                             1488.22  1507.57  1523.49  1560.29  1590.19
                             1618.97  1632.64  1702.86  1720.56  1728.81
                             1806.18  1904.62  1928.89  1938.37  1948.78
                             2038.00  2093.07  2121.83  2128.91  2140.82
                             2145.47  2165.12  2179.63  2215.63  2352.57
                             2373.95  2396.29  2407.82  4394.57  4416.59
                             4502.68  4526.00  4544.99  4558.54  4595.53
                             4605.47  4615.57  4621.80  4630.22  4637.93
                             5053.24  5184.16

 Zero-point correction=                           0.230201 (Hartree/Particle)
 Thermal correction to Energy=                    0.244490
 Thermal correction to Enthalpy=                  0.245434
 Thermal correction to Gibbs Free Energy=         0.187980
 Sum of electronic and zero-point Energies=          -1017.543067
 Sum of electronic and thermal Energies=             -1017.528778
 Sum of electronic and thermal Enthalpies=           -1017.527834
 Sum of electronic and thermal Free Energies=        -1017.585288

                     E (Thermal)             CV                S
                      KCal/Mol        Cal/Mol-Kelvin    Cal/Mol-Kelvin
 Total                  153.420             52.732            120.922
 Electronic               0.000              0.000              0.000
 Translational            0.889              2.981             41.945
 Rotational               0.889              2.981             32.396
 Vibrational            151.642             46.770             46.581
 Vibration     1          0.594              1.981              5.294
 Vibration     2          0.595              1.980              5.062
 Vibration     3          0.597              1.971              4.327
 Vibration     4          0.604              1.950              3.468
 Vibration     5          0.609              1.933              3.099
 Vibration     6          0.617              1.905              2.697
 Vibration     7          0.622              1.890              2.536
 Vibration     8          0.627              1.873              2.376
 Vibration     9          0.646              1.813              1.972
 Vibration    10          0.654              1.790              1.853
 Vibration    11          0.664              1.757              1.707
 Vibration    12          0.684              1.699              1.496
 Vibration    13          0.705              1.637              1.314
 Vibration    14          0.737              1.547              1.106
 Vibration    15          0.772              1.455              0.937
 Vibration    16          0.784              1.423              0.886
 Vibration    17          0.800              1.382              0.825
 Vibration    18          0.821              1.331              0.756
 Vibration    19          0.865              1.229              0.635
 Vibration    20          0.968              1.013              0.435

 Optimization completed.
    -- Stationary point found.
 Normal termination of Gaussian 16 at Tue Feb 16 18:11:48 2021.
