 Gaussian 16, Revision A.03,
 Gaussian 16:  ES64L-G16RevA.03 25-Dec-2016

 ----------------------------------------------------------------------
 # wB97XD def2tzvp, opt=(ts, noeigen, calcfc, maxcycles=70, maxstep=5),
  freq=noraman, scrf=(iefpcm, solvent=water)
 ----------------------------------------------------------------------

 ------------------------
 2_iteration/TS-512-2.out
 ------------------------
 Symbolic Z-matrix:
 Charge =  0 Multiplicity = 1

 SCF Done:  E(RwB97XD) =  -3171.09255329     A.U. after   15 cycles
 SCF Done:  E(RwB97XD) =  -3171.09255385     A.U. after   10 cycles
 SCF Done:  E(RwB97XD) =  -3171.09255369     A.U. after    7 cycles
 Optimization completed on the basis of negligible forces.
    -- Stationary point found.
 Normal termination of Gaussian 16 at Wed Feb 17 12:53:13 2021.

 ---------------------------------------------------------------------
 #N Geom=AllCheck Guess=TCheck SCRF=Check GenChk RwB97XD/def2TZVP Freq
 ---------------------------------------------------------------------

 Structure from the checkpoint file:  "/beegfs/scratch/user/q/tla25/Gau-107934.chk"
 ------------------------
 2_iteration/TS-512-2.out
 ------------------------
 Charge =  0 Multiplicity = 1

                         Standard orientation:
 ---------------------------------------------------------------------
 Center     Atomic      Atomic             Coordinates (Angstroms)
 Number     Number       Type             X           Y           Z
 ---------------------------------------------------------------------
      1          6           0        0.796856   -0.401777    0.205875
      2          6           0       -0.282088   -1.245507   -0.177491
      3          8           0       -0.146688   -2.403271   -0.591728
      4          6           0        0.801841    0.912029    0.724128
      5          6           0        1.066764    3.530560   -0.799233
      6          1           0        1.003511    4.010079   -1.777504
      7          1           0        0.326039    3.979765   -0.139955
      8          1           0        2.058625    3.704396   -0.387085
      9          7           0        0.826148    2.090859   -0.885521
     10          1           0       -0.080098    1.895632   -1.295048
     11          1           0        1.521239    1.634696   -1.465311
     12          6           0        2.063939    1.425855    1.376368
     13          1           0        2.238036    0.846661    2.286134
     14          1           0        2.939749    1.318742    0.742490
     15          1           0        1.952110    2.470319    1.660000
     16          6           0       -0.427043    1.497794    1.388453
     17          1           0       -0.620920    0.947089    2.310282
     18          1           0       -0.238205    2.536479    1.653744
     19          1           0       -1.321602    1.453764    0.778302
     20         35           0        2.511666   -1.203071   -0.179991
     21          6           0       -1.698574   -0.739615   -0.111363
     22          6           0       -2.506057   -1.045773    0.977085
     23          6           0       -3.823612   -0.615844    1.009455
     24          6           0       -4.346611    0.112100   -0.051212
     25          6           0       -3.550357    0.396065   -1.151532
     26          6           0       -2.230880   -0.032264   -1.182904
     27          1           0       -2.095231   -1.603447    1.810031
     28          1           0       -4.443918   -0.846340    1.866465
     29          1           0       -5.374186    0.451344   -0.022528
     30          1           0       -3.956009    0.952079   -1.987264
     31          1           0       -1.612026    0.184654   -2.046362
 ---------------------------------------------------------------------

 SCF Done:  E(RwB97XD) =  -3171.09255369     A.U. after    1 cycles

 The electronic state is 1-A.
 Alpha  occ. eigenvalues -- -483.11461 -62.66304 -56.45401 -56.45080 -56.45062
 Alpha  occ. eigenvalues --  -19.21013 -14.47719 -10.36722 -10.36198 -10.31733
 Alpha  occ. eigenvalues --  -10.30900 -10.30147 -10.29504 -10.29423 -10.29383
 Alpha  occ. eigenvalues --  -10.29298 -10.29194 -10.28451 -10.28371  -8.80419
 Alpha  occ. eigenvalues --   -6.62509  -6.61486  -6.61433  -2.72909  -2.72618
 Alpha  occ. eigenvalues --   -2.72577  -2.71747  -2.71747  -1.11911  -1.03373
 Alpha  occ. eigenvalues --   -0.97067  -0.94187  -0.87509  -0.86761  -0.85535
 Alpha  occ. eigenvalues --   -0.80670  -0.79202  -0.78395  -0.72094  -0.70873
 Alpha  occ. eigenvalues --   -0.67942  -0.63138  -0.62622  -0.59401  -0.57469
 Alpha  occ. eigenvalues --   -0.56398  -0.55704  -0.55014  -0.53791  -0.53213
 Alpha  occ. eigenvalues --   -0.51391  -0.50819  -0.50120  -0.48666  -0.48356
 Alpha  occ. eigenvalues --   -0.47851  -0.47021  -0.46656  -0.45540  -0.43987
 Alpha  occ. eigenvalues --   -0.42994  -0.42889  -0.40582  -0.38148  -0.36170
 Alpha  occ. eigenvalues --   -0.34527  -0.34243  -0.31656  -0.27921
 Alpha virt. eigenvalues --    0.03364   0.04599   0.04924   0.08616   0.09747
 Alpha virt. eigenvalues --    0.12653   0.13119   0.13982   0.14476   0.15109
 Alpha virt. eigenvalues --    0.16030   0.16416   0.17431   0.18005   0.18532

 Mulliken charges:
               1
     1  C   -0.169089
     2  C    0.203490
     3  O   -0.489239
     4  C    0.092722
     5  C   -0.296380
     6  H    0.154435
     7  H    0.154800
     8  H    0.160246
     9  N   -0.347214
    10  H    0.262636
    11  H    0.279481
    12  C   -0.375166
    13  H    0.157513
    14  H    0.154587
    15  H    0.147396
    16  C   -0.375088
    17  H    0.155683
    18  H    0.149467
    19  H    0.163370
    20  Br  -0.178896
    21  C    0.197342
    22  C   -0.252836
    23  C   -0.120419
    24  C   -0.162646
    25  C   -0.121163
    26  C   -0.295396
    27  H    0.146896
    28  H    0.145300
    29  H    0.145947
    30  H    0.146066
    31  H    0.166157
 Sum of Mulliken charges =  -0.00000

 Dipole moment (field-independent basis, Debye):
    X=             -1.3196    Y=             12.6675    Z=              0.4931  Tot=             12.7456
 Quadrupole moment (field-independent basis, Debye-Ang):
   XX=            -97.6894   YY=           -105.3170   ZZ=            -94.6441
   XY=              5.9962   XZ=             -2.1392   YZ=            -10.4755

  Exact polarizability: 273.361  -5.266 256.018  -6.391 -11.383 211.755
 Approx polarizability: 209.158  -8.137 204.673  -6.006  -9.429 184.369

 ******    1 imaginary frequencies (negative Signs) ******

                      1                      2                      3
                      A                      A                      A
 Frequencies --   -321.7560                21.8138                36.3028
 Red. masses --      5.7289                 2.6214                 4.8347
 Frc consts  --      0.3494                 0.0007                 0.0038
 IR Inten    --    821.1967                 0.0513                 3.3498

                      4                      5                      6
                      A                      A                      A
 Frequencies --     59.0264                67.1271                71.8535
 Red. masses --      3.6801                 3.1039                 4.5909
 Frc consts  --      0.0076                 0.0082                 0.0140
 IR Inten    --      2.4935                 3.0596                 1.4043

                      7                      8                      9
                      A                      A                      A
 Frequencies --    104.0129               172.7548               187.9098
 Red. masses --      4.1949                 1.3297                 6.3784
 Frc consts  --      0.0267                 0.0234                 0.1327
 IR Inten    --     11.1474                 0.3297                 3.6409

                     10                     11                     12
                      A                      A                      A
 Frequencies --    196.3325               215.4219               238.3476
 Red. masses --      3.4915                 1.7857                 2.5961
 Frc consts  --      0.0793                 0.0488                 0.0869
 IR Inten    --      0.5114                 1.0253                 8.4929

                     13                     14                     15
                      A                      A                      A
 Frequencies --    248.3095               262.1567               283.9290
 Red. masses --      1.9988                 2.6925                 1.8794
 Frc consts  --      0.0726                 0.1090                 0.0893
 IR Inten    --      2.5506                 7.1192                 7.5506

                     16                     17                     18
                      A                      A                      A
 Frequencies --    296.2751               345.9372               365.9787
 Red. masses --      1.7103                 4.2584                 4.4689
 Frc consts  --      0.0885                 0.3003                 0.3527
 IR Inten    --      2.9344                13.2330                19.4900

                     19                     20                     21
                      A                      A                      A
 Frequencies --    389.2955               414.9509               444.0499
 Red. masses --      2.8473                 2.8599                 2.7736
 Frc consts  --      0.2542                 0.2901                 0.3222
 IR Inten    --      3.0931                 0.4372                13.2291

                     22                     23                     24
                      A                      A                      A
 Frequencies --    497.0313               542.8367               607.3028
 Red. masses --      4.0889                 3.6093                 4.0710
 Frc consts  --      0.5951                 0.6266                 0.8846
 IR Inten    --    142.9379                18.2799                40.2786

                     25                     26                     27
                      A                      A                      A
 Frequencies --    633.5924               635.1210               663.2822
 Red. masses --      1.4417                 4.1669                 4.2635
 Frc consts  --      0.3410                 0.9903                 1.1051
 IR Inten    --     38.6374                 6.0148                64.6587

                     28                     29                     30
                      A                      A                      A
 Frequencies --    728.7764               779.8779               787.5302
 Red. masses --      1.5174                 9.3461                 3.7844
 Frc consts  --      0.4748                 3.3492                 1.3829
 IR Inten    --     90.4241                24.0139                72.7635

                     31                     32                     33
                      A                      A                      A
 Frequencies --    828.2902               880.5594               896.9432
 Red. masses --      3.1949                 1.2539                 3.2718
 Frc consts  --      1.2914                 0.5728                 1.5508
 IR Inten    --     77.6486                 0.4726                24.1772

                     34                     35                     36
                      A                      A                      A
 Frequencies --    956.8814               960.0805              1008.5033
 Red. masses --      1.4510                 1.3529                 1.1316
 Frc consts  --      0.7827                 0.7347                 0.6781
 IR Inten    --     18.9350                 9.4456                 0.1056

                     37                     38                     39
                      A                      A                      A
 Frequencies --   1012.7248              1025.7115              1031.4885
 Red. masses --      1.3681                 5.2417                 1.2516
 Frc consts  --      0.8267                 3.2492                 0.7846
 IR Inten    --      1.9480                 6.1683               134.6529

                     40                     41                     42
                      A                      A                      A
 Frequencies --   1033.5980              1037.3778              1055.8362
 Red. masses --      1.2082                 1.3121                 2.3648
 Frc consts  --      0.7605                 0.8319                 1.5532
 IR Inten    --    119.7781                 3.8710                23.3621

                     43                     44                     45
                      A                      A                      A
 Frequencies --   1059.5702              1074.3612              1108.6934
 Red. masses --      3.0656                 1.8644                 1.8712
 Frc consts  --      2.0278                 1.2679                 1.3552
 IR Inten    --    160.9020                 8.4684                27.3886

                     46                     47                     48
                      A                      A                      A
 Frequencies --   1110.7175              1171.7138              1183.9132
 Red. masses --      1.5654                 3.1074                 1.1417
 Frc consts  --      1.1379                 2.5135                 0.9428
 IR Inten    --     22.7022                 8.9300                 0.0402

                     49                     50                     51
                      A                      A                      A
 Frequencies --   1205.9313              1223.0962              1239.4098
 Red. masses --      1.1228                 1.4018                 3.7145
 Frc consts  --      0.9620                 1.2356                 3.3618
 IR Inten    --      0.5583                28.8828                 3.9133

                     52                     53                     54
                      A                      A                      A
 Frequencies --   1317.4875              1348.6789              1356.2809
 Red. masses --      4.2822                 1.4759                 2.5954
 Frc consts  --      4.3793                 1.5817                 2.8129
 IR Inten    --      2.0794                13.7841                55.4391

                     55                     56                     57
                      A                      A                      A
 Frequencies --   1359.8011              1409.6237              1413.3272
 Red. masses --      1.7093                 1.5867                 1.9499
 Frc consts  --      1.8621                 1.8576                 2.2949
 IR Inten    --     20.8591               321.9567               685.5529

                     58                     59                     60
                      A                      A                      A
 Frequencies --   1427.3737              1465.4956              1476.9405
 Red. masses --      1.2924                 1.2417                 1.0564
 Frc consts  --      1.5514                 1.5712                 1.3577
 IR Inten    --    140.6071                61.8137                 9.6864

                     61                     62                     63
                      A                      A                      A
 Frequencies --   1486.8980              1488.0481              1492.9422
 Red. masses --      1.0608                 2.0769                 1.0924
 Frc consts  --      1.3818                 2.7096                 1.4345
 IR Inten    --      2.2183                 5.0860                53.8932

                     64                     65                     66
                      A                      A                      A
 Frequencies --   1504.7530              1511.2032              1516.2481
 Red. masses --      1.1413                 1.0385                 1.0626
 Frc consts  --      1.5226                 1.3973                 1.4394
 IR Inten    --     94.1543                29.0646                15.6446

                     67                     68                     69
                      A                      A                      A
 Frequencies --   1541.4087              1618.3653              1643.4252
 Red. masses --      2.3607                10.8682                 1.1206
 Frc consts  --      3.3047                16.7711                 1.7832
 IR Inten    --     12.1943               771.5457                23.9332

                     70                     71                     72
                      A                      A                      A
 Frequencies --   1649.2146              1674.1400              3064.1463
 Red. masses --      5.1790                 5.8928                 1.0360
 Frc consts  --      8.2995                 9.7310                 5.7307
 IR Inten    --      0.5972                 1.4655                55.0847

                     73                     74                     75
                      A                      A                      A
 Frequencies --   3069.9729              3080.3173              3140.0468
 Red. masses --      1.0408                 1.0413                 1.1018
 Frc consts  --      5.7793                 5.8211                 6.4008
 IR Inten    --      7.7594                21.7857                18.0893

                     76                     77                     78
                      A                      A                      A
 Frequencies --   3143.0992              3149.4208              3167.1578
 Red. masses --      1.0988                 1.0987                 1.1056
 Frc consts  --      6.3954                 6.4211                 6.5339
 IR Inten    --      2.3596                46.8700                18.6542

                     79                     80                     81
                      A                      A                      A
 Frequencies --   3179.7864              3184.6764              3194.1632
 Red. masses --      1.1027                 1.0887                 1.0872
 Frc consts  --      6.5693                 6.5059                 6.5355
 IR Inten    --     15.7514                 9.1248                 2.1098

                     82                     83                     84
                      A                      A                      A
 Frequencies --   3202.0346              3203.1727              3211.8329
 Red. masses --      1.0984                 1.0906                 1.0948
 Frc consts  --      6.6352                 6.5930                 6.6543
 IR Inten    --      5.3716                 4.6179                34.5615

                     85                     86                     87
                      A                      A                      A
 Frequencies --   3222.7552              3524.0078              3604.2463
 Red. masses --      1.0987                 1.0509                 1.0956
 Frc consts  --      6.7236                 7.6896                 8.3858
 IR Inten    --     20.0339                10.8876                45.8673

 - Thermochemistry -
 -------------------
 Temperature   298.150 Kelvin.  Pressure   1.00000 Atm.
 Atom     1 has atomic number  6 and mass  12.00000

 Molecular mass:   269.04153 amu.
 Principal axes and moments of inertia in atomic units:
                           1         2         3
     Eigenvalues --  2747.093825672.696707164.75032
           X            0.99838   0.05672   0.00383
           Y           -0.05665   0.99825  -0.01708
           Z           -0.00479   0.01684   0.99985
 This molecule is an asymmetric top.
 Rotational symmetry number  1.
 Warning -- assumption of classical behavior for rotation
           may cause significant error
 Rotational temperatures (Kelvin)      0.03153     0.01527     0.01209
 Rotational constants (GHZ):           0.65696     0.31815     0.25189
    1 imaginary frequencies ignored.
 Zero-point vibrational energy     678552.0 (Joules/Mol)
                                  162.17781 (Kcal/Mol)
 Warning -- explicit consideration of  23 degrees of freedom as
           vibrations may cause significant error
 Vibrational temperatures:     31.39    52.23    84.93    96.58   103.38
          (Kelvin)            149.65   248.56   270.36   282.48   309.94
                              342.93   357.26   377.19   408.51   426.27
                              497.73   526.56   560.11   597.02   638.89
                              715.12   781.02   873.77   911.60   913.80
                              954.32  1048.55  1122.07  1133.08  1191.72
                             1266.93  1290.50  1376.74  1381.34  1451.01
                             1457.09  1475.77  1484.08  1487.12  1492.56
                             1519.11  1524.49  1545.77  1595.16  1598.07
                             1685.83  1703.39  1735.07  1759.76  1783.23
                             1895.57  1940.45  1951.39  1956.45  2028.13
                             2033.46  2053.67  2108.52  2124.99  2139.31
                             2140.97  2148.01  2165.00  2174.28  2181.54
                             2217.74  2328.47  2364.52  2372.85  2408.71
                             4408.62  4417.01  4431.89  4517.83  4522.22
                             4531.31  4556.83  4575.00  4582.04  4595.69
                             4607.01  4608.65  4621.11  4636.83  5070.26
                             5185.71

 Zero-point correction=                           0.258447 (Hartree/Particle)
 Thermal correction to Energy=                    0.274438
 Thermal correction to Enthalpy=                  0.275382
 Thermal correction to Gibbs Free Energy=         0.212958
 Sum of electronic and zero-point Energies=          -3170.834107
 Sum of electronic and thermal Energies=             -3170.818116
 Sum of electronic and thermal Enthalpies=           -3170.817171
 Sum of electronic and thermal Free Energies=        -3170.879596

                     E (Thermal)             CV                S
                      KCal/Mol        Cal/Mol-Kelvin    Cal/Mol-Kelvin
 Total                  172.213             58.421            131.383
 Electronic               0.000              0.000              0.000
 Translational            0.889              2.981             42.668
 Rotational               0.889              2.981             33.079
 Vibrational            170.435             52.460             55.636
 Vibration     1          0.593              1.985              6.462
 Vibration     2          0.594              1.982              5.451
 Vibration     3          0.596              1.974              4.489
 Vibration     4          0.598              1.970              4.236
 Vibration     5          0.598              1.967              4.102
 Vibration     6          0.605              1.946              3.378
 Vibration     7          0.626              1.876              2.405
 Vibration     8          0.633              1.856              2.248
 Vibration     9          0.636              1.845              2.167
 Vibration    10          0.645              1.818              1.997
 Vibration    11          0.656              1.782              1.815
 Vibration    12          0.662              1.766              1.743
 Vibration    13          0.669              1.742              1.647
 Vibration    14          0.682              1.703              1.510
 Vibration    15          0.690              1.681              1.438
 Vibration    16          0.724              1.584              1.185
 Vibration    17          0.739              1.542              1.097
 Vibration    18          0.757              1.493              1.003
 Vibration    19          0.778              1.438              0.909
 Vibration    20          0.804              1.374              0.814
 Vibration    21          0.853              1.257              0.666
 Vibration    22          0.898              1.155              0.559
 Vibration    23          0.966              1.016              0.437

 Optimization completed.
    -- Stationary point found.
 Normal termination of Gaussian 16 at Wed Feb 17 14:05:36 2021.
