 Gaussian 16, Revision A.03,
 Gaussian 16:  ES64L-G16RevA.03 25-Dec-2016

 ----------------------------------------------------------------------
 # wB97XD def2tzvp, opt=(ts, noeigen, calcfc, maxcycles=70, maxstep=8),
  freq=noraman, scrf=(iefpcm, solvent=water)
 ----------------------------------------------------------------------

 ------------------------
 1_iteration/TS-587-1.out
 ------------------------
 Symbolic Z-matrix:
 Charge =  0 Multiplicity = 1

 SCF Done:  E(RwB97XD) =  -3415.71156546     A.U. after   15 cycles
 SCF Done:  E(RwB97XD) =  -3415.71156531     A.U. after    7 cycles
 Optimization completed.
    -- Stationary point found.
 Normal termination of Gaussian 16 at Fri Apr 16 08:13:13 2021.

 ---------------------------------------------------------------------
 #N Geom=AllCheck Guess=TCheck SCRF=Check GenChk RwB97XD/def2TZVP Freq
 ---------------------------------------------------------------------

 Structure from the checkpoint file:  "/beegfs/scratch/user/q/tla25/Gau-176662.chk"
 ------------------------
 1_iteration/TS-587-1.out
 ------------------------
 Charge =  0 Multiplicity = 1

                         Standard orientation:
 ---------------------------------------------------------------------
 Center     Atomic      Atomic             Coordinates (Angstroms)
 Number     Number       Type             X           Y           Z
 ---------------------------------------------------------------------
      1          6           0        0.252261    0.311814   -0.242722
      2          6           0        0.293854    1.717022    0.127557
      3          8           0        1.343634    2.322419    0.343644
      4          6           0       -0.853745   -0.518197   -0.378255
      5          6           0       -0.851862   -0.998472    2.404983
      6          1           0       -1.297060   -0.828767    3.384908
      7          1           0       -0.571953   -2.045621    2.315694
      8          1           0        0.040235   -0.379289    2.307745
      9          7           0       -1.774340   -0.644945    1.332552
     10          1           0       -2.554656   -1.288592    1.264535
     11          1           0       -2.148372    0.286962    1.473464
     12          6           0       -0.712501   -1.979259   -0.702681
     13          1           0       -0.058853   -2.471595    0.013959
     14          1           0       -1.684654   -2.466446   -0.701164
     15          1           0       -0.272001   -2.086200   -1.694262
     16         17           0       -2.286242    0.132733   -1.277421
     17         35           0        1.976010   -0.521508   -0.243289
     18          7           0       -0.903043    2.367786    0.326456
     19          1           0       -1.717480    2.075417   -0.186372
     20          1           0       -0.804877    3.363760    0.437267
 ---------------------------------------------------------------------

 SCF Done:  E(RwB97XD) =  -3415.71156531     A.U. after    1 cycles

 The electronic state is 1-A.
 Alpha  occ. eigenvalues -- -483.12138-101.70578 -62.66970 -56.46085 -56.45732
 Alpha  occ. eigenvalues --  -56.45725 -19.20584 -14.49051 -14.44047 -10.41479
 Alpha  occ. eigenvalues --  -10.38918 -10.31975 -10.31291 -10.29587  -9.59192
 Alpha  occ. eigenvalues --   -8.81084  -7.33808  -7.32983  -7.32952  -6.63231
 Alpha  occ. eigenvalues --   -6.62103  -6.62082  -2.73620  -2.73291  -2.73275
 Alpha  occ. eigenvalues --   -2.72363  -2.72362  -1.13425  -1.04921  -1.00049
 Alpha  occ. eigenvalues --   -0.97782  -0.91336  -0.85131  -0.80412  -0.79263
 Alpha  occ. eigenvalues --   -0.70843  -0.64560  -0.63623  -0.60739  -0.58643
 Alpha  occ. eigenvalues --   -0.58442  -0.55689  -0.52987  -0.51617  -0.50464
 Alpha  occ. eigenvalues --   -0.49826  -0.48765  -0.47962  -0.45582  -0.44836
 Alpha  occ. eigenvalues --   -0.40990  -0.39780  -0.39152  -0.37040  -0.35885
 Alpha  occ. eigenvalues --   -0.33978  -0.27970
 Alpha virt. eigenvalues --    0.03115   0.06021   0.09705   0.10619   0.13909
 Alpha virt. eigenvalues --    0.14314   0.14883   0.16224   0.16959   0.17965
 Alpha virt. eigenvalues --    0.19173   0.19491   0.20423   0.21292   0.22457

 Mulliken charges:
               1
     1  C   -0.203772
     2  C    0.262690
     3  O   -0.502038
     4  C    0.126909
     5  C   -0.303761
     6  H    0.162031
     7  H    0.162596
     8  H    0.159372
     9  N   -0.327184
    10  H    0.291621
    11  H    0.279084
    12  C   -0.373122
    13  H    0.154268
    14  H    0.155534
    15  H    0.166361
    16  Cl  -0.123160
    17  Br  -0.133634
    18  N   -0.472075
    19  H    0.253570
    20  H    0.264710
 Sum of Mulliken charges =  -0.00000

 Dipole moment (field-independent basis, Debye):
    X=             -9.4080    Y=             -5.0824    Z=              3.3867  Tot=             11.2165
 Quadrupole moment (field-independent basis, Debye-Ang):
   XX=            -79.3500   YY=            -77.1478   ZZ=            -74.8039
   XY=             -6.4578   XZ=             -7.5913   YZ=             -4.1859

  Exact polarizability: 188.589   8.380 160.588   0.184  -1.694 136.929
 Approx polarizability: 154.674   4.965 131.291   1.565  -0.726 116.110

 ******    1 imaginary frequencies (negative Signs) ******

                      1                      2                      3
                      A                      A                      A
 Frequencies --   -371.6303                57.6983                65.8482
 Red. masses --      5.3190                 5.1547                 2.0682
 Frc consts  --      0.4328                 0.0101                 0.0053
 IR Inten    --    589.7828                18.3650                 2.1930

                      4                      5                      6
                      A                      A                      A
 Frequencies --     90.1407               117.1969               184.9425
 Red. masses --      5.5242                 3.8397                 2.5200
 Frc consts  --      0.0264                 0.0311                 0.0508
 IR Inten    --      7.7710                 8.3869                 1.6542

                      7                      8                      9
                      A                      A                      A
 Frequencies --    190.1649               207.9030               219.4046
 Red. masses --      1.6599                 8.8939                 5.3624
 Frc consts  --      0.0354                 0.2265                 0.1521
 IR Inten    --      2.8877                13.6729                 3.8781

                     10                     11                     12
                      A                      A                      A
 Frequencies --    271.1962               279.6139               312.1832
 Red. masses --      4.4889                 1.6370                 2.3352
 Frc consts  --      0.1945                 0.0754                 0.1341
 IR Inten    --      2.0719                 1.3962                 6.8910

                     13                     14                     15
                      A                      A                      A
 Frequencies --    318.3088               368.2873               385.6651
 Red. masses --      2.6497                 3.4068                 4.0070
 Frc consts  --      0.1582                 0.2723                 0.3511
 IR Inten    --     33.0187                 6.6979                10.8061

                     16                     17                     18
                      A                      A                      A
 Frequencies --    457.5815               498.3034               521.9074
 Red. masses --      3.2253                 1.2465                 1.6299
 Frc consts  --      0.3979                 0.1824                 0.2616
 IR Inten    --     26.4463                95.3053               340.1189

                     19                     20                     21
                      A                      A                      A
 Frequencies --    553.1767               636.8948               651.0409
 Red. masses --      2.4414                 3.3228                 1.6754
 Frc consts  --      0.4402                 0.7941                 0.4184
 IR Inten    --     56.0756                41.8194                73.2414

                     22                     23                     24
                      A                      A                      A
 Frequencies --    724.0968               788.3954               980.1732
 Red. masses --      2.8529                 9.1796                 3.2598
 Frc consts  --      0.8813                 3.3617                 1.8452
 IR Inten    --    200.1926                64.5939                26.0213

                     25                     26                     27
                      A                      A                      A
 Frequencies --    998.9691              1038.1165              1048.1029
 Red. masses --      1.1594                 1.4435                 1.5428
 Frc consts  --      0.6817                 0.9165                 0.9986
 IR Inten    --     19.8838               123.0672                58.9451

                     28                     29                     30
                      A                      A                      A
 Frequencies --   1077.0829              1082.8979              1097.7001
 Red. masses --      1.6669                 3.8940                 1.9914
 Frc consts  --      1.1394                 2.6905                 1.4138
 IR Inten    --     90.2490                 6.5574                30.6569

                     31                     32                     33
                      A                      A                      A
 Frequencies --   1146.8128              1223.6261              1346.0791
 Red. masses --      2.1712                 1.3952                 1.3282
 Frc consts  --      1.6824                 1.2308                 1.4179
 IR Inten    --     22.8831                31.1650                14.2589

                     34                     35                     36
                      A                      A                      A
 Frequencies --   1373.0615              1417.4322              1436.9412
 Red. masses --      3.9532                 1.4036                 2.4725
 Frc consts  --      4.3912                 1.6615                 3.0079
 IR Inten    --    364.3329               147.1269               535.1910

                     37                     38                     39
                      A                      A                      A
 Frequencies --   1461.7498              1478.8493              1490.9869
 Red. masses --      1.2691                 1.0473                 1.1380
 Frc consts  --      1.5977                 1.3495                 1.4905
 IR Inten    --     65.2742                 8.9478                25.6233

                     40                     41                     42
                      A                      A                      A
 Frequencies --   1494.1068              1506.2329              1613.4785
 Red. masses --      1.1022                 1.0347                 1.3096
 Frc consts  --      1.4497                 1.3830                 2.0086
 IR Inten    --     53.6098                14.2407               329.1548

                     43                     44                     45
                      A                      A                      A
 Frequencies --   1636.4709              1672.7452              3070.8800
 Red. masses --      1.0928                 5.1882                 1.0333
 Frc consts  --      1.7243                 8.5531                 5.7410
 IR Inten    --     97.4430               679.2588                29.1340

                     46                     47                     48
                      A                      A                      A
 Frequencies --   3080.2984              3146.8292              3159.0264
 Red. masses --      1.0362                 1.1048                 1.1017
 Frc consts  --      5.7926                 6.4458                 6.4774
 IR Inten    --      5.3560                 9.9386                 7.5271

                     49                     50                     51
                      A                      A                      A
 Frequencies --   3170.6686              3176.9842              3519.7122
 Red. masses --      1.1054                 1.1043                 1.0507
 Frc consts  --      6.5472                 6.5668                 7.6694
 IR Inten    --     15.3781                10.2901                44.3335

                     52                     53                     54
                      A                      A                      A
 Frequencies --   3593.0397              3603.1451              3704.4709
 Red. masses --      1.0470                 1.0963                 1.1012
 Frc consts  --      7.9640                 8.3860                 8.9036
 IR Inten    --     48.0800                65.4670               125.1178

 - Thermochemistry -
 -------------------
 Temperature   298.150 Kelvin.  Pressure   1.00000 Atm.
 Atom     1 has atomic number  6 and mass  12.00000

 Molecular mass:   227.96650 amu.
 Principal axes and moments of inertia in atomic units:
                           1         2         3
     Eigenvalues --  1881.399452910.020173387.06372
           X            0.99869   0.04435  -0.02540
           Y           -0.04521   0.99838  -0.03465
           Z            0.02382   0.03575   0.99908
 This molecule is an asymmetric top.
 Rotational symmetry number  1.
 Warning -- assumption of classical behavior for rotation
           may cause significant error
 Rotational temperatures (Kelvin)      0.04604     0.02976     0.02557
 Rotational constants (GHZ):           0.95925     0.62018     0.53283
    1 imaginary frequencies ignored.
 Zero-point vibrational energy     411196.1 (Joules/Mol)
                                   98.27823 (Kcal/Mol)
 Warning -- explicit consideration of  18 degrees of freedom as
           vibrations may cause significant error
 Vibrational temperatures:     83.02    94.74   129.69   168.62   266.09
          (Kelvin)            273.60   299.13   315.67   390.19   402.30
                              449.16   457.98   529.88   554.89   658.36
                              716.95   750.91   795.90   916.35   936.70
                             1041.81  1134.33  1410.25  1437.29  1493.62
                             1507.99  1549.68  1558.05  1579.35  1650.01
                             1760.53  1936.71  1975.53  2039.37  2067.44
                             2103.13  2127.73  2145.20  2149.69  2167.13
                             2321.44  2354.52  2406.71  4418.31  4431.86
                             4527.59  4545.13  4561.88  4570.97  5064.08
                             5169.58  5184.12  5329.91

 Zero-point correction=                           0.156616 (Hartree/Particle)
 Thermal correction to Energy=                    0.168796
 Thermal correction to Enthalpy=                  0.169740
 Thermal correction to Gibbs Free Energy=         0.117409
 Sum of electronic and zero-point Energies=          -3415.554949
 Sum of electronic and thermal Energies=             -3415.542769
 Sum of electronic and thermal Enthalpies=           -3415.541825
 Sum of electronic and thermal Free Energies=        -3415.594156

                     E (Thermal)             CV                S
                      KCal/Mol        Cal/Mol-Kelvin    Cal/Mol-Kelvin
 Total                  105.921             42.901            110.140
 Electronic               0.000              0.000              0.000
 Translational            0.889              2.981             42.174
 Rotational               0.889              2.981             31.295
 Vibrational            104.144             36.940             36.670
 Vibration     1          0.596              1.974              4.534
 Vibration     2          0.597              1.971              4.274
 Vibration     3          0.602              1.956              3.657
 Vibration     4          0.608              1.935              3.146
 Vibration     5          0.631              1.860              2.278
 Vibration     6          0.633              1.853              2.226
 Vibration     7          0.641              1.829              2.062
 Vibration     8          0.647              1.812              1.964
 Vibration     9          0.675              1.726              1.589
 Vibration    10          0.680              1.711              1.536
 Vibration    11          0.701              1.650              1.351
 Vibration    12          0.705              1.639              1.319
 Vibration    13          0.741              1.537              1.087
 Vibration    14          0.754              1.501              1.017
 Vibration    15          0.816              1.344              0.773
 Vibration    16          0.854              1.254              0.662
 Vibration    17          0.877              1.201              0.606
 Vibration    18          0.909              1.133              0.538

 Optimization completed.
    -- Stationary point found.
 Normal termination of Gaussian 16 at Fri Apr 16 08:20:08 2021.
