 Gaussian 16, Revision A.03,
 Gaussian 16:  ES64L-G16RevA.03 25-Dec-2016

 ----------------------------------------------------------------------
 # wB97XD def2tzvp, opt=(ts, noeigen, calcfc, maxcycles=70, maxstep=8),
  freq=noraman, scrf=(iefpcm, solvent=water)
 ----------------------------------------------------------------------

 -----------------------
 1_iteration/TS-54-1.out
 -----------------------
 Symbolic Z-matrix:
 Charge =  0 Multiplicity = 1

 SCF Done:  E(RwB97XD) =  -652.842400788     A.U. after   14 cycles
 SCF Done:  E(RwB97XD) =  -652.842402075     A.U. after    9 cycles
 SCF Done:  E(RwB97XD) =  -652.842402081     A.U. after    6 cycles
 Optimization completed.
    -- Stationary point found.
 Normal termination of Gaussian 16 at Sun Jan 31 00:35:38 2021.

 ---------------------------------------------------------------------
 #N Geom=AllCheck Guess=TCheck SCRF=Check GenChk RwB97XD/def2TZVP Freq
 ---------------------------------------------------------------------

 Structure from the checkpoint file:  "/beegfs/scratch/user/q/tla25/Gau-35827.chk"
 -----------------------
 1_iteration/TS-54-1.out
 -----------------------
 Charge =  0 Multiplicity = 1

                         Standard orientation:
 ---------------------------------------------------------------------
 Center     Atomic      Atomic             Coordinates (Angstroms)
 Number     Number       Type             X           Y           Z
 ---------------------------------------------------------------------
      1          6           0       -0.918836   -0.435434    0.087467
      2          6           0       -2.217526    0.123814    0.290381
      3          8           0       -2.372390    1.338553    0.572276
      4          6           0        0.194624    0.373915    0.362521
      5          6           0        1.158775    2.880280   -0.610554
      6          1           0        0.981590    3.740279   -1.257704
      7          1           0        1.081001    3.199660    0.428637
      8          1           0        2.164540    2.501138   -0.784618
      9          7           0        0.195425    1.812831   -0.845837
     10          1           0       -0.766802    2.099724   -0.674476
     11          1           0        0.265233    1.415876   -1.774767
     12          6           0        1.569830   -0.174852    0.228601
     13          6           0        2.528234    0.114413    1.195415
     14          6           0        3.817603   -0.387590    1.089630
     15          6           0        4.168438   -1.175656    0.004048
     16          6           0        3.223386   -1.458603   -0.974074
     17          6           0        1.935124   -0.962018   -0.862353
     18          1           0        2.259569    0.736073    2.041475
     19          1           0        4.549080   -0.158256    1.854213
     20          1           0        5.174985   -1.564517   -0.083952
     21          1           0        3.493165   -2.066574   -1.828456
     22          1           0        1.206376   -1.181989   -1.633325
     23          1           0        0.089244    1.056004    1.202589
     24          1           0       -0.783770   -1.370060   -0.434223
     25          7           0       -3.322236   -0.686408    0.164360
     26          6           0       -3.208904   -2.084082   -0.181323
     27          6           0       -4.638312   -0.106201    0.028205
     28          1           0       -3.006013   -2.240065   -1.248219
     29          1           0       -2.418266   -2.562924    0.394978
     30          1           0       -4.148189   -2.582532    0.058895
     31          1           0       -4.597280    0.940366    0.313060
     32          1           0       -5.000844   -0.179550   -1.004311
     33          1           0       -5.351438   -0.623963    0.674534
 ---------------------------------------------------------------------

 SCF Done:  E(RwB97XD) =  -652.842402081     A.U. after    1 cycles

 The electronic state is 1-A.
 Alpha  occ. eigenvalues --  -19.18480 -14.47365 -14.44079 -10.35779 -10.33075
 Alpha  occ. eigenvalues --  -10.31466 -10.30179 -10.30176 -10.29656 -10.29249
 Alpha  occ. eigenvalues --  -10.29244 -10.29189 -10.29168 -10.29124 -10.23497
 Alpha  occ. eigenvalues --   -1.10823  -1.03150  -1.01499  -0.97068  -0.89378
 Alpha  occ. eigenvalues --   -0.85373  -0.83722  -0.80773  -0.78764  -0.77496
 Alpha  occ. eigenvalues --   -0.72462  -0.70727  -0.67080  -0.63264  -0.61609
 Alpha  occ. eigenvalues --   -0.60264  -0.58259  -0.56126  -0.55391  -0.55172
 Alpha  occ. eigenvalues --   -0.54633  -0.54393  -0.52697  -0.51142  -0.50653
 Alpha  occ. eigenvalues --   -0.48423  -0.47916  -0.47504  -0.47184  -0.46807
 Alpha  occ. eigenvalues --   -0.46374  -0.45422  -0.44176  -0.43094  -0.42386
 Alpha  occ. eigenvalues --   -0.42080  -0.34035  -0.33505  -0.32658  -0.30856
 Alpha  occ. eigenvalues --   -0.25742
 Alpha virt. eigenvalues --    0.03072   0.05018   0.09985   0.10734   0.12017
 Alpha virt. eigenvalues --    0.13454   0.13587   0.15008   0.15731   0.16735
 Alpha virt. eigenvalues --    0.17250   0.17669   0.17936   0.18020   0.18760

 Mulliken charges:
               1
     1  C   -0.504906
     2  C    0.344778
     3  O   -0.628993
     4  C   -0.042505
     5  C   -0.288626
     6  H    0.153688
     7  H    0.147472
     8  H    0.154621
     9  N   -0.293208
    10  H    0.273161
    11  H    0.266841
    12  C    0.227182
    13  C   -0.237520
    14  C   -0.133834
    15  C   -0.145021
    16  C   -0.146938
    17  C   -0.248500
    18  H    0.142815
    19  H    0.143631
    20  H    0.145641
    21  H    0.143579
    22  H    0.153599
    23  H    0.137456
    24  H    0.144683
    25  N   -0.124629
    26  C   -0.299463
    27  C   -0.276911
    28  H    0.127904
    29  H    0.139671
    30  H    0.139746
    31  H    0.139900
    32  H    0.117463
    33  H    0.127223
 Sum of Mulliken charges =  -0.00000

 Dipole moment (field-independent basis, Debye):
    X=              4.2302    Y=              0.5083    Z=             -4.0487  Tot=              5.8775
 Quadrupole moment (field-independent basis, Debye-Ang):
   XX=            -85.1399   YY=            -84.8078   ZZ=            -87.0156
   XY=             10.5417   XZ=              5.2177   YZ=             -1.1750

  Exact polarizability: 299.921   6.261 212.799   3.224  16.086 191.102
 Approx polarizability: 211.691  -0.576 174.112   3.193  15.396 165.649

 ******    1 imaginary frequencies (negative Signs) ******

                      1                      2                      3
                      A                      A                      A
 Frequencies --   -379.3242                39.8463                43.5735
 Red. masses --      6.3763                 2.6876                 3.2496
 Frc consts  --      0.5406                 0.0025                 0.0036
 IR Inten    --    919.2035                 5.3031                 0.3875

                      4                      5                      6
                      A                      A                      A
 Frequencies --     58.2504                71.2675                82.3671
 Red. masses --      3.2187                 3.4208                 2.2991
 Frc consts  --      0.0064                 0.0102                 0.0092
 IR Inten    --      2.5503                 2.5432                 5.6743

                      7                      8                      9
                      A                      A                      A
 Frequencies --     93.1007               119.1850               135.0085
 Red. masses --      1.8730                 2.7207                 1.7840
 Frc consts  --      0.0096                 0.0228                 0.0192
 IR Inten    --      6.8484                 5.1223                40.2818

                     10                     11                     12
                      A                      A                      A
 Frequencies --    169.4800               187.4799               210.6018
 Red. masses --      1.3146                 1.7287                 2.9585
 Frc consts  --      0.0222                 0.0358                 0.0773
 IR Inten    --      3.3766                 4.4488                13.4581

                     13                     14                     15
                      A                      A                      A
 Frequencies --    215.6511               242.2999               264.6145
 Red. masses --      2.1053                 5.3207                 2.4373
 Frc consts  --      0.0577                 0.1840                 0.1006
 IR Inten    --      4.4249                 1.3422                26.9718

                     16                     17                     18
                      A                      A                      A
 Frequencies --    325.2776               332.4998               386.0159
 Red. masses --      3.3881                 3.9496                 3.1996
 Frc consts  --      0.2112                 0.2573                 0.2809
 IR Inten    --     40.3292                 3.5903                14.3499

                     19                     20                     21
                      A                      A                      A
 Frequencies --    422.1720               469.3891               541.6460
 Red. masses --      2.8773                 3.0089                 2.5470
 Frc consts  --      0.3021                 0.3906                 0.4403
 IR Inten    --      0.8102                40.5240                42.7170

                     22                     23                     24
                      A                      A                      A
 Frequencies --    580.3631               605.9759               635.3018
 Red. masses --      3.5914                 3.9144                 4.1553
 Frc consts  --      0.7127                 0.8469                 0.9881
 IR Inten    --     17.2159                16.0304                20.4603

                     25                     26                     27
                      A                      A                      A
 Frequencies --    642.2897               648.8336               715.2264
 Red. masses --      5.6213                 1.2921                 1.7681
 Frc consts  --      1.3663                 0.3205                 0.5329
 IR Inten    --     28.4758               193.7004                63.0146

                     28                     29                     30
                      A                      A                      A
 Frequencies --    728.6771               783.6964               801.7846
 Red. masses --      1.5140                 9.8523                 2.1350
 Frc consts  --      0.4736                 3.5652                 0.8086
 IR Inten    --    132.3445                98.1190                10.0813

                     31                     32                     33
                      A                      A                      A
 Frequencies --    835.5512               880.4521               920.2367
 Red. masses --      4.2330                 1.2483                 3.2480
 Frc consts  --      1.7412                 0.5701                 1.6205
 IR Inten    --     17.6052                 0.1542                23.6175

                     34                     35                     36
                      A                      A                      A
 Frequencies --    962.9383              1009.7219              1016.0465
 Red. masses --      1.4612                 1.1874                 1.3853
 Frc consts  --      0.7983                 0.7133                 0.8426
 IR Inten    --      1.8231                25.4872                 8.1437

                     37                     38                     39
                      A                      A                      A
 Frequencies --   1026.0688              1027.0439              1032.9006
 Red. masses --      6.0166                 1.8756                 1.3461
 Frc consts  --      3.7321                 1.1657                 0.8461
 IR Inten    --      1.6898                85.8056                 9.2306

                     40                     41                     42
                      A                      A                      A
 Frequencies --   1053.9567              1062.5178              1083.9443
 Red. masses --      1.2385                 2.1290                 1.4813
 Frc consts  --      0.8106                 1.4161                 1.0254
 IR Inten    --     72.3244                 7.5204                30.9457

                     43                     44                     45
                      A                      A                      A
 Frequencies --   1086.3205              1112.3460              1131.1808
 Red. masses --      3.2120                 1.5818                 1.2366
 Frc consts  --      2.2333                 1.1531                 0.9323
 IR Inten    --    265.8352                13.6618                 7.3783

                     46                     47                     48
                      A                      A                      A
 Frequencies --   1160.3207              1184.5591              1185.9267
 Red. masses --      1.5877                 1.1379                 1.6737
 Frc consts  --      1.2595                 0.9407                 1.3869
 IR Inten    --    239.7294                 0.1737                53.1183

                     49                     50                     51
                      A                      A                      A
 Frequencies --   1203.1746              1209.7114              1213.5645
 Red. masses --      1.2929                 1.1908                 1.3336
 Frc consts  --      1.1027                 1.0267                 1.1572
 IR Inten    --    140.7808                67.6488                74.1359

                     52                     53                     54
                      A                      A                      A
 Frequencies --   1223.1618              1289.8748              1306.1742
 Red. masses --      2.0858                 1.3341                 3.1118
 Frc consts  --      1.8386                 1.3078                 3.1279
 IR Inten    --    121.9341                25.3939                12.7594

                     55                     56                     57
                      A                      A                      A
 Frequencies --   1314.3736              1342.5673              1345.3952
 Red. masses --      3.6774                 2.2138                 1.6525
 Frc consts  --      3.7431                 2.3511                 1.7623
 IR Inten    --      4.2150                 5.8550                 6.5635

                     58                     59                     60
                      A                      A                      A
 Frequencies --   1366.9771              1417.1040              1432.2739
 Red. masses --      1.3698                 1.5490                 1.6176
 Frc consts  --      1.5081                 1.8328                 1.9551
 IR Inten    --      7.1383               205.4086               151.4373

                     61                     62                     63
                      A                      A                      A
 Frequencies --   1461.9410              1471.5056              1485.4321
 Red. masses --      1.2018                 1.2748                 1.6250
 Frc consts  --      1.5134                 1.6263                 2.1126
 IR Inten    --     27.0447                 9.1022               426.8885

                     64                     65                     66
                      A                      A                      A
 Frequencies --   1490.2477              1492.0197              1494.0309
 Red. masses --      1.0427                 1.0448                 1.1097
 Frc consts  --      1.3643                 1.3704                 1.4594
 IR Inten    --     21.6793                 5.0343                44.6358

                     67                     68                     69
                      A                      A                      A
 Frequencies --   1503.8512              1505.0282              1519.0328
 Red. masses --      1.2463                 1.0574                 2.1289
 Frc consts  --      1.6607                 1.4112                 2.8943
 IR Inten    --     24.7527                43.7175               466.2440

                     70                     71                     72
                      A                      A                      A
 Frequencies --   1531.3684              1552.4096              1586.4511
 Red. masses --      1.4168                 2.6280                 4.8909
 Frc consts  --      1.9576                 3.7316                 7.2525
 IR Inten    --    334.2865                34.2618               602.4688

                     73                     74                     75
                      A                      A                      A
 Frequencies --   1650.0921              1656.3586              1678.6071
 Red. masses --      1.1458                 4.6532                 5.8979
 Frc consts  --      1.8381                 7.5216                 9.7914
 IR Inten    --     40.5813                 8.2657                 0.2398

                     76                     77                     78
                      A                      A                      A
 Frequencies --   3007.3967              3011.8989              3061.3064
 Red. masses --      1.0493                 1.0513                 1.0336
 Frc consts  --      5.5915                 5.6188                 5.7072
 IR Inten    --     70.1650               189.7758                57.4778

                     79                     80                     81
                      A                      A                      A
 Frequencies --   3076.8655              3100.5535              3133.2357
 Red. masses --      1.0932                 1.0837                 1.0920
 Frc consts  --      6.0974                 6.1381                 6.3164
 IR Inten    --     79.3369                46.5023                34.4571

                     82                     83                     84
                      A                      A                      A
 Frequencies --   3137.9121              3142.9681              3156.7987
 Red. masses --      1.1017                 1.1037                 1.1052
 Frc consts  --      6.3915                 6.4236                 6.4891
 IR Inten    --     16.0263                23.9238                18.3367

                     85                     86                     87
                      A                      A                      A
 Frequencies --   3183.2046              3191.9040              3195.2983
 Red. masses --      1.0955                 1.0866                 1.0881
 Frc consts  --      6.5403                 6.5226                 6.5457
 IR Inten    --      5.4625                 6.7464                 1.5651

                     88                     89                     90
                      A                      A                      A
 Frequencies --   3203.6647              3212.3982              3222.4945
 Red. masses --      1.0911                 1.0950                 1.0988
 Frc consts  --      6.5980                 6.6578                 6.7230
 IR Inten    --     10.5015                36.8413                18.1979

                     91                     92                     93
                      A                      A                      A
 Frequencies --   3239.2118              3460.8484              3590.2553
 Red. masses --      1.0886                 1.0587                 1.0904
 Frc consts  --      6.7300                 7.4712                 8.2814
 IR Inten    --      7.3710                80.2891                57.2186

 - Thermochemistry -
 -------------------
 Temperature   298.150 Kelvin.  Pressure   1.00000 Atm.
 Atom     1 has atomic number  6 and mass  12.00000

 Molecular mass:   206.14191 amu.
 Principal axes and moments of inertia in atomic units:
                           1         2         3
     Eigenvalues --  1647.156845909.635286841.50636
           X            0.99985   0.01676   0.00341
           Y           -0.01678   0.99984   0.00544
           Z           -0.00332  -0.00550   0.99998
 This molecule is an asymmetric top.
 Rotational symmetry number  1.
 Warning -- assumption of classical behavior for rotation
           may cause significant error
 Rotational temperatures (Kelvin)      0.05258     0.01466     0.01266
 Rotational constants (GHZ):           1.09567     0.30539     0.26379
    1 imaginary frequencies ignored.
 Zero-point vibrational energy     750027.8 (Joules/Mol)
                                  179.26094 (Kcal/Mol)
 Warning -- explicit consideration of  22 degrees of freedom as
           vibrations may cause significant error
 Vibrational temperatures:     57.33    62.69    83.81   102.54   118.51
          (Kelvin)            133.95   171.48   194.25   243.84   269.74
                              303.01   310.27   348.62   380.72   468.00
                              478.39   555.39   607.41   675.35   779.31
                              835.01   871.86   914.06   924.11   933.53
                             1029.05  1048.40  1127.56  1153.59  1202.17
                             1266.77  1324.02  1385.45  1452.76  1461.86
                             1476.28  1477.69  1486.11  1516.41  1528.73
                             1559.55  1562.97  1600.42  1627.52  1669.44
                             1704.32  1706.28  1731.10  1740.50  1746.05
                             1759.86  1855.84  1879.29  1891.09  1931.65
                             1935.72  1966.78  2038.90  2060.72  2103.41
                             2117.17  2137.21  2144.13  2146.68  2149.58
                             2163.71  2165.40  2185.55  2203.30  2233.57
                             2282.55  2374.11  2383.13  2415.14  4326.97
                             4333.45  4404.54  4426.92  4461.00  4508.03
                             4514.76  4522.03  4541.93  4579.92  4592.44
                             4597.32  4609.36  4621.92  4636.45  4660.50
                             4979.39  5165.58

 Zero-point correction=                           0.285670 (Hartree/Particle)
 Thermal correction to Energy=                    0.301678
 Thermal correction to Enthalpy=                  0.302622
 Thermal correction to Gibbs Free Energy=         0.240949
 Sum of electronic and zero-point Energies=           -652.556732
 Sum of electronic and thermal Energies=              -652.540724
 Sum of electronic and thermal Enthalpies=            -652.539780
 Sum of electronic and thermal Free Energies=         -652.601453

                     E (Thermal)             CV                S
                      KCal/Mol        Cal/Mol-Kelvin    Cal/Mol-Kelvin
 Total                  189.306             57.976            129.802
 Electronic               0.000              0.000              0.000
 Translational            0.889              2.981             41.874
 Rotational               0.889              2.981             32.565
 Vibrational            187.528             52.014             55.363
 Vibration     1          0.594              1.981              5.267
 Vibration     2          0.595              1.980              5.090
 Vibration     3          0.596              1.974              4.516
 Vibration     4          0.598              1.968              4.118
 Vibration     5          0.600              1.961              3.834
 Vibration     6          0.602              1.954              3.594
 Vibration     7          0.609              1.933              3.114
 Vibration     8          0.613              1.918              2.873
 Vibration     9          0.625              1.880              2.441
 Vibration    10          0.632              1.857              2.253
 Vibration    11          0.643              1.825              2.038
 Vibration    12          0.645              1.817              1.995
 Vibration    13          0.658              1.775              1.786
 Vibration    14          0.671              1.738              1.631
 Vibration    15          0.709              1.625              1.283
 Vibration    16          0.714              1.611              1.248
 Vibration    17          0.755              1.500              1.016
 Vibration    18          0.785              1.422              0.885
 Vibration    19          0.826              1.318              0.739
 Vibration    20          0.897              1.158              0.562
 Vibration    21          0.937              1.074              0.485
 Vibration    22          0.965              1.019              0.439

 Optimization completed.
    -- Stationary point found.
 Normal termination of Gaussian 16 at Sun Jan 31 01:38:22 2021.
