 Gaussian 16, Revision A.03,
 Gaussian 16:  ES64L-G16RevA.03 25-Dec-2016

 ----------------------------------------------------------------------
 # wB97XD def2tzvp, opt=(ts, noeigen, calcfc, maxcycles=70, maxstep=5),
  freq=noraman, scrf=(iefpcm, solvent=water)
 ----------------------------------------------------------------------

 ------------------------
 2_iteration/TS-527-2.out
 ------------------------
 Symbolic Z-matrix:
 Charge =  0 Multiplicity = 1

 SCF Done:  E(RwB97XD) =  -3418.20740034     A.U. after   14 cycles
 SCF Done:  E(RwB97XD) =  -3418.20749156     A.U. after   11 cycles
 SCF Done:  E(RwB97XD) =  -3418.20753769     A.U. after   11 cycles
 SCF Done:  E(RwB97XD) =  -3418.20754334     A.U. after   10 cycles
 SCF Done:  E(RwB97XD) =  -3418.20754351     A.U. after    7 cycles
 Optimization completed.
    -- Stationary point found.
 Normal termination of Gaussian 16 at Wed Feb 17 20:33:23 2021.

 ---------------------------------------------------------------------
 #N Geom=AllCheck Guess=TCheck SCRF=Check GenChk RwB97XD/def2TZVP Freq
 ---------------------------------------------------------------------

 Structure from the checkpoint file:  "/beegfs/scratch/user/q/tla25/Gau-18957.chk"
 ------------------------
 2_iteration/TS-527-2.out
 ------------------------
 Charge =  0 Multiplicity = 1

                         Standard orientation:
 ---------------------------------------------------------------------
 Center     Atomic      Atomic             Coordinates (Angstroms)
 Number     Number       Type             X           Y           Z
 ---------------------------------------------------------------------
      1          6           0        0.827582    0.197528   -0.040376
      2          6           0       -0.393345   -0.587521    0.074725
      3          8           0       -0.415571   -1.745699    0.502861
      4          6           0        2.060450   -0.422851   -0.002193
      5          6           0        2.100828   -0.426472    2.889109
      6          1           0        1.804761   -0.911441    3.820827
      7          1           0        3.059335    0.068418    3.035289
      8          1           0        1.351059    0.325422    2.636563
      9          7           0        2.194655   -1.362652    1.784359
     10          1           0        2.996476   -1.976812    1.847011
     11          1           0        1.344933   -1.909202    1.671219
     12          6           0        3.342448    0.356096    0.017713
     13          1           0        3.259603    1.195660    0.707772
     14          1           0        4.174147   -0.275909    0.320469
     15          1           0        3.560344    0.749326   -0.975397
     16         35           0        2.320550   -2.084135   -1.039488
     17          6           0        0.745715    1.687121   -0.072112
     18          6           0        0.170967    2.406463    0.978775
     19          6           0        0.072353    3.788200    0.934381
     20          6           0        0.554819    4.486369   -0.164172
     21          6           0        1.122302    3.789288   -1.220460
     22          6           0        1.206294    2.405239   -1.176602
     23          1           0       -0.209918    1.871989    1.841146
     24          1           0       -0.376890    4.321602    1.762796
     25          1           0        0.483302    5.566086   -0.198457
     26          1           0        1.491712    4.322589   -2.087538
     27          1           0        1.630376    1.866775   -2.015386
     28          7           0       -1.544133    0.060208   -0.309868
     29          6           0       -2.879501   -0.326563   -0.175683
     30          6           0       -3.293005   -1.560101    0.329727
     31          6           0       -4.648533   -1.844438    0.425607
     32          6           0       -5.607632   -0.928134    0.024488
     33          6           0       -5.195020    0.297816   -0.481536
     34          6           0       -3.849002    0.597156   -0.580146
     35          1           0       -1.409569    0.985229   -0.683246
     36          1           0       -2.555885   -2.282151    0.639371
     37          1           0       -4.952843   -2.805917    0.820985
     38          1           0       -6.660952   -1.163749    0.102441
     39          1           0       -5.925903    1.029871   -0.801611
     40          1           0       -3.538746    1.558448   -0.973969
 ---------------------------------------------------------------------

 SCF Done:  E(RwB97XD) =  -3418.20754351     A.U. after    1 cycles

 The electronic state is 1-A.
 Alpha  occ. eigenvalues -- -483.12047 -62.66893 -56.45998 -56.45664 -56.45650
 Alpha  occ. eigenvalues --  -19.21330 -14.46560 -14.46380 -10.39111 -10.38941
 Alpha  occ. eigenvalues --  -10.33874 -10.31104 -10.30397 -10.29094 -10.29080
 Alpha  occ. eigenvalues --  -10.29060 -10.28998 -10.28978 -10.28925 -10.28915
 Alpha  occ. eigenvalues --  -10.28909 -10.28889 -10.28288 -10.28245 -10.27161
 Alpha  occ. eigenvalues --   -8.80995  -6.63102  -6.62049  -6.62001  -2.73491
 Alpha  occ. eigenvalues --   -2.73201  -2.73163  -2.72311  -2.72310  -1.14094
 Alpha  occ. eigenvalues --   -1.04329  -1.02310  -0.97253  -0.95495  -0.93509
 Alpha  occ. eigenvalues --   -0.87832  -0.85209  -0.85155  -0.84776  -0.83266
 Alpha  occ. eigenvalues --   -0.80514  -0.77973  -0.73720  -0.71455  -0.70399
 Alpha  occ. eigenvalues --   -0.70075  -0.67196  -0.64158  -0.62623  -0.61940
 Alpha  occ. eigenvalues --   -0.61351  -0.58139  -0.57530  -0.56767  -0.55461
 Alpha  occ. eigenvalues --   -0.54317  -0.53859  -0.53648  -0.52831  -0.52358
 Alpha  occ. eigenvalues --   -0.51839  -0.50951  -0.50858  -0.50123  -0.49689
 Alpha  occ. eigenvalues --   -0.48105  -0.47273  -0.46835  -0.46434  -0.45339
 Alpha  occ. eigenvalues --   -0.44726  -0.43117  -0.42926  -0.42435  -0.41474
 Alpha  occ. eigenvalues --   -0.39965  -0.36859  -0.36222  -0.35177  -0.33901
 Alpha  occ. eigenvalues --   -0.33772  -0.32982  -0.30561  -0.26960
 Alpha virt. eigenvalues --    0.02341   0.03803   0.05174   0.05396   0.06444
 Alpha virt. eigenvalues --    0.08287   0.10443   0.12364   0.12926   0.13944
 Alpha virt. eigenvalues --    0.14081   0.14666   0.15563   0.16269   0.16732

 Mulliken charges:
               1
     1  C   -0.271383
     2  C    0.457898
     3  O   -0.556114
     4  C    0.199509
     5  C   -0.277703
     6  H    0.149720
     7  H    0.154137
     8  H    0.121940
     9  N   -0.365198
    10  H    0.276073
    11  H    0.271976
    12  C   -0.387377
    13  H    0.160865
    14  H    0.158020
    15  H    0.159656
    16  Br  -0.151493
    17  C    0.039495
    18  C   -0.232700
    19  C   -0.142319
    20  C   -0.132944
    21  C   -0.154534
    22  C   -0.229395
    23  H    0.159387
    24  H    0.141629
    25  H    0.144058
    26  H    0.140845
    27  H    0.155487
    28  N   -0.252922
    29  C    0.301411
    30  C   -0.298268
    31  C   -0.110193
    32  C   -0.196684
    33  C   -0.096762
    34  C   -0.320323
    35  H    0.256689
    36  H    0.160369
    37  H    0.141230
    38  H    0.140691
    39  H    0.143437
    40  H    0.141790
 Sum of Mulliken charges =  -0.00000

 Dipole moment (field-independent basis, Debye):
    X=              3.7558    Y=              4.2112    Z=              3.5927  Tot=              6.6894
 Quadrupole moment (field-independent basis, Debye-Ang):
   XX=           -123.6816   YY=           -131.9394   ZZ=           -128.5092
   XY=             -4.3311   XZ=              9.4168   YZ=             -9.1048

  Exact polarizability: 389.099 -17.529 372.785  -6.801 -22.000 283.542
 Approx polarizability: 286.378 -10.353 299.178  -9.127 -18.302 241.461

 ******    1 imaginary frequencies (negative Signs) ******

                      1                      2                      3
                      A                      A                      A
 Frequencies --   -394.2805                25.3860                28.4401
 Red. masses --      5.4541                 4.5024                 4.5022
 Frc consts  --      0.4996                 0.0017                 0.0021
 IR Inten    --    800.0864                 1.3968                 0.4715

                      4                      5                      6
                      A                      A                      A
 Frequencies --     36.9021                46.7885                63.7631
 Red. masses --      4.1712                 4.7991                 5.1395
 Frc consts  --      0.0033                 0.0062                 0.0123
 IR Inten    --      0.5120                 0.5185                 3.8895

                      7                      8                      9
                      A                      A                      A
 Frequencies --     87.6663                91.9204                99.0091
 Red. masses --      3.6080                 5.8742                 3.9642
 Frc consts  --      0.0163                 0.0292                 0.0229
 IR Inten    --      0.1063                 3.0304                 2.9760

                     10                     11                     12
                      A                      A                      A
 Frequencies --    133.4523               145.0924               182.3604
 Red. masses --      5.4113                 2.3925                 2.2535
 Frc consts  --      0.0568                 0.0297                 0.0442
 IR Inten    --     21.1089                 4.6916                 2.9128

                     13                     14                     15
                      A                      A                      A
 Frequencies --    195.7317               211.8452               228.8049
 Red. masses --      2.1707                 3.5128                 2.7474
 Frc consts  --      0.0490                 0.0929                 0.0847
 IR Inten    --      0.1668                21.4052                 6.1203

                     16                     17                     18
                      A                      A                      A
 Frequencies --    247.0156               255.2812               261.3007
 Red. masses --      3.4176                 4.1169                 3.6031
 Frc consts  --      0.1229                 0.1581                 0.1449
 IR Inten    --      6.2467                14.1922                 8.3938

                     19                     20                     21
                      A                      A                      A
 Frequencies --    280.8929               305.7396               349.5167
 Red. masses --      1.6352                 2.2231                 4.6416
 Frc consts  --      0.0760                 0.1224                 0.3341
 IR Inten    --     14.3703                 7.1127                30.6993

                     22                     23                     24
                      A                      A                      A
 Frequencies --    368.3402               391.9829               423.5829
 Red. masses --      5.0068                 4.5004                 3.0000
 Frc consts  --      0.4002                 0.4074                 0.3171
 IR Inten    --      3.1907                 5.8802                 0.0461

                     25                     26                     27
                      A                      A                      A
 Frequencies --    425.4328               427.1623               512.5184
 Red. masses --      3.1890                 4.9512                 4.0502
 Frc consts  --      0.3401                 0.5323                 0.6268
 IR Inten    --      0.7036                 7.5933                75.3376

                     28                     29                     30
                      A                      A                      A
 Frequencies --    525.2895               539.6197               590.2105
 Red. masses --      3.2117                 3.6868                 5.0510
 Frc consts  --      0.5221                 0.6325                 1.0367
 IR Inten    --     14.3234                59.5540                44.3596

                     31                     32                     33
                      A                      A                      A
 Frequencies --    601.4286               621.7685               636.6036
 Red. masses --      1.1665                 2.3537                 5.8408
 Frc consts  --      0.2486                 0.5361                 1.3946
 IR Inten    --     97.2287                42.4077                 2.9196

                     34                     35                     36
                      A                      A                      A
 Frequencies --    639.1663               680.4350               715.4807
 Red. masses --      4.8323                 2.2990                 4.1981
 Frc consts  --      1.1631                 0.6271                 1.2662
 IR Inten    --      2.1633               102.3909               118.5257

                     37                     38                     39
                      A                      A                      A
 Frequencies --    719.7455               729.9427               784.7575
 Red. masses --      1.8850                 1.4784                 1.8406
 Frc consts  --      0.5753                 0.4641                 0.6679
 IR Inten    --     60.8734               130.8705                71.0359

                     40                     41                     42
                      A                      A                      A
 Frequencies --    791.5744               807.7232               840.9213
 Red. masses --      5.8476                 2.6781                 5.7349
 Frc consts  --      2.1588                 1.0295                 2.3894
 IR Inten    --     67.8813                41.6481                33.1579

                     43                     44                     45
                      A                      A                      A
 Frequencies --    863.1223               877.7974               881.2794
 Red. masses --      1.2593                 2.4722                 1.7557
 Frc consts  --      0.5527                 1.1223                 0.8034
 IR Inten    --      0.0900                 6.4330                 1.5458

                     46                     47                     48
                      A                      A                      A
 Frequencies --    935.0437               960.8880               969.9814
 Red. masses --      1.4704                 1.4452                 1.0951
 Frc consts  --      0.7574                 0.7862                 0.6071
 IR Inten    --     13.4382                 3.8287               127.6539

                     49                     50                     51
                      A                      A                      A
 Frequencies --   1002.4924              1015.8798              1018.6007
 Red. masses --      1.3457                 1.5290                 3.2072
 Frc consts  --      0.7968                 0.9297                 1.9606
 IR Inten    --      0.0274                 1.3853                 5.1552

                     52                     53                     54
                      A                      A                      A
 Frequencies --   1019.2308              1020.8585              1027.1435
 Red. masses --      1.3373                 3.1435                 1.7795
 Frc consts  --      0.8185                 1.9302                 1.1061
 IR Inten    --      0.1720                17.9080                66.0956

                     55                     56                     57
                      A                      A                      A
 Frequencies --   1027.4050              1030.2472              1047.5493
 Red. masses --      2.8786                 1.3472                 1.6814
 Frc consts  --      1.7903                 0.8425                 1.0871
 IR Inten    --     38.7259                 3.0049                25.4278

                     58                     59                     60
                      A                      A                      A
 Frequencies --   1060.3244              1066.0904              1075.0217
 Red. masses --      2.0525                 1.9045                 2.1647
 Frc consts  --      1.3596                 1.2753                 1.4739
 IR Inten    --     35.1281                 4.3429                31.4537

                     61                     62                     63
                      A                      A                      A
 Frequencies --   1094.5472              1111.3031              1118.3578
 Red. masses --      3.9818                 1.5757                 1.8746
 Frc consts  --      2.8106                 1.1465                 1.3814
 IR Inten    --     24.1448                25.2513               100.7109

                     64                     65                     66
                      A                      A                      A
 Frequencies --   1127.7001              1182.5401              1182.6470
 Red. masses --      1.8198                 1.1316                 1.1213
 Frc consts  --      1.3635                 0.9324                 0.9240
 IR Inten    --    103.4081                 0.9606                 3.9388

                     67                     68                     69
                      A                      A                      A
 Frequencies --   1189.4166              1209.6092              1209.7521
 Red. masses --      1.4123                 1.1225                 1.1420
 Frc consts  --      1.1772                 0.9677                 0.9847
 IR Inten    --     24.3660                 0.7034                39.6823

                     70                     71                     72
                      A                      A                      A
 Frequencies --   1247.7851              1277.1750              1303.6211
 Red. masses --      3.8607                 2.7393                 4.4378
 Frc consts  --      3.5416                 2.6327                 4.4434
 IR Inten    --    289.6844               363.0332                43.5784

                     73                     74                     75
                      A                      A                      A
 Frequencies --   1320.2669              1346.3367              1347.7415
 Red. masses --      5.0281                 1.3275                 3.8787
 Frc consts  --      5.1639                 1.4177                 4.1510
 IR Inten    --     83.1241                 1.8719               721.5894

                     76                     77                     78
                      A                      A                      A
 Frequencies --   1358.8093              1362.6442              1416.6429
 Red. masses --      1.4707                 1.5717                 1.2594
 Frc consts  --      1.5999                 1.7195                 1.4892
 IR Inten    --     12.2425                13.6529                14.0857

                     79                     80                     81
                      A                      A                      A
 Frequencies --   1450.1449              1463.4952              1478.9209
 Red. masses --      1.4688                 1.3363                 1.1536
 Frc consts  --      1.8198                 1.6863                 1.4866
 IR Inten    --    283.8399               187.5919                67.9053

                     82                     83                     84
                      A                      A                      A
 Frequencies --   1480.4285              1485.7189              1490.6518
 Red. masses --      1.8053                 1.9648                 1.0730
 Frc consts  --      2.3312                 2.5553                 1.4047
 IR Inten    --    228.0481                 9.0546                17.6001

                     85                     86                     87
                      A                      A                      A
 Frequencies --   1500.1876              1508.9209              1541.8035
 Red. masses --      1.7309                 1.1031                 2.3846
 Frc consts  --      2.2952                 1.4798                 3.3399
 IR Inten    --    328.9919                22.3783                92.6143

                     88                     89                     90
                      A                      A                      A
 Frequencies --   1547.9089              1574.3559              1641.9265
 Red. masses --      2.4675                 2.0918                 3.1956
 Frc consts  --      3.4833                 3.0548                 5.0758
 IR Inten    --    138.4005               688.9525                90.1798

                     91                     92                     93
                      A                      A                      A
 Frequencies --   1644.8782              1661.0848              1669.5444
 Red. masses --      1.5145                 4.3454                 5.4296
 Frc consts  --      2.4143                 7.0643                 8.9169
 IR Inten    --    144.5646               114.0776                46.9013

                     94                     95                     96
                      A                      A                      A
 Frequencies --   1673.0380              1689.6520              3056.7337
 Red. masses --      4.3540                 4.8991                 1.0340
 Frc consts  --      7.1804                 8.2406                 5.6923
 IR Inten    --     25.0271               407.1618                62.5546

                     97                     98                     99
                      A                      A                      A
 Frequencies --   3073.7517              3125.1553              3148.9431
 Red. masses --      1.0360                 1.1030                 1.1020
 Frc consts  --      5.7672                 6.3469                 6.4380
 IR Inten    --     10.7616                14.2957                 9.4942

                    100                    101                    102
                      A                      A                      A
 Frequencies --   3155.8989              3166.3790              3187.3801
 Red. masses --      1.1041                 1.1031                 1.0879
 Frc consts  --      6.4790                 6.5159                 6.5120
 IR Inten    --     22.0171                20.7675                12.9428

                    103                    104                    105
                      A                      A                      A
 Frequencies --   3189.4457              3193.5689              3197.1305
 Red. masses --      1.0869                 1.0877                 1.0882
 Frc consts  --      6.5145                 6.5361                 6.5538
 IR Inten    --      9.1967                 1.5208                 2.0005

                    106                    107                    108
                      A                      A                      A
 Frequencies --   3203.1002              3206.7102              3210.2897
 Red. masses --      1.0912                 1.0932                 1.0951
 Frc consts  --      6.5964                 6.6233                 6.6493
 IR Inten    --     10.7577                30.2487                41.9387

                    109                    110                    111
                      A                      A                      A
 Frequencies --   3221.3994              3221.4446              3273.0921
 Red. masses --      1.0985                 1.0984                 1.0923
 Frc consts  --      6.7162                 6.7160                 6.8943
 IR Inten    --     21.1578                22.0297                 5.7958

                    112                    113                    114
                      A                      A                      A
 Frequencies --   3480.2044              3604.0330              3639.9469
 Red. masses --      1.0563                 1.0924                 1.0764
 Frc consts  --      7.5377                 8.3597                 8.4024
 IR Inten    --     66.7083               101.2234                88.3803

 - Thermochemistry -
 -------------------
 Temperature   298.150 Kelvin.  Pressure   1.00000 Atm.
 Atom     1 has atomic number  6 and mass  12.00000

 Molecular mass:   346.06807 amu.
 Principal axes and moments of inertia in atomic units:
                           1         2         3
     Eigenvalues --  6181.807849805.98902**********
           X            0.99786   0.06228   0.02014
           Y           -0.06157   0.99751  -0.03431
           Z           -0.02223   0.03300   0.99921
 This molecule is an asymmetric top.
 Rotational symmetry number  1.
 Warning -- assumption of classical behavior for rotation
           may cause significant error
 Rotational temperatures (Kelvin)      0.01401     0.00883     0.00644
 Rotational constants (GHZ):           0.29194     0.18404     0.13428
    1 imaginary frequencies ignored.
 Zero-point vibrational energy     863785.8 (Joules/Mol)
                                  206.44977 (Kcal/Mol)
 Warning -- explicit consideration of  30 degrees of freedom as
           vibrations may cause significant error
 Vibrational temperatures:     36.52    40.92    53.09    67.32    91.74
          (Kelvin)            126.13   132.25   142.45   192.01   208.76
                              262.38   281.61   304.80   329.20   355.40
                              367.29   375.95   404.14   439.89   502.88
                              529.96   563.98   609.44   612.10   614.59
                              737.40   755.77   776.39   849.18   865.32
                              894.59   915.93   919.62   978.99  1029.42
                             1035.55  1050.22  1129.09  1138.90  1162.13
                             1209.90  1241.84  1262.95  1267.96  1345.32
                             1382.50  1395.59  1442.36  1461.62  1465.54
                             1466.45  1468.79  1477.83  1478.21  1482.30
                             1507.19  1525.57  1533.87  1546.72  1574.81
                             1598.92  1609.07  1622.51  1701.41  1701.57
                             1711.31  1740.36  1740.56  1795.28  1837.57
                             1875.62  1899.57  1937.08  1939.10  1955.02
                             1960.54  2038.23  2086.44  2105.64  2127.84
                             2130.01  2137.62  2144.72  2158.44  2171.00
                             2218.31  2227.10  2265.15  2362.37  2366.61
                             2389.93  2402.10  2407.13  2431.03  4397.96
                             4422.44  4496.40  4530.63  4540.63  4555.71
                             4585.93  4588.90  4594.83  4599.96  4608.55
                             4613.74  4618.89  4634.88  4634.94  4709.25
                             5007.24  5185.40  5237.07

 Zero-point correction=                           0.328999 (Hartree/Particle)
 Thermal correction to Energy=                    0.349221
 Thermal correction to Enthalpy=                  0.350165
 Thermal correction to Gibbs Free Energy=         0.277716
 Sum of electronic and zero-point Energies=          -3417.878545
 Sum of electronic and thermal Energies=             -3417.858322
 Sum of electronic and thermal Enthalpies=           -3417.857378
 Sum of electronic and thermal Free Energies=        -3417.929827

                     E (Thermal)             CV                S
                      KCal/Mol        Cal/Mol-Kelvin    Cal/Mol-Kelvin
 Total                  219.140             76.123            152.481
 Electronic               0.000              0.000              0.000
 Translational            0.889              2.981             43.419
 Rotational               0.889              2.981             35.054
 Vibrational            217.362             70.161             74.009
 Vibration     1          0.593              1.985              6.161
 Vibration     2          0.593              1.984              5.935
 Vibration     3          0.594              1.982              5.419
 Vibration     4          0.595              1.979              4.949
 Vibration     5          0.597              1.972              4.337
 Vibration     6          0.601              1.958              3.711
 Vibration     7          0.602              1.955              3.619
 Vibration     8          0.604              1.950              3.474
 Vibration     9          0.613              1.920              2.896
 Vibration    10          0.616              1.908              2.736
 Vibration    11          0.630              1.864              2.304
 Vibration    12          0.636              1.846              2.173
 Vibration    13          0.643              1.823              2.028
 Vibration    14          0.651              1.797              1.888
 Vibration    15          0.661              1.768              1.752
 Vibration    16          0.666              1.754              1.694
 Vibration    17          0.669              1.744              1.653
 Vibration    18          0.681              1.709              1.528
 Vibration    19          0.696              1.663              1.385
 Vibration    20          0.727              1.576              1.168
 Vibration    21          0.741              1.537              1.087
 Vibration    22          0.759              1.487              0.993
 Vibration    23          0.786              1.419              0.880
 Vibration    24          0.787              1.415              0.874
 Vibration    25          0.789              1.411              0.868
 Vibration    26          0.868              1.222              0.628
 Vibration    27          0.880              1.194              0.598
 Vibration    28          0.895              1.162              0.566
 Vibration    29          0.948              1.053              0.467
 Vibration    30          0.960              1.029              0.447

 Optimization completed.
    -- Stationary point found.
 Normal termination of Gaussian 16 at Wed Feb 17 23:01:52 2021.
