 Gaussian 16, Revision A.03,
 Gaussian 16:  ES64L-G16RevA.03 25-Dec-2016

 ----------------------------------------------------------------------
 # wB97XD def2tzvp, opt=(ts, noeigen, calcfc, maxcycles=70, maxstep=8),
  freq=noraman, scrf=(iefpcm, solvent=water)
 ----------------------------------------------------------------------

 ------------------------
 1_iteration/TS-582-1.out
 ------------------------
 Symbolic Z-matrix:
 Charge =  0 Multiplicity = 1

 SCF Done:  E(RwB97XD) =  -960.020015946     A.U. after   15 cycles
 SCF Done:  E(RwB97XD) =  -960.021067444     A.U. after   12 cycles
 SCF Done:  E(RwB97XD) =  -960.022046255     A.U. after   12 cycles
 SCF Done:  E(RwB97XD) =  -960.023163635     A.U. after   12 cycles
 SCF Done:  E(RwB97XD) =  -960.024064875     A.U. after   11 cycles
 SCF Done:  E(RwB97XD) =  -960.024623556     A.U. after   11 cycles
 SCF Done:  E(RwB97XD) =  -960.024683780     A.U. after   11 cycles
 SCF Done:  E(RwB97XD) =  -960.024545937     A.U. after   11 cycles
 SCF Done:  E(RwB97XD) =  -960.024692457     A.U. after   11 cycles
 SCF Done:  E(RwB97XD) =  -960.024592683     A.U. after   11 cycles
 SCF Done:  E(RwB97XD) =  -960.024718541     A.U. after   11 cycles
 SCF Done:  E(RwB97XD) =  -960.024672520     A.U. after   11 cycles
 SCF Done:  E(RwB97XD) =  -960.024732026     A.U. after   11 cycles
 SCF Done:  E(RwB97XD) =  -960.024733605     A.U. after    9 cycles
 SCF Done:  E(RwB97XD) =  -960.024734145     A.U. after    9 cycles
 SCF Done:  E(RwB97XD) =  -960.024734403     A.U. after    8 cycles
 SCF Done:  E(RwB97XD) =  -960.024734604     A.U. after    7 cycles
 SCF Done:  E(RwB97XD) =  -960.024734650     A.U. after    6 cycles
 SCF Done:  E(RwB97XD) =  -960.024734635     A.U. after    7 cycles
 Optimization completed.
    -- Stationary point found.
 Normal termination of Gaussian 16 at Tue Feb 16 16:48:31 2021.

 ---------------------------------------------------------------------
 #N Geom=AllCheck Guess=TCheck SCRF=Check GenChk RwB97XD/def2TZVP Freq
 ---------------------------------------------------------------------

 Structure from the checkpoint file:  "/beegfs/scratch/user/q/tla25/Gau-6415.chk"
 ------------------------
 1_iteration/TS-582-1.out
 ------------------------
 Charge =  0 Multiplicity = 1

                         Standard orientation:
 ---------------------------------------------------------------------
 Center     Atomic      Atomic             Coordinates (Angstroms)
 Number     Number       Type             X           Y           Z
 ---------------------------------------------------------------------
      1          6           0        0.047657    0.602986   -0.337443
      2          6           0        1.041435   -0.404363   -0.012394
      3          8           0        0.728579   -1.578619    0.277145
      4          6           0       -1.228319    0.478508    0.189526
      5          6           0       -2.111261   -1.258259   -1.833582
      6          1           0       -2.186440   -2.288535   -2.183596
      7          1           0       -2.990682   -0.706534   -2.160467
      8          1           0       -1.219178   -0.805842   -2.270838
      9          7           0       -1.985880   -1.186132   -0.387401
     10          1           0       -2.837828   -1.428683    0.102573
     11          1           0       -1.200249   -1.749820   -0.056374
     12          6           0       -2.306290    1.458433   -0.170274
     13          1           0       -2.415591    1.524939   -1.252340
     14          1           0       -3.261046    1.167269    0.262040
     15          1           0       -2.042189    2.448623    0.204271
     16         17           0       -1.365101    0.063529    1.968737
     17          6           0        0.305261    1.623245   -1.428981
     18          1           0        0.350518    2.656011   -1.066054
     19          1           0        1.253038    1.414208   -1.923977
     20          1           0       -0.460482    1.594791   -2.208423
     21          7           0        2.367873   -0.072826   -0.086860
     22          6           0        2.863376    1.263406    0.167645
     23          6           0        3.361556   -1.119503   -0.005231
     24          1           0        2.042883    1.930673    0.415208
     25          1           0        3.550771    1.241710    1.018737
     26          1           0        3.401638    1.666918   -0.694521
     27          1           0        2.980045   -2.030367   -0.458765
     28          1           0        4.257585   -0.800439   -0.540467
     29          1           0        3.640859   -1.339964    1.031523
 ---------------------------------------------------------------------

 SCF Done:  E(RwB97XD) =  -960.024734635     A.U. after    1 cycles

 The electronic state is 1-A.
 Alpha  occ. eigenvalues -- -101.67985 -19.19806 -14.46800 -14.44809 -10.38615
 Alpha  occ. eigenvalues --  -10.36843 -10.31143 -10.30463 -10.30043 -10.28520
 Alpha  occ. eigenvalues --  -10.27140 -10.25131  -9.56592  -7.31183  -7.30397
 Alpha  occ. eigenvalues --   -7.30370  -1.12260  -1.03120  -1.02134  -0.95459
 Alpha  occ. eigenvalues --   -0.87832  -0.83155  -0.80768  -0.78245  -0.78173
 Alpha  occ. eigenvalues --   -0.75176  -0.66176  -0.62581  -0.60745  -0.58101
 Alpha  occ. eigenvalues --   -0.57180  -0.55906  -0.55290  -0.54400  -0.51993
 Alpha  occ. eigenvalues --   -0.51240  -0.49404  -0.48771  -0.48289  -0.47912
 Alpha  occ. eigenvalues --   -0.47308  -0.46395  -0.45813  -0.44849  -0.44383
 Alpha  occ. eigenvalues --   -0.44072  -0.42964  -0.38619  -0.37471  -0.33697
 Alpha  occ. eigenvalues --   -0.31304  -0.25723
 Alpha virt. eigenvalues --    0.06386   0.08428   0.10231   0.12250   0.13492
 Alpha virt. eigenvalues --    0.14840   0.15845   0.16049   0.16448   0.17210
 Alpha virt. eigenvalues --    0.18369   0.18608   0.19053   0.19433   0.20220

 Mulliken charges:
               1
     1  C   -0.353300
     2  C    0.352098
     3  O   -0.586488
     4  C    0.213245
     5  C   -0.316106
     6  H    0.152380
     7  H    0.156107
     8  H    0.152363
     9  N   -0.305421
    10  H    0.272707
    11  H    0.272350
    12  C   -0.373116
    13  H    0.138804
    14  H    0.150453
    15  H    0.153182
    16  Cl  -0.190789
    17  C   -0.397445
    18  H    0.128694
    19  H    0.140916
    20  H    0.126817
    21  N   -0.126299
    22  C   -0.296150
    23  C   -0.292983
    24  H    0.154533
    25  H    0.136320
    26  H    0.137818
    27  H    0.136143
    28  H    0.135415
    29  H    0.127749
 Sum of Mulliken charges =  -0.00000

 Dipole moment (field-independent basis, Debye):
    X=             -2.5657    Y=              1.4216    Z=             -4.0182  Tot=              4.9750
 Quadrupole moment (field-independent basis, Debye-Ang):
   XX=            -62.5560   YY=            -81.8854   ZZ=            -84.4352
   XY=              6.7893   XZ=              5.3924   YZ=              2.4516

  Exact polarizability: 219.234  10.547 172.327   0.115  -3.417 166.128
 Approx polarizability: 162.681   8.272 145.025  -1.398  -3.902 139.215

 ******    1 imaginary frequencies (negative Signs) ******

                      1                      2                      3
                      A                      A                      A
 Frequencies --   -425.1766                57.8424                87.9136
 Red. masses --      5.6026                 4.0217                 3.0832
 Frc consts  --      0.5967                 0.0079                 0.0140
 IR Inten    --    770.8298                 4.1869                 4.6988

                      4                      5                      6
                      A                      A                      A
 Frequencies --    103.3797               119.1593               132.8900
 Red. masses --      2.9238                 1.8681                 1.9535
 Frc consts  --      0.0184                 0.0156                 0.0203
 IR Inten    --      2.2351                 2.4585                22.4481

                      7                      8                      9
                      A                      A                      A
 Frequencies --    161.2501               165.3293               176.7079
 Red. masses --      1.5227                 1.7661                 2.3842
 Frc consts  --      0.0233                 0.0284                 0.0439
 IR Inten    --      1.9742                 2.8005                13.2924

                     10                     11                     12
                      A                      A                      A
 Frequencies --    194.8500               211.2895               219.9768
 Red. masses --      1.7149                 2.0252                 1.2797
 Frc consts  --      0.0384                 0.0533                 0.0365
 IR Inten    --      4.9733                 5.5688                 1.2471

                     13                     14                     15
                      A                      A                      A
 Frequencies --    238.3384               264.2577               278.7317
 Red. masses --      1.9488                 1.3276                 2.1970
 Frc consts  --      0.0652                 0.0546                 0.1006
 IR Inten    --     12.4415                 3.5421                 8.0890

                     16                     17                     18
                      A                      A                      A
 Frequencies --    302.2759               323.2435               360.7112
 Red. masses --      2.8153                 3.4879                 3.5862
 Frc consts  --      0.1516                 0.2147                 0.2749
 IR Inten    --     36.3334                25.9461                11.0034

                     19                     20                     21
                      A                      A                      A
 Frequencies --    379.8441               390.5071               416.4932
 Red. masses --      3.2541                 2.7761                 2.4991
 Frc consts  --      0.2766                 0.2494                 0.2554
 IR Inten    --     38.3235                24.4263                 3.6390

                     22                     23                     24
                      A                      A                      A
 Frequencies --    447.1730               521.2392               591.5137
 Red. masses --      5.4310                 3.5781                 3.5460
 Frc consts  --      0.6398                 0.5728                 0.7310
 IR Inten    --     38.6931                46.3866                78.7552

                     25                     26                     27
                      A                      A                      A
 Frequencies --    657.3792               732.7700               750.1581
 Red. masses --      3.3895                 1.8145                 2.9310
 Frc consts  --      0.8630                 0.5741                 0.9718
 IR Inten    --     69.7731                37.6431               118.3885

                     28                     29                     30
                      A                      A                      A
 Frequencies --    794.4472               917.7553               992.1954
 Red. masses --      6.5176                 3.0669                 1.0854
 Frc consts  --      2.4237                 1.5220                 0.6296
 IR Inten    --     44.9669               105.1679                64.0119

                     31                     32                     33
                      A                      A                      A
 Frequencies --   1007.7870              1047.9515              1067.3118
 Red. masses --      1.7360                 1.3704                 1.5237
 Frc consts  --      1.0388                 0.8867                 1.0227
 IR Inten    --     31.8443                70.1147                44.1118

                     34                     35                     36
                      A                      A                      A
 Frequencies --   1071.4649              1089.2076              1092.1499
 Red. masses --      1.3816                 1.3952                 2.5530
 Frc consts  --      0.9345                 0.9752                 1.7942
 IR Inten    --     15.7591                36.3919                 7.2285

                     37                     38                     39
                      A                      A                      A
 Frequencies --   1099.8649              1103.3109              1134.2773
 Red. masses --      1.6166                 1.9896                 1.2311
 Frc consts  --      1.1522                 1.4270                 0.9332
 IR Inten    --    280.7247               112.0869                 0.8612

                     40                     41                     42
                      A                      A                      A
 Frequencies --   1169.4745              1185.1405              1214.5770
 Red. masses --      1.4132                 2.7428                 1.4773
 Frc consts  --      1.1388                 2.2698                 1.2840
 IR Inten    --      8.4228               149.5430                52.8525

                     43                     44                     45
                      A                      A                      A
 Frequencies --   1282.4419              1320.0775              1358.1324
 Red. masses --      4.8749                 4.8891                 1.2891
 Frc consts  --      4.7238                 5.0197                 1.4009
 IR Inten    --     44.1531                39.4116                18.3181

                     46                     47                     48
                      A                      A                      A
 Frequencies --   1404.2067              1414.8327              1431.1111
 Red. masses --      1.3635                 1.6765                 1.5193
 Frc consts  --      1.5841                 1.9772                 1.8333
 IR Inten    --     98.9845               344.5320               384.9465

                     49                     50                     51
                      A                      A                      A
 Frequencies --   1446.4342              1450.8845              1465.4317
 Red. masses --      1.2080                 1.2617                 1.5519
 Frc consts  --      1.4891                 1.5648                 1.9636
 IR Inten    --     47.4410                13.6191               162.3318

                     52                     53                     54
                      A                      A                      A
 Frequencies --   1473.3512              1477.8608              1483.1786
 Red. masses --      1.1622                 1.0574                 1.0790
 Frc consts  --      1.4864                 1.3607                 1.3984
 IR Inten    --     51.8334                 9.6975                 5.9811

                     55                     56                     57
                      A                      A                      A
 Frequencies --   1487.5321              1493.2806              1496.0477
 Red. masses --      1.2439                 1.0936                 1.0501
 Frc consts  --      1.6216                 1.4368                 1.3848
 IR Inten    --     18.3400                92.2921                21.2503

                     58                     59                     60
                      A                      A                      A
 Frequencies --   1500.9914              1505.5964              1509.5298
 Red. masses --      1.0604                 1.0532                 1.0710
 Frc consts  --      1.4075                 1.4067                 1.4379
 IR Inten    --     22.0186                18.5730                67.3319

                     61                     62                     63
                      A                      A                      A
 Frequencies --   1515.5307              1537.4563              1599.8384
 Red. masses --      1.1591                 1.4932                 3.9257
 Frc consts  --      1.5686                 2.0796                 5.9200
 IR Inten    --     93.6576               159.6654               693.5717

                     64                     65                     66
                      A                      A                      A
 Frequencies --   1645.3122              3017.9556              3019.5947
 Red. masses --      1.2470                 1.0473                 1.0479
 Frc consts  --      1.9889                 5.6203                 5.6295
 IR Inten    --     30.6103               146.1276                66.8574

                     67                     68                     69
                      A                      A                      A
 Frequencies --   3030.1304              3057.6169              3070.0606
 Red. masses --      1.0403                 1.0337                 1.0439
 Frc consts  --      5.6277                 5.6941                 5.7971
 IR Inten    --    141.2456                45.9708                14.3473

                     70                     71                     72
                      A                      A                      A
 Frequencies --   3074.2895              3080.7595              3096.7832
 Red. masses --      1.0856                 1.1028                 1.0919
 Frc consts  --      6.0454                 6.1667                 6.1696
 IR Inten    --     53.6978                74.2526                36.7342

                     73                     74                     75
                      A                      A                      A
 Frequencies --   3128.2016              3132.9371              3144.1958
 Red. masses --      1.1039                 1.0964                 1.1012
 Frc consts  --      6.3643                 6.3403                 6.4138
 IR Inten    --     16.0944                31.2127                14.5174

                     76                     77                     78
                      A                      A                      A
 Frequencies --   3156.9248              3165.5131              3169.4687
 Red. masses --      1.1046                 1.1033                 1.0992
 Frc consts  --      6.4859                 6.5139                 6.5058
 IR Inten    --     24.0239                13.8364                14.7791

                     79                     80                     81
                      A                      A                      A
 Frequencies --   3176.7330              3400.2970              3591.9568
 Red. masses --      1.0966                 1.0634                 1.0864
 Frc consts  --      6.5203                 7.2443                 8.2583
 IR Inten    --     11.7194               162.3992                90.4595

 - Thermochemistry -
 -------------------
 Temperature   298.150 Kelvin.  Pressure   1.00000 Atm.
 Atom     1 has atomic number  6 and mass  12.00000

 Molecular mass:   192.10294 amu.
 Principal axes and moments of inertia in atomic units:
                           1         2         3
     Eigenvalues --  1646.053383338.792933366.50665
           X            0.99924   0.03901   0.00102
           Y           -0.00750   0.16626   0.98605
           Z           -0.03830   0.98531  -0.16642
 This molecule is an asymmetric top.
 Rotational symmetry number  1.
 Warning -- assumption of classical behavior for rotation
           may cause significant error
 Rotational temperatures (Kelvin)      0.05262     0.02594     0.02573
 Rotational constants (GHZ):           1.09641     0.54054     0.53609
    1 imaginary frequencies ignored.
 Zero-point vibrational energy     658452.2 (Joules/Mol)
                                  157.37386 (Kcal/Mol)
 Warning -- explicit consideration of  23 degrees of freedom as
           vibrations may cause significant error
 Vibrational temperatures:     83.22   126.49   148.74   171.44   191.20
          (Kelvin)            232.00   237.87   254.24   280.35   304.00
                              316.50   342.92   380.21   401.03   434.91
                              465.08   518.98   546.51   561.85   599.24
                              643.38   749.95   851.06   945.82  1054.29
                             1079.31  1143.03  1320.45  1427.55  1449.98
                             1507.77  1535.62  1541.60  1567.13  1571.36
                             1582.46  1587.42  1631.97  1682.61  1705.15
                             1747.51  1845.15  1899.30  1954.05  2020.34
                             2035.63  2059.05  2081.10  2087.50  2108.43
                             2119.82  2126.31  2133.96  2140.23  2148.50
                             2152.48  2159.59  2166.22  2171.88  2180.51
                             2212.06  2301.81  2367.24  4342.17  4344.52
                             4359.68  4399.23  4417.13  4423.22  4432.53
                             4455.58  4500.78  4507.60  4523.80  4542.11
                             4554.47  4560.16  4570.61  4892.27  5168.02

 Zero-point correction=                           0.250791 (Hartree/Particle)
 Thermal correction to Energy=                    0.265862
 Thermal correction to Enthalpy=                  0.266806
 Thermal correction to Gibbs Free Energy=         0.209712
 Sum of electronic and zero-point Energies=           -959.773943
 Sum of electronic and thermal Energies=              -959.758873
 Sum of electronic and thermal Enthalpies=            -959.757928
 Sum of electronic and thermal Free Energies=         -959.815022

                     E (Thermal)             CV                S
                      KCal/Mol        Cal/Mol-Kelvin    Cal/Mol-Kelvin
 Total                  166.831             54.146            120.165
 Electronic               0.000              0.000              0.000
 Translational            0.889              2.981             41.664
 Rotational               0.889              2.981             31.293
 Vibrational            165.054             48.185             47.208
 Vibration     1          0.596              1.974              4.529
 Vibration     2          0.601              1.958              3.706
 Vibration     3          0.605              1.946              3.390
 Vibration     4          0.609              1.933              3.114
 Vibration     5          0.613              1.920              2.904
 Vibration     6          0.622              1.890              2.535
 Vibration     7          0.624              1.885              2.488
 Vibration     8          0.628              1.871              2.363
 Vibration     9          0.636              1.847              2.181
 Vibration    10          0.643              1.824              2.033
 Vibration    11          0.647              1.811              1.959
 Vibration    12          0.656              1.782              1.815
 Vibration    13          0.671              1.738              1.633
 Vibration    14          0.679              1.713              1.541
 Vibration    15          0.694              1.669              1.404
 Vibration    16          0.708              1.629              1.294
 Vibration    17          0.735              1.553              1.119
 Vibration    18          0.750              1.513              1.040
 Vibration    19          0.758              1.490              0.998
 Vibration    20          0.780              1.434              0.904
 Vibration    21          0.806              1.367              0.804
 Vibration    22          0.876              1.203              0.607
 Vibration    23          0.949              1.050              0.464

 Optimization completed.
    -- Stationary point found.
 Normal termination of Gaussian 16 at Tue Feb 16 17:28:42 2021.
