 Gaussian 16, Revision A.03,
 Gaussian 16:  ES64L-G16RevA.03 25-Dec-2016

 ----------------------------------------------------------------------
 # wB97XD def2tzvp, opt=(ts, noeigen, calcfc, maxcycles=70, maxstep=8),
  freq=noraman, scrf=(iefpcm, solvent=water)
 ----------------------------------------------------------------------

 -----------------------
 1_iteration/TS-52-1.out
 -----------------------
 Symbolic Z-matrix:
 Charge =  0 Multiplicity = 1

 SCF Done:  E(RwB97XD) =  -633.405100518     A.U. after   14 cycles
 Optimization completed.
    -- Stationary point found.
 Normal termination of Gaussian 16 at Sun Jan 31 04:12:20 2021.

 ---------------------------------------------------------------------
 #N Geom=AllCheck Guess=TCheck SCRF=Check GenChk RwB97XD/def2TZVP Freq
 ---------------------------------------------------------------------

 Structure from the checkpoint file:  "/beegfs/scratch/user/q/tla25/Gau-115161.chk"
 -----------------------
 1_iteration/TS-52-1.out
 -----------------------
 Charge =  0 Multiplicity = 1

                         Standard orientation:
 ---------------------------------------------------------------------
 Center     Atomic      Atomic             Coordinates (Angstroms)
 Number     Number       Type             X           Y           Z
 ---------------------------------------------------------------------
      1          6           0       -0.981860   -0.421850   -0.327979
      2          6           0       -2.289290   -0.423290    0.209651
      3          8           0       -2.704370    0.201530    1.186111
      4          6           0        0.033170    0.344310    0.276651
      5          6           0       -1.165900    2.679150   -0.536909
      6          1           0       -1.106779    3.602240   -1.111819
      7          1           0       -1.847780    1.984870   -1.027049
      8          1           0       -1.534310    2.887880    0.464331
      9          7           0        0.140200    2.033410   -0.438629
     10          1           0        0.557500    1.915960   -1.355929
     11          1           0        0.787950    2.574770    0.124471
     12          6           0        1.462520   -0.071780    0.149281
     13          6           0        1.978730   -0.567480   -1.047189
     14          6           0        3.307570   -0.947511   -1.138169
     15          6           0        4.142880   -0.840591   -0.033409
     16          6           0        3.640750   -0.344841    1.159861
     17          6           0        2.310890    0.042610    1.246461
     18          1           0        1.338630   -0.657610   -1.916549
     19          1           0        3.693700   -1.329551   -2.074759
     20          1           0        5.180490   -1.140801   -0.105119
     21          1           0        4.284320   -0.256241    2.025971
     22          1           0        1.924340    0.433650    2.180501
     23          1           0       -0.217480    0.685160    1.277701
     24          1           0       -0.780820   -1.029790   -1.198129
     25          8           0       -3.133080   -1.254079   -0.478729
     26          6           0       -4.461920   -1.341469    0.004891
     27          1           0       -4.977950   -2.032249   -0.658899
     28          1           0       -4.489860   -1.725099    1.026181
     29          1           0       -4.958990   -0.370219   -0.018409
 ---------------------------------------------------------------------

 SCF Done:  E(RwB97XD) =  -633.405100518     A.U. after    1 cycles

 The electronic state is 1-A.
 Alpha  occ. eigenvalues --  -19.26782 -19.19699 -14.49378 -10.37924 -10.33730
 Alpha  occ. eigenvalues --  -10.31973 -10.31547 -10.30447 -10.29367 -10.29359
 Alpha  occ. eigenvalues --  -10.29307 -10.29283 -10.29196 -10.23845  -1.17739
 Alpha  occ. eigenvalues --   -1.08151  -1.04756  -0.97231  -0.89746  -0.85498
 Alpha  occ. eigenvalues --   -0.84473  -0.80424  -0.79034  -0.73127  -0.70946
 Alpha  occ. eigenvalues --   -0.67873  -0.64149  -0.62809  -0.61149  -0.58287
 Alpha  occ. eigenvalues --   -0.57239  -0.55815  -0.55174  -0.54723  -0.54373
 Alpha  occ. eigenvalues --   -0.52869  -0.51286  -0.50876  -0.48326  -0.48057
 Alpha  occ. eigenvalues --   -0.47653  -0.46221  -0.45672  -0.44185  -0.43055
 Alpha  occ. eigenvalues --   -0.42456  -0.42244  -0.36886  -0.34238  -0.34027
 Alpha  occ. eigenvalues --   -0.33623  -0.26594
 Alpha virt. eigenvalues --    0.03257   0.04883   0.09684   0.11058   0.13115
 Alpha virt. eigenvalues --    0.13447   0.13710   0.15626   0.16483   0.16947
 Alpha virt. eigenvalues --    0.17390   0.18017   0.18493   0.18964   0.19263

 Mulliken charges:
               1
     1  C   -0.484287
     2  C    0.417850
     3  O   -0.546338
     4  C   -0.043672
     5  C   -0.284364
     6  H    0.158432
     7  H    0.150477
     8  H    0.152154
     9  N   -0.267297
    10  H    0.280394
    11  H    0.289250
    12  C    0.236055
    13  C   -0.262940
    14  C   -0.140918
    15  C   -0.150784
    16  C   -0.128466
    17  C   -0.230510
    18  H    0.156210
    19  H    0.144789
    20  H    0.146340
    21  H    0.144830
    22  H    0.142304
    23  H    0.142660
    24  H    0.120349
    25  O   -0.325054
    26  C   -0.183161
    27  H    0.131097
    28  H    0.117839
    29  H    0.116759
 Sum of Mulliken charges =  -0.00000

 Dipole moment (field-independent basis, Debye):
    X=              5.7925    Y=              5.6545    Z=             -2.9575  Tot=              8.6182
 Quadrupole moment (field-independent basis, Debye-Ang):
   XX=            -82.3257   YY=            -73.1703   ZZ=            -81.3431
   XY=              0.9818   XZ=              5.8536   YZ=             -1.9371

  Exact polarizability: 261.784   1.347 171.100  -1.191  13.402 184.349
 Approx polarizability: 189.210  -1.785 140.902  -0.542  14.264 162.247

 ******    1 imaginary frequencies (negative Signs) ******

                      1                      2                      3
                      A                      A                      A
 Frequencies --   -332.5736                34.7449                42.6527
 Red. masses --      6.4014                 3.0823                 2.8643
 Frc consts  --      0.4172                 0.0022                 0.0031
 IR Inten    --    810.8750                 0.2897                 2.6922

                      4                      5                      6
                      A                      A                      A
 Frequencies --     68.3438                77.5004                93.1991
 Red. masses --      2.7411                 4.2301                 3.5593
 Frc consts  --      0.0075                 0.0150                 0.0182
 IR Inten    --      3.6512                 6.2086                10.5545

                      7                      8                      9
                      A                      A                      A
 Frequencies --    102.2970               126.9916               159.3654
 Red. masses --      2.9300                 1.7822                 1.7452
 Frc consts  --      0.0181                 0.0169                 0.0261
 IR Inten    --     15.4595                 6.3605                 4.3319

                     10                     11                     12
                      A                      A                      A
 Frequencies --    178.3009               222.0458               243.6984
 Red. masses --      1.2727                 4.3078                 4.1720
 Frc consts  --      0.0238                 0.1251                 0.1460
 IR Inten    --      5.4848                 4.1597                 9.7233

                     13                     14                     15
                      A                      A                      A
 Frequencies --    287.5598               297.6409               345.4165
 Red. masses --      3.4146                 4.9415                 4.1484
 Frc consts  --      0.1664                 0.2579                 0.2916
 IR Inten    --     18.8660                21.4120                28.6031

                     16                     17                     18
                      A                      A                      A
 Frequencies --    417.5545               423.1228               527.9816
 Red. masses --      2.9852                 3.0847                 2.6304
 Frc consts  --      0.3067                 0.3254                 0.4320
 IR Inten    --     14.1006                12.9053                10.8549

                     19                     20                     21
                      A                      A                      A
 Frequencies --    548.4492               612.4693               638.1231
 Red. masses --      2.6153                 5.2055                 6.1629
 Frc consts  --      0.4635                 1.1505                 1.4786
 IR Inten    --     60.2229                69.2323                 0.2369

                     22                     23                     24
                      A                      A                      A
 Frequencies --    665.5707               714.3602               726.5879
 Red. masses --      1.3285                 3.7889                 1.6074
 Frc consts  --      0.3467                 1.1392                 0.5000
 IR Inten    --    141.0439                22.5395                92.2116

                     25                     26                     27
                      A                      A                      A
 Frequencies --    754.0265               798.1000               807.1260
 Red. masses --      1.9774                 4.6960                 2.3820
 Frc consts  --      0.6624                 1.7624                 0.9143
 IR Inten    --     14.7332                64.3749                15.1238

                     28                     29                     30
                      A                      A                      A
 Frequencies --    851.4610               879.2421               960.4456
 Red. masses --      4.4755                 1.2476                 1.5276
 Frc consts  --      1.9117                 0.5682                 0.8302
 IR Inten    --     40.0837                 0.2630                 3.0235

                     31                     32                     33
                      A                      A                      A
 Frequencies --    970.4634              1013.7854              1017.5806
 Red. masses --      3.6308                 1.2757                 1.2112
 Frc consts  --      2.0147                 0.7725                 0.7390
 IR Inten    --     33.4053                 8.5952                20.8911

                     34                     35                     36
                      A                      A                      A
 Frequencies --   1026.3262              1032.6754              1052.3023
 Red. masses --      6.0246                 1.3122                 1.3903
 Frc consts  --      3.7389                 0.8245                 0.9070
 IR Inten    --      0.2426                 0.3870                68.7316

                     37                     38                     39
                      A                      A                      A
 Frequencies --   1063.6421              1082.3088              1098.5449
 Red. masses --      2.0353                 3.1266                 4.4886
 Frc consts  --      1.3567                 2.1579                 3.1915
 IR Inten    --      4.1267                92.6498               125.6882

                     40                     41                     42
                      A                      A                      A
 Frequencies --   1114.2571              1179.8059              1185.4206
 Red. masses --      1.5896                 1.2816                 1.1512
 Frc consts  --      1.1628                 1.0511                 0.9531
 IR Inten    --     19.8066                 2.5039                20.5519

                     43                     44                     45
                      A                      A                      A
 Frequencies --   1190.0250              1208.2632              1209.2104
 Red. masses --      2.0182                 1.3205                 1.8489
 Frc consts  --      1.6839                 1.1358                 1.5929
 IR Inten    --    790.7337                82.4683                 3.5606

                     46                     47                     48
                      A                      A                      A
 Frequencies --   1215.3645              1227.1105              1248.9345
 Red. masses --      1.1777                 1.8393                 1.5268
 Frc consts  --      1.0250                 1.6318                 1.4031
 IR Inten    --      7.2805                52.9253                16.7698

                     49                     50                     51
                      A                      A                      A
 Frequencies --   1283.1035              1312.0661              1344.1690
 Red. masses --      1.2347                 3.7591                 1.5539
 Frc consts  --      1.1976                 3.8129                 1.6542
 IR Inten    --     48.6047                50.3340                29.5933

                     52                     53                     54
                      A                      A                      A
 Frequencies --   1356.2489              1371.4865              1447.5848
 Red. masses --      2.2136                 1.3735                 1.1777
 Frc consts  --      2.3990                 1.5221                 1.4541
 IR Inten    --     54.8713                72.7643                38.7615

                     55                     56                     57
                      A                      A                      A
 Frequencies --   1470.1526              1478.4627              1483.4190
 Red. masses --      1.2692                 1.0499                 1.0419
 Frc consts  --      1.6162                 1.3522                 1.3509
 IR Inten    --     12.2928                12.2311                13.4185

                     58                     59                     60
                      A                      A                      A
 Frequencies --   1490.2604              1498.4747              1499.8349
 Red. masses --      1.5464                 1.2867                 1.0568
 Frc consts  --      2.0234                 1.7023                 1.4007
 IR Inten    --    261.5526                17.3768                19.6451

                     61                     62                     63
                      A                      A                      A
 Frequencies --   1523.9545              1552.9688              1639.9570
 Red. masses --      2.3830                 2.5862                 1.0920
 Frc consts  --      3.2607                 3.6748                 1.7303
 IR Inten    --    575.8162                84.6030                89.8434

                     64                     65                     66
                      A                      A                      A
 Frequencies --   1654.2069              1668.7998              1678.6162
 Red. masses --      6.0288                 9.1955                 5.8534
 Frc consts  --      9.7199                15.0881                 9.7177
 IR Inten    --    129.8064               748.1367                 6.9720

                     67                     68                     69
                      A                      A                      A
 Frequencies --   3050.2021              3073.0415              3120.0127
 Red. masses --      1.0313                 1.0330                 1.1061
 Frc consts  --      5.6532                 5.7478                 6.3438
 IR Inten    --     78.5108                35.2961                52.0105

                     70                     71                     72
                      A                      A                      A
 Frequencies --   3150.0991              3152.7698              3156.5249
 Red. masses --      1.0889                 1.1052                 1.1042
 Frc consts  --      6.3665                 6.4725                 6.4823
 IR Inten    --     12.9134                 5.2907                34.7330

                     73                     74                     75
                      A                      A                      A
 Frequencies --   3177.3576              3190.0595              3195.3520
 Red. masses --      1.1056                 1.0880                 1.0874
 Frc consts  --      6.5764                 6.5237                 6.5414
 IR Inten    --     11.0491                 8.6994                 1.3885

                     76                     77                     78
                      A                      A                      A
 Frequencies --   3204.2774              3212.5603              3222.2896
 Red. masses --      1.0908                 1.0949                 1.0924
 Frc consts  --      6.5985                 6.6576                 6.6831
 IR Inten    --      8.9307                29.9092                14.8845

                     79                     80                     81
                      A                      A                      A
 Frequencies --   3223.7153              3510.1365              3592.1605
 Red. masses --      1.0951                 1.0509                 1.0965
 Frc consts  --      6.7051                 7.6288                 8.3364
 IR Inten    --     15.5334                37.1191                44.0104

 - Thermochemistry -
 -------------------
 Temperature   298.150 Kelvin.  Pressure   1.00000 Atm.
 Atom     1 has atomic number  6 and mass  12.00000

 Molecular mass:   193.11028 amu.
 Principal axes and moments of inertia in atomic units:
                           1         2         3
     Eigenvalues --  1409.973725375.486505894.43835
           X            1.00000  -0.00056   0.00261
           Y            0.00057   0.99999  -0.00541
           Z           -0.00261   0.00541   0.99998
 This molecule is an asymmetric top.
 Rotational symmetry number  1.
 Warning -- assumption of classical behavior for rotation
           may cause significant error
 Rotational temperatures (Kelvin)      0.06143     0.01611     0.01469
 Rotational constants (GHZ):           1.27998     0.33574     0.30618
    1 imaginary frequencies ignored.
 Zero-point vibrational energy     644336.9 (Joules/Mol)
                                  154.00022 (Kcal/Mol)
 Warning -- explicit consideration of  19 degrees of freedom as
           vibrations may cause significant error
 Vibrational temperatures:     49.99    61.37    98.33   111.51   134.09
          (Kelvin)            147.18   182.71   229.29   256.54   319.47
                              350.63   413.73   428.24   496.98   600.77
                              608.78   759.65   789.10   881.21   918.12
                              957.61  1027.81  1045.40  1084.88  1148.29
                             1161.27  1225.06  1265.03  1381.87  1396.28
                             1458.61  1464.07  1476.65  1485.79  1514.03
                             1530.34  1557.20  1580.56  1603.17  1697.48
                             1705.56  1712.18  1738.42  1739.78  1748.64
                             1765.54  1796.94  1846.10  1887.77  1933.96
                             1951.34  1973.26  2082.75  2115.22  2127.18
                             2134.31  2144.15  2155.97  2157.93  2192.63
                             2234.38  2359.53  2380.03  2401.03  2415.15
                             4388.56  4421.42  4489.00  4532.29  4536.13
                             4541.54  4571.51  4589.78  4597.40  4610.24
                             4622.16  4636.16  4638.21  5050.30  5168.32

 Zero-point correction=                           0.245415 (Hartree/Particle)
 Thermal correction to Energy=                    0.259739
 Thermal correction to Enthalpy=                  0.260683
 Thermal correction to Gibbs Free Energy=         0.202483
 Sum of electronic and zero-point Energies=           -633.159686
 Sum of electronic and thermal Energies=              -633.145362
 Sum of electronic and thermal Enthalpies=            -633.144418
 Sum of electronic and thermal Free Energies=         -633.202618

                     E (Thermal)             CV                S
                      KCal/Mol        Cal/Mol-Kelvin    Cal/Mol-Kelvin
 Total                  162.988             51.582            122.493
 Electronic               0.000              0.000              0.000
 Translational            0.889              2.981             41.680
 Rotational               0.889              2.981             32.169
 Vibrational            161.211             45.621             48.644
 Vibration     1          0.594              1.983              5.538
 Vibration     2          0.595              1.980              5.132
 Vibration     3          0.598              1.969              4.200
 Vibration     4          0.599              1.964              3.953
 Vibration     5          0.602              1.954              3.592
 Vibration     6          0.604              1.947              3.410
 Vibration     7          0.611              1.926              2.991
 Vibration     8          0.621              1.892              2.557
 Vibration     9          0.629              1.869              2.346
 Vibration    10          0.648              1.808              1.942
 Vibration    11          0.659              1.773              1.776
 Vibration    12          0.685              1.697              1.488
 Vibration    13          0.691              1.678              1.430
 Vibration    14          0.724              1.585              1.187
 Vibration    15          0.781              1.432              0.900
 Vibration    16          0.785              1.420              0.881
 Vibration    17          0.883              1.188              0.592
 Vibration    18          0.904              1.143              0.547
 Vibration    19          0.972              1.005              0.429

 Optimization completed.
    -- Stationary point found.
 Normal termination of Gaussian 16 at Sun Jan 31 04:56:10 2021.
