 Gaussian 16, Revision A.03,
 Gaussian 16:  ES64L-G16RevA.03 25-Dec-2016

 ----------------------------------------------------------------------
 # wB97XD def2tzvp, opt=(ts, noeigen, calcfc, maxcycles=70, maxstep=3),
  freq=noraman, scrf=(iefpcm, solvent=water)
 ----------------------------------------------------------------------

 ------------------------
 0_iteration/TS-579-0.out
 ------------------------
 Symbolic Z-matrix:
 Charge =  0 Multiplicity = 1

 SCF Done:  E(RwB97XD) =  -881.398525443     A.U. after   15 cycles
 SCF Done:  E(RwB97XD) =  -881.397966635     A.U. after   11 cycles
 SCF Done:  E(RwB97XD) =  -881.397463176     A.U. after   11 cycles
 SCF Done:  E(RwB97XD) =  -881.397051476     A.U. after   12 cycles
 SCF Done:  E(RwB97XD) =  -881.396744152     A.U. after   12 cycles
 SCF Done:  E(RwB97XD) =  -881.396535743     A.U. after   12 cycles
 SCF Done:  E(RwB97XD) =  -881.396574913     A.U. after   12 cycles
 SCF Done:  E(RwB97XD) =  -881.396934895     A.U. after   13 cycles
 SCF Done:  E(RwB97XD) =  -881.397606095     A.U. after   12 cycles
 SCF Done:  E(RwB97XD) =  -881.398544664     A.U. after   12 cycles
 SCF Done:  E(RwB97XD) =  -881.413344102     A.U. after   10 cycles
 SCF Done:  E(RwB97XD) =  -881.413332364     A.U. after   10 cycles
 SCF Done:  E(RwB97XD) =  -881.413321833     A.U. after   11 cycles
 SCF Done:  E(RwB97XD) =  -881.413341152     A.U. after   10 cycles
 SCF Done:  E(RwB97XD) =  -881.413341602     A.U. after   10 cycles
 SCF Done:  E(RwB97XD) =  -881.413344764     A.U. after   10 cycles
 SCF Done:  E(RwB97XD) =  -881.413344907     A.U. after    7 cycles
 SCF Done:  E(RwB97XD) =  -881.413344868     A.U. after    7 cycles
 SCF Done:  E(RwB97XD) =  -881.413344854     A.U. after    7 cycles
 Optimization completed.
    -- Stationary point found.
 Normal termination of Gaussian 16 at Tue Apr 13 09:36:11 2021.

 ---------------------------------------------------------------------
 #N Geom=AllCheck Guess=TCheck SCRF=Check GenChk RwB97XD/def2TZVP Freq
 ---------------------------------------------------------------------

 Structure from the checkpoint file:  "/beegfs/scratch/user/q/tla25/Gau-68027.chk"
 ------------------------
 0_iteration/TS-579-0.out
 ------------------------
 Charge =  0 Multiplicity = 1

                         Standard orientation:
 ---------------------------------------------------------------------
 Center     Atomic      Atomic             Coordinates (Angstroms)
 Number     Number       Type             X           Y           Z
 ---------------------------------------------------------------------
      1          6           0       -0.662431   -0.317200    0.621209
      2          6           0       -1.722690    0.374579   -0.075280
      3          8           0       -2.907843    0.016675   -0.017421
      4          6           0        0.694499   -0.071512    0.449000
      5          6           0        0.755494   -1.664027   -1.845933
      6          1           0        0.758227   -1.728736   -2.933549
      7          1           0        1.421742   -2.421773   -1.439994
      8          1           0       -0.256915   -1.839791   -1.480514
      9          7           0        1.176449   -0.345649   -1.388152
     10          1           0        2.165533   -0.177674   -1.533099
     11          1           0        0.653865    0.382428   -1.863866
     12          6           0        1.705917   -0.944252    1.137622
     13          1           0        1.493251   -1.995618    0.947985
     14          1           0        2.715863   -0.717760    0.803502
     15          1           0        1.656179   -0.776475    2.214160
     16         17           0        1.325645    1.657164    0.496113
     17          6           0       -1.074827   -1.539022    1.414680
     18          1           0       -0.550468   -1.610174    2.369476
     19          1           0       -2.140341   -1.472748    1.624325
     20          1           0       -0.908805   -2.482534    0.882125
     21          7           0       -1.406922    1.425832   -0.922246
     22          1           0       -0.625317    2.012707   -0.679225
     23          1           0       -2.218489    1.930286   -1.240883
 ---------------------------------------------------------------------

 SCF Done:  E(RwB97XD) =  -881.413344854     A.U. after    1 cycles

 The electronic state is 1-A.
 Alpha  occ. eigenvalues -- -101.69260 -19.19457 -14.48754 -14.43064 -10.39893
 Alpha  occ. eigenvalues --  -10.37150 -10.31767 -10.29018 -10.26575 -10.25815
 Alpha  occ. eigenvalues --   -9.57884  -7.32462  -7.31693  -7.31667  -1.11895
 Alpha  occ. eigenvalues --   -1.04576  -0.98711  -0.96111  -0.88446  -0.82766
 Alpha  occ. eigenvalues --   -0.79078  -0.76017  -0.69135  -0.63719  -0.62767
 Alpha  occ. eigenvalues --   -0.59693  -0.58201  -0.57570  -0.55316  -0.51815
 Alpha  occ. eigenvalues --   -0.50802  -0.49939  -0.49129  -0.48327  -0.47527
 Alpha  occ. eigenvalues --   -0.46722  -0.44860  -0.44437  -0.43746  -0.39622
 Alpha  occ. eigenvalues --   -0.38672  -0.35355  -0.33128  -0.26741
 Alpha virt. eigenvalues --    0.05390   0.07475   0.10200   0.12820   0.13961
 Alpha virt. eigenvalues --    0.15044   0.16393   0.16956   0.17569   0.17927
 Alpha virt. eigenvalues --    0.19749   0.19942   0.20846   0.21157   0.21273

 Mulliken charges:
               1
     1  C   -0.253792
     2  C    0.288586
     3  O   -0.541104
     4  C    0.170933
     5  C   -0.310607
     6  H    0.160511
     7  H    0.163204
     8  H    0.159993
     9  N   -0.306984
    10  H    0.287714
    11  H    0.274453
    12  C   -0.402478
    13  H    0.155209
    14  H    0.153889
    15  H    0.166431
    16  Cl  -0.170004
    17  C   -0.392506
    18  H    0.126373
    19  H    0.134676
    20  H    0.122477
    21  N   -0.490540
    22  H    0.250144
    23  H    0.253420
 Sum of Mulliken charges =  -0.00000

 Dipole moment (field-independent basis, Debye):
    X=              8.5843    Y=             -1.3170    Z=             -4.0970  Tot=              9.6027
 Quadrupole moment (field-independent basis, Debye-Ang):
   XX=            -82.4247   YY=            -63.4281   ZZ=            -62.2903
   XY=             -7.7115   XZ=             -2.5287   YZ=             -1.3140

  Exact polarizability: 176.142   3.630 144.919  -5.166  -3.673 135.227
 Approx polarizability: 140.659   5.244 119.789  -3.848  -3.042 112.536

 ******    1 imaginary frequencies (negative Signs) ******

                      1                      2                      3
                      A                      A                      A
 Frequencies --   -405.5591                70.5904                83.0619
 Red. masses --      5.3654                 3.2809                 1.8419
 Frc consts  --      0.5199                 0.0096                 0.0075
 IR Inten    --    567.2114                 3.6583                19.3179

                      4                      5                      6
                      A                      A                      A
 Frequencies --    107.7156               122.1870               156.2471
 Red. masses --      4.0863                 1.2789                 2.9693
 Frc consts  --      0.0279                 0.0112                 0.0427
 IR Inten    --      2.2761                13.2970                 1.4513

                      7                      8                      9
                      A                      A                      A
 Frequencies --    209.2688               213.6468               228.8680
 Red. masses --      1.2014                 4.3346                 4.2791
 Frc consts  --      0.0310                 0.1166                 0.1321
 IR Inten    --      3.5683                 9.4642                 5.0071

                     10                     11                     12
                      A                      A                      A
 Frequencies --    287.8403               299.9896               326.0264
 Red. masses --      1.4718                 2.4615                 2.9213
 Frc consts  --      0.0718                 0.1305                 0.1830
 IR Inten    --      3.0408                 6.4117                13.8175

                     13                     14                     15
                      A                      A                      A
 Frequencies --    337.5621               359.9105               367.1992
 Red. masses --      2.9794                 2.9116                 3.0942
 Frc consts  --      0.2000                 0.2222                 0.2458
 IR Inten    --     28.6471                14.8051                 7.3231

                     16                     17                     18
                      A                      A                      A
 Frequencies --    444.8809               506.2859               540.6528
 Red. masses --      3.9817                 1.1751                 3.2031
 Frc consts  --      0.4643                 0.1775                 0.5516
 IR Inten    --     51.4904                58.6639                14.4475

                     19                     20                     21
                      A                      A                      A
 Frequencies --    547.7838               582.9806               632.7994
 Red. masses --      2.3175                 1.5664                 3.2649
 Frc consts  --      0.4097                 0.3137                 0.7703
 IR Inten    --    258.8393               160.0002                93.5362

                     22                     23                     24
                      A                      A                      A
 Frequencies --    694.8158               786.0465               801.4941
 Red. masses --      1.4728                 2.9226                 7.4827
 Frc consts  --      0.4189                 1.0639                 2.8321
 IR Inten    --     41.6838               138.2514                79.6227

                     25                     26                     27
                      A                      A                      A
 Frequencies --    963.2414              1000.0984              1047.8210
 Red. masses --      1.7441                 1.0821                 1.2260
 Frc consts  --      0.9534                 0.6377                 0.7931
 IR Inten    --    171.1891                32.4621                18.4467

                     28                     29                     30
                      A                      A                      A
 Frequencies --   1052.1199              1070.5729              1083.0546
 Red. masses --      1.4201                 1.4683                 2.2518
 Frc consts  --      0.9262                 0.9915                 1.5563
 IR Inten    --    103.3429                16.2314                44.1640

                     31                     32                     33
                      A                      A                      A
 Frequencies --   1088.3694              1096.3170              1129.9897
 Red. masses --      2.5169                 1.9488                 2.4079
 Frc consts  --      1.7566                 1.3800                 1.8115
 IR Inten    --     44.3806               119.7627                39.0580

                     34                     35                     36
                      A                      A                      A
 Frequencies --   1210.0233              1225.4235              1349.2198
 Red. masses --      2.7271                 1.3919                 1.3229
 Frc consts  --      2.3525                 1.2315                 1.4189
 IR Inten    --      2.5881                34.8117                13.7478

                     37                     38                     39
                      A                      A                      A
 Frequencies --   1393.0794              1401.9797              1423.3076
 Red. masses --      2.1664                 1.6195                 1.3713
 Frc consts  --      2.4770                 1.8754                 1.6367
 IR Inten    --    264.6531                90.3623               117.5183

                     40                     41                     42
                      A                      A                      A
 Frequencies --   1447.3983              1464.4046              1482.0605
 Red. masses --      1.6784                 1.3874                 1.0708
 Frc consts  --      2.0717                 1.7530                 1.3858
 IR Inten    --    354.3237               123.8214                27.1663

                     43                     44                     45
                      A                      A                      A
 Frequencies --   1485.3048              1493.8127              1501.5042
 Red. masses --      1.0968                 1.0958                 1.0595
 Frc consts  --      1.4256                 1.4407                 1.4074
 IR Inten    --     24.9970                15.8713                32.6714

                     46                     47                     48
                      A                      A                      A
 Frequencies --   1506.4216              1509.4126              1614.6046
 Red. masses --      1.3000                 1.0410                 1.6274
 Frc consts  --      1.7382                 1.3974                 2.4996
 IR Inten    --    243.4229                21.7371               517.6226

                     49                     50                     51
                      A                      A                      A
 Frequencies --   1635.0467              1650.9293              3017.6643
 Red. masses --      1.1296                 2.5573                 1.0512
 Frc consts  --      1.7793                 4.1067                 5.6402
 IR Inten    --    187.9730               521.3680               101.5345

                     52                     53                     54
                      A                      A                      A
 Frequencies --   3069.8259              3073.4674              3086.0381
 Red. masses --      1.0333                 1.0366                 1.0886
 Frc consts  --      5.7371                 5.7691                 6.1085
 IR Inten    --     35.4590                10.3705                57.2243

                     55                     56                     57
                      A                      A                      A
 Frequencies --   3145.4686              3148.6105              3150.3630
 Red. masses --      1.1046                 1.1010                 1.0973
 Frc consts  --      6.4392                 6.4307                 6.4164
 IR Inten    --      9.4469                 7.9117                11.7938

                     58                     59                     60
                      A                      A                      A
 Frequencies --   3166.9069              3172.0020              3514.2432
 Red. masses --      1.1041                 1.1049                 1.0508
 Frc consts  --      6.5243                 6.5499                 7.6463
 IR Inten    --     16.2250                12.4682                35.4935

                     61                     62                     63
                      A                      A                      A
 Frequencies --   3582.1805              3600.5066              3692.0059
 Red. masses --      1.0474                 1.0965                 1.0998
 Frc consts  --      7.9191                 8.3748                 8.8329
 IR Inten    --     37.3680                76.5384               100.3854

 - Thermochemistry -
 -------------------
 Temperature   298.150 Kelvin.  Pressure   1.00000 Atm.
 Atom     1 has atomic number  6 and mass  12.00000

 Molecular mass:   164.07164 amu.
 Principal axes and moments of inertia in atomic units:
                           1         2         3
     Eigenvalues --  1454.712071962.159182196.49995
           X            0.99600  -0.08804  -0.01519
           Y            0.08637   0.99235  -0.08821
           Z            0.02284   0.08654   0.99599
 This molecule is an asymmetric top.
 Rotational symmetry number  1.
 Warning -- assumption of classical behavior for rotation
           may cause significant error
 Rotational temperatures (Kelvin)      0.05954     0.04414     0.03943
 Rotational constants (GHZ):           1.24062     0.91977     0.82164
    1 imaginary frequencies ignored.
 Zero-point vibrational energy     511120.4 (Joules/Mol)
                                  122.16070 (Kcal/Mol)
 Warning -- explicit consideration of  19 degrees of freedom as
           vibrations may cause significant error
 Vibrational temperatures:    101.56   119.51   154.98   175.80   224.80
          (Kelvin)            301.09   307.39   329.29   414.14   431.62
                              469.08   485.68   517.83   528.32   640.08
                              728.43   777.88   788.14   838.78   910.46
                              999.68  1130.95  1153.17  1385.89  1438.92
                             1507.58  1513.77  1540.32  1558.27  1565.92
                             1577.36  1625.80  1740.95  1763.11  1941.23
                             2004.33  2017.14  2047.82  2082.48  2106.95
                             2132.35  2137.02  2149.26  2160.33  2167.40
                             2171.71  2323.06  2352.47  2375.32  4341.75
                             4416.79  4422.03  4440.12  4525.63  4530.15
                             4532.67  4556.47  4563.80  5056.21  5153.96
                             5180.33  5311.97

 Zero-point correction=                           0.194675 (Hartree/Particle)
 Thermal correction to Energy=                    0.206872
 Thermal correction to Enthalpy=                  0.207816
 Thermal correction to Gibbs Free Energy=         0.156961
 Sum of electronic and zero-point Energies=           -881.218669
 Sum of electronic and thermal Energies=              -881.206473
 Sum of electronic and thermal Enthalpies=            -881.205529
 Sum of electronic and thermal Free Energies=         -881.256384

                     E (Thermal)             CV                S
                      KCal/Mol        Cal/Mol-Kelvin    Cal/Mol-Kelvin
 Total                  129.814             44.370            107.034
 Electronic               0.000              0.000              0.000
 Translational            0.889              2.981             41.194
 Rotational               0.889              2.981             30.218
 Vibrational            128.037             38.409             35.623
 Vibration     1          0.598              1.968              4.137
 Vibration     2          0.600              1.961              3.817
 Vibration     3          0.606              1.943              3.310
 Vibration     4          0.610              1.931              3.065
 Vibration     5          0.620              1.896              2.595
 Vibration     6          0.642              1.827              2.050
 Vibration     7          0.644              1.820              2.012
 Vibration     8          0.652              1.797              1.888
 Vibration     9          0.685              1.696              1.487
 Vibration    10          0.693              1.674              1.417
 Vibration    11          0.710              1.623              1.280
 Vibration    12          0.718              1.600              1.224
 Vibration    13          0.734              1.555              1.122
 Vibration    14          0.740              1.540              1.091
 Vibration    15          0.804              1.372              0.811
 Vibration    16          0.862              1.236              0.643
 Vibration    17          0.896              1.160              0.564
 Vibration    18          0.903              1.145              0.549
 Vibration    19          0.940              1.068              0.480

 Optimization completed.
    -- Stationary point found.
 Normal termination of Gaussian 16 at Tue Apr 13 09:43:35 2021.
