 Gaussian 16, Revision A.03,
 Gaussian 16:  ES64L-G16RevA.03 25-Dec-2016

 ----------------------------------------------------------------------
 # wB97XD def2tzvp, opt=(ts, noeigen, calcfc, maxcycles=70, maxstep=3),
  freq=noraman, scrf=(iefpcm, solvent=water)
 ----------------------------------------------------------------------

 ----------------------
 3_iteration/TS-5-3.out
 ----------------------
 Symbolic Z-matrix:
 Charge =  0 Multiplicity = 1

 SCF Done:  E(RwB97XD) =  -1075.63422281     A.U. after   14 cycles
 Optimization completed.
    -- Stationary point found.
 Normal termination of Gaussian 16 at Mon Jun 14 05:18:14 2021.

 ---------------------------------------------------------------------
 #N Geom=AllCheck Guess=TCheck SCRF=Check GenChk RwB97XD/def2TZVP Freq
 ---------------------------------------------------------------------

 Structure from the checkpoint file:  "/beegfs/scratch/user/q/tla25/Gau-22144.chk"
 ----------------------
 3_iteration/TS-5-3.out
 ----------------------
 Charge =  0 Multiplicity = 1

                         Standard orientation:
 ---------------------------------------------------------------------
 Center     Atomic      Atomic             Coordinates (Angstroms)
 Number     Number       Type             X           Y           Z
 ---------------------------------------------------------------------
      1          6           0       -0.349620   -0.858870    0.114260
      2          6           0        0.074780   -2.214280    0.319540
      3          8           0        1.107200   -2.523810    0.964930
      4          6           0        0.594880    0.182180    0.407990
      5          6           0       -0.032850   -0.289310    3.144070
      6          1           0        0.279780   -0.943930    3.957500
      7          1           0       -0.361310    0.661740    3.554470
      8          1           0       -0.855940   -0.768650    2.609100
      9          7           0        1.058040   -0.088200    2.200930
     10          1           0        1.730260    0.586420    2.539170
     11          1           0        1.505100   -0.990590    2.011380
     12          6           0        0.066901    1.600960    0.363110
     13          6           0       -1.057619    1.962550    1.105910
     14          6           0       -1.571589    3.245780    1.051130
     15          6           0       -0.981889    4.200870    0.233960
     16          6           0        0.125071    3.853740   -0.521810
     17          6           0        0.646631    2.568900   -0.452440
     18          1           0       -1.560370    1.225070    1.712680
     19          1           0       -2.443849    3.497670    1.641050
     20          1           0       -1.386989    5.203600    0.183900
     21          1           0        0.590451    4.582850   -1.173070
     22          1           0        1.506001    2.321930   -1.059490
     23          6           0        1.993390    0.061310   -0.186320
     24          6           0        2.167600   -0.656950   -1.364500
     25          6           0        3.405600   -0.731701   -1.984620
     26          6           0        4.500390   -0.078671   -1.440030
     27          6           0        4.338210    0.662309   -0.278770
     28          6           0        3.096950    0.737109    0.332870
     29          1           0        1.315070   -1.162900   -1.797890
     30          1           0        3.511870   -1.301891   -2.899050
     31          1           0        5.468650   -0.136541   -1.920840
     32          1           0        5.177980    1.194439    0.149950
     33          1           0        2.999430    1.365739    1.208650
     34          6           0       -1.708170   -0.573930   -0.405650
     35          6           0       -2.859390   -1.044660    0.236220
     36          6           0       -4.127520   -0.783140   -0.259710
     37          6           0       -4.284980   -0.026120   -1.412650
     38          6           0       -3.157960    0.449160   -2.068830
     39          6           0       -1.892470    0.166170   -1.578510
     40          1           0       -2.753330   -1.616250    1.151450
     41          1           0       -4.997260   -1.158830    0.265750
     42          1           0       -5.274440    0.188510   -1.796400
     43          1           0       -3.264060    1.033980   -2.974670
     44          1           0       -1.020580    0.531840   -2.107700
     45          7           0       -0.672630   -3.225610   -0.219010
     46          6           0       -0.471790   -4.603710    0.156310
     47          1           0       -1.541770   -2.983510   -0.657930
     48          1           0       -0.653810   -4.775040    1.222040
     49          1           0       -1.160210   -5.222900   -0.416250
     50          1           0        0.546500   -4.923780   -0.065830
 ---------------------------------------------------------------------

 SCF Done:  E(RwB97XD) =  -1075.63422281     A.U. after    1 cycles

 The electronic state is 1-A.
 Alpha  occ. eigenvalues --  -19.19215 -14.47890 -14.43413 -10.36215 -10.35779
 Alpha  occ. eigenvalues --  -10.31235 -10.30469 -10.30189 -10.30163 -10.29363
 Alpha  occ. eigenvalues --  -10.29279 -10.29119 -10.29106 -10.29071 -10.29038
 Alpha  occ. eigenvalues --  -10.29014 -10.28995 -10.28976 -10.28941 -10.28736
 Alpha  occ. eigenvalues --  -10.28476 -10.28408 -10.28238 -10.28026 -10.27896
 Alpha  occ. eigenvalues --  -10.24751  -1.11475  -1.03817  -1.00100  -0.97796
 Alpha  occ. eigenvalues --   -0.96444  -0.95833  -0.91088  -0.86705  -0.85384
 Alpha  occ. eigenvalues --   -0.85195  -0.84846  -0.84319  -0.81545  -0.79555
 Alpha  occ. eigenvalues --   -0.78213  -0.73674  -0.71028  -0.70596  -0.69947
 Alpha  occ. eigenvalues --   -0.69383  -0.68601  -0.66879  -0.65210  -0.62972
 Alpha  occ. eigenvalues --   -0.62326  -0.60720  -0.60183  -0.57550  -0.56916
 Alpha  occ. eigenvalues --   -0.55752  -0.55478  -0.54769  -0.54140  -0.53738
 Alpha  occ. eigenvalues --   -0.53505  -0.53017  -0.52426  -0.51978  -0.50991
 Alpha  occ. eigenvalues --   -0.50806  -0.50262  -0.50083  -0.49241  -0.48570
 Alpha  occ. eigenvalues --   -0.47574  -0.47241  -0.46496  -0.46299  -0.45452
 Alpha  occ. eigenvalues --   -0.45376  -0.44417  -0.43723  -0.43094  -0.42184
 Alpha  occ. eigenvalues --   -0.41968  -0.41472  -0.41140  -0.35162  -0.34385
 Alpha  occ. eigenvalues --   -0.33903  -0.33724  -0.33135  -0.32667  -0.32506
 Alpha  occ. eigenvalues --   -0.31635  -0.24808
 Alpha virt. eigenvalues --    0.02192   0.04159   0.04700   0.05685   0.05979
 Alpha virt. eigenvalues --    0.06530   0.09840   0.10700   0.12060   0.13064
 Alpha virt. eigenvalues --    0.13349   0.13908   0.14469   0.14542   0.15632

 Mulliken charges:
               1
     1  C   -0.401991
     2  C    0.363311
     3  O   -0.616481
     4  C    0.575757
     5  C   -0.336321
     6  H    0.158359
     7  H    0.164809
     8  H    0.149885
     9  N   -0.264359
    10  H    0.262668
    11  H    0.280042
    12  C    0.024183
    13  C   -0.283648
    14  C   -0.171462
    15  C   -0.138760
    16  C   -0.150813
    17  C   -0.225330
    18  H    0.184518
    19  H    0.139260
    20  H    0.142834
    21  H    0.140232
    22  H    0.163439
    23  C    0.111646
    24  C   -0.174801
    25  C   -0.165549
    26  C   -0.139328
    27  C   -0.138963
    28  C   -0.315310
    29  H    0.160568
    30  H    0.139761
    31  H    0.143179
    32  H    0.141776
    33  H    0.145448
    34  C    0.163358
    35  C   -0.340112
    36  C   -0.124276
    37  C   -0.147263
    38  C   -0.164536
    39  C   -0.230521
    40  H    0.151186
    41  H    0.135822
    42  H    0.138525
    43  H    0.133502
    44  H    0.148701
    45  N   -0.305031
    46  C   -0.255122
    47  H    0.252795
    48  H    0.115523
    49  H    0.135517
    50  H    0.123371
 Sum of Mulliken charges =  -0.00000

 Dipole moment (field-independent basis, Debye):
    X=             -0.4837    Y=              3.4598    Z=              2.7946  Tot=              4.4737
 Quadrupole moment (field-independent basis, Debye-Ang):
   XX=           -141.9599   YY=           -150.9081   ZZ=           -137.8369
   XY=             11.1972   XZ=             -2.6862   YZ=              4.0624

  Exact polarizability: 448.608   0.880 404.629  -7.565  -5.623 361.902
 Approx polarizability: 350.526   2.155 314.713  -8.269  -6.276 308.481

 ******    1 imaginary frequencies (negative Signs) ******

                      1                      2                      3
                      A                      A                      A
 Frequencies --   -375.6184                27.8240                32.4694
 Red. masses --      5.4465                 4.5418                 4.5331
 Frc consts  --      0.4528                 0.0021                 0.0028
 IR Inten    --    601.9443                 0.4056                 0.1587

                      4                      5                      6
                      A                      A                      A
 Frequencies --     53.6175                56.7376                65.9524
 Red. masses --      3.7514                 3.5899                 4.3104
 Frc consts  --      0.0064                 0.0068                 0.0110
 IR Inten    --      4.3877                 5.1082                 0.5071

                      7                      8                      9
                      A                      A                      A
 Frequencies --     67.9127                78.5063                81.8163
 Red. masses --      3.7066                 3.8374                 2.6416
 Frc consts  --      0.0101                 0.0139                 0.0104
 IR Inten    --      1.2066                 2.8822                 1.1425

                     10                     11                     12
                      A                      A                      A
 Frequencies --     98.0864               117.7456               138.7706
 Red. masses --      1.7371                 3.0297                 2.5393
 Frc consts  --      0.0098                 0.0247                 0.0288
 IR Inten    --      1.1277                 0.4834                 5.2639

                     13                     14                     15
                      A                      A                      A
 Frequencies --    144.0635               174.7355               177.1013
 Red. masses --      3.6157                 4.4751                 3.6477
 Frc consts  --      0.0442                 0.0805                 0.0674
 IR Inten    --     21.3750                 8.1057                 7.0035

                     16                     17                     18
                      A                      A                      A
 Frequencies --    206.2053               229.0198               262.4049
 Red. masses --      2.7704                 2.9712                 3.0537
 Frc consts  --      0.0694                 0.0918                 0.1239
 IR Inten    --     38.2887                 8.1231                 1.2055

                     19                     20                     21
                      A                      A                      A
 Frequencies --    274.4856               281.5948               285.8251
 Red. masses --      3.6160                 3.5912                 4.7292
 Frc consts  --      0.1605                 0.1678                 0.2276
 IR Inten    --      4.9194                 2.5337                 4.8800

                     22                     23                     24
                      A                      A                      A
 Frequencies --    290.3680               313.2054               315.3938
 Red. masses --      1.9223                 4.1933                 3.1774
 Frc consts  --      0.0955                 0.2424                 0.1862
 IR Inten    --      7.4545                32.9323                 1.2349

                     25                     26                     27
                      A                      A                      A
 Frequencies --    333.2969               405.6744               423.7746
 Red. masses --      3.3551                 3.1465                 4.4358
 Frc consts  --      0.2196                 0.3051                 0.4693
 IR Inten    --     19.4838               115.7496                21.2884

                     28                     29                     30
                      A                      A                      A
 Frequencies --    426.6020               428.0329               433.0663
 Red. masses --      3.2058                 2.9314                 2.9128
 Frc consts  --      0.3437                 0.3164                 0.3219
 IR Inten    --      6.3196                 9.4830                 2.1023

                     31                     32                     33
                      A                      A                      A
 Frequencies --    459.6207               510.4205               523.6816
 Red. masses --      1.5502                 3.8530                 3.6223
 Frc consts  --      0.1929                 0.5914                 0.5853
 IR Inten    --     41.2594                24.4328                 1.7113

                     34                     35                     36
                      A                      A                      A
 Frequencies --    546.4851               609.0571               633.5266
 Red. masses --      3.3087                 4.2485                 5.6394
 Frc consts  --      0.5822                 0.9285                 1.3336
 IR Inten    --     15.5632               110.0940                10.4905

                     37                     38                     39
                      A                      A                      A
 Frequencies --    637.3540               639.1248               642.8259
 Red. masses --      5.2349                 6.3408                 3.8186
 Frc consts  --      1.2529                 1.5260                 0.9297
 IR Inten    --      2.3083                 2.4930                13.7843

                     40                     41                     42
                      A                      A                      A
 Frequencies --    656.8471               694.4022               709.7558
 Red. masses --      6.0661                 5.3012                 1.9517
 Frc consts  --      1.5420                 1.5061                 0.5793
 IR Inten    --     33.4439                79.9798                59.9603

                     43                     44                     45
                      A                      A                      A
 Frequencies --    728.2015               729.1677               730.2855
 Red. masses --      1.5592                 1.5763                 1.5666
 Frc consts  --      0.4871                 0.4938                 0.4922
 IR Inten    --    106.8550                68.8708               108.1321

                     46                     47                     48
                      A                      A                      A
 Frequencies --    752.9880               792.0258               795.4518
 Red. masses --      3.0379                 2.1791                 3.9452
 Frc consts  --      1.0149                 0.8054                 1.4708
 IR Inten    --     66.8893                46.4083                40.3836

                     49                     50                     51
                      A                      A                      A
 Frequencies --    807.8640               811.1416               874.8074
 Red. masses --      2.7222                 3.2105                 1.4535
 Frc consts  --      1.0468                 1.2446                 0.6554
 IR Inten    --     20.5792                41.1082                 4.4055

                     52                     53                     54
                      A                      A                      A
 Frequencies --    878.2125               880.9383               881.8056
 Red. masses --      1.3444                 1.2682                 2.1420
 Frc consts  --      0.6109                 0.5799                 0.9813
 IR Inten    --      7.5088                 1.8244                22.8850

                     55                     56                     57
                      A                      A                      A
 Frequencies --    922.7007               951.3667               964.3360
 Red. masses --      4.0235                 1.5161                 1.5070
 Frc consts  --      2.0183                 0.8085                 0.8257
 IR Inten    --     14.5576                 4.1958                 4.0287

                     58                     59                     60
                      A                      A                      A
 Frequencies --    967.8970              1009.8097              1011.8109
 Red. masses --      1.4278                 1.2369                 1.3604
 Frc consts  --      0.7881                 0.7432                 0.8205
 IR Inten    --      1.7915                55.5605                 2.9016

                     61                     62                     63
                      A                      A                      A
 Frequencies --   1018.7401              1019.3957              1021.2318
 Red. masses --      1.5097                 1.4342                 2.0607
 Frc consts  --      0.9231                 0.8781                 1.2662
 IR Inten    --     16.4397                 1.0598                 2.2372

                     64                     65                     66
                      A                      A                      A
 Frequencies --   1022.1120              1025.5816              1026.8023
 Red. masses --      1.8685                 4.4627                 4.2238
 Frc consts  --      1.1501                 2.7656                 2.6238
 IR Inten    --      0.3943                 1.2044                11.9822

                     67                     68                     69
                      A                      A                      A
 Frequencies --   1027.9993              1032.9819              1033.3426
 Red. masses --      4.2987                 1.3738                 1.3835
 Frc consts  --      2.6766                 0.8637                 0.8704
 IR Inten    --      2.5091                 0.9468                 0.9190

                     70                     71                     72
                      A                      A                      A
 Frequencies --   1062.1500              1066.2473              1070.9637
 Red. masses --      2.6447                 2.0934                 2.0370
 Frc consts  --      1.7579                 1.4022                 1.3765
 IR Inten    --     15.1343                13.3659                18.5421

                     73                     74                     75
                      A                      A                      A
 Frequencies --   1088.2268              1108.4554              1111.4801
 Red. masses --      3.8323                 1.7976                 2.1789
 Frc consts  --      2.6739                 1.3013                 1.5859
 IR Inten    --     34.8207                26.9305                 2.1854

                     76                     77                     78
                      A                      A                      A
 Frequencies --   1122.1087              1127.4244              1133.4735
 Red. masses --      1.5138                 1.3256                 1.7847
 Frc consts  --      1.1230                 0.9927                 1.3509
 IR Inten    --      5.6693                64.7860                 3.7667

                     79                     80                     81
                      A                      A                      A
 Frequencies --   1153.5174              1178.8298              1180.0337
 Red. masses --      1.3064                 1.6432                 1.1601
 Frc consts  --      1.0242                 1.3453                 0.9518
 IR Inten    --     17.5162                52.9020                10.3774

                     82                     83                     84
                      A                      A                      A
 Frequencies --   1183.6297              1186.6988              1197.5414
 Red. masses --      1.1260                 1.1330                 3.3212
 Frc consts  --      0.9294                 0.9401                 2.8062
 IR Inten    --      0.0399                 0.2965                15.8410

                     85                     86                     87
                      A                      A                      A
 Frequencies --   1208.6203              1214.6435              1225.7470
 Red. masses --      1.1243                 1.1631                 1.1398
 Frc consts  --      0.9677                 1.0110                 1.0090
 IR Inten    --      2.0252                 6.6369                 7.4006

                     88                     89                     90
                      A                      A                      A
 Frequencies --   1238.6003              1258.1817              1288.6025
 Red. masses --      1.4165                 3.5495                 2.9760
 Frc consts  --      1.2803                 3.3105                 2.9115
 IR Inten    --     76.3750                30.5978                62.5294

                     91                     92                     93
                      A                      A                      A
 Frequencies --   1300.0666              1320.0603              1324.9855
 Red. masses --      3.9660                 4.4692                 4.4401
 Frc consts  --      3.9494                 4.5885                 4.5927
 IR Inten    --    174.1145                 6.4271               140.7339

                     94                     95                     96
                      A                      A                      A
 Frequencies --   1338.0021              1359.2279              1361.6597
 Red. masses --      4.2189                 1.5140                 2.0148
 Frc consts  --      4.4501                 1.6480                 2.2010
 IR Inten    --    481.9122                11.1789                45.8718

                     97                     98                     99
                      A                      A                      A
 Frequencies --   1366.2552              1379.8359              1390.5092
 Red. masses --      1.7159                 1.5798                 1.4709
 Frc consts  --      1.8871                 1.7722                 1.6756
 IR Inten    --    120.1917                27.1107               164.2534

                    100                    101                    102
                      A                      A                      A
 Frequencies --   1442.7270              1454.7336              1476.2759
 Red. masses --      1.2062                 1.2586                 1.0547
 Frc consts  --      1.4792                 1.5693                 1.3543
 IR Inten    --      5.2219                40.7323                23.1074

                    103                    104                    105
                      A                      A                      A
 Frequencies --   1486.1950              1489.2937              1494.5978
 Red. masses --      2.2300                 2.2355                 2.3052
 Frc consts  --      2.9021                 2.9214                 3.0340
 IR Inten    --      6.6180                30.7445                35.0417

                    106                    107                    108
                      A                      A                      A
 Frequencies --   1502.2292              1505.2156              1508.4774
 Red. masses --      1.0471                 1.0461                 1.1013
 Frc consts  --      1.3923                 1.3965                 1.4765
 IR Inten    --      8.3684                19.8461                16.2898

                    109                    110                    111
                      A                      A                      A
 Frequencies --   1539.0248              1542.0146              1545.8403
 Red. masses --      2.3486                 2.2362                 2.0591
 Frc consts  --      3.2775                 3.1329                 2.8990
 IR Inten    --     60.2740                12.1052               646.4627

                    112                    113                    114
                      A                      A                      A
 Frequencies --   1548.4973              1581.7016              1628.9766
 Red. masses --      2.1932                 1.8537                 1.6374
 Frc consts  --      3.0984                 2.7324                 2.5599
 IR Inten    --     34.2584               688.7299               182.4694

                    115                    116                    117
                      A                      A                      A
 Frequencies --   1638.2045              1651.0578              1654.2634
 Red. masses --      4.8587                 5.6156                 5.7390
 Frc consts  --      7.6826                 9.0193                 9.2533
 IR Inten    --     16.9434                 0.1195                19.7461

                    118                    119                    120
                      A                      A                      A
 Frequencies --   1666.9870              1673.8666              1677.1579
 Red. masses --      5.8397                 5.9194                 5.8211
 Frc consts  --      9.5610                 9.7717                 9.6473
 IR Inten    --     36.5466                 3.7750                 0.0524

                    121                    122                    123
                      A                      A                      A
 Frequencies --   3032.2750              3057.4144              3103.7014
 Red. masses --      1.0453                 1.0362                 1.0920
 Frc consts  --      5.6625                 5.7071                 6.1975
 IR Inten    --    118.6408                55.1567                51.6591

                    124                    125                    126
                      A                      A                      A
 Frequencies --   3129.2313              3151.8143              3174.1231
 Red. masses --      1.1013                 1.1023                 1.1042
 Frc consts  --      6.3539                 6.4515                 6.5546
 IR Inten    --     10.8046                28.4855                21.2564

                    127                    128                    129
                      A                      A                      A
 Frequencies --   3181.5614              3186.9208              3193.9113
 Red. masses --      1.0868                 1.0869                 1.0856
 Frc consts  --      6.4817                 6.5041                 6.5247
 IR Inten    --     14.6586                 2.0854                 3.2996

                    130                    131                    132
                      A                      A                      A
 Frequencies --   3196.1315              3197.9348              3200.3368
 Red. masses --      1.0862                 1.0910                 1.0883
 Frc consts  --      6.5376                 6.5735                 6.5672
 IR Inten    --      0.1087                12.7937                 3.9956

                    133                    134                    135
                      A                      A                      A
 Frequencies --   3203.8567              3205.3934              3209.4899
 Red. masses --      1.0947                 1.0907                 1.0921
 Frc consts  --      6.6208                 6.6028                 6.6279
 IR Inten    --     51.0612                17.4692                29.5508

                    136                    137                    138
                      A                      A                      A
 Frequencies --   3216.7331              3217.5673              3218.3462
 Red. masses --      1.0985                 1.0939                 1.0958
 Frc consts  --      6.6971                 6.6726                 6.6874
 IR Inten    --     24.7250                30.0995                29.0366

                    139                    140                    141
                      A                      A                      A
 Frequencies --   3223.5261              3231.6470              3250.8084
 Red. masses --      1.0982                 1.0936                 1.0918
 Frc consts  --      6.7237                 6.7290                 6.7979
 IR Inten    --     14.2152                10.3803                 6.7249

                    142                    143                    144
                      A                      A                      A
 Frequencies --   3352.0049              3603.7714              3682.2266
 Red. masses --      1.0674                 1.0827                 1.0771
 Frc consts  --      7.0661                 8.2844                 8.6042
 IR Inten    --    212.0272                74.8974                68.5364

 - Thermochemistry -
 -------------------
 Temperature   298.150 Kelvin.  Pressure   1.00000 Atm.
 Atom     1 has atomic number  6 and mass  12.00000

 Molecular mass:   344.18886 amu.
 Principal axes and moments of inertia in atomic units:
                           1         2         3
     Eigenvalues --  7140.078358475.30304**********
           X            0.99976   0.02135  -0.00416
           Y           -0.02137   0.99977  -0.00340
           Z            0.00409   0.00348   0.99999
 This molecule is an asymmetric top.
 Rotational symmetry number  1.
 Warning -- assumption of classical behavior for rotation
           may cause significant error
 Rotational temperatures (Kelvin)      0.01213     0.01022     0.00736
 Rotational constants (GHZ):           0.25276     0.21294     0.15335
    1 imaginary frequencies ignored.
 Zero-point vibrational energy    1105829.4 (Joules/Mol)
                                  264.29956 (Kcal/Mol)
 Warning -- explicit consideration of  34 degrees of freedom as
           vibrations may cause significant error
 Vibrational temperatures:     40.03    46.72    77.14    81.63    94.89
          (Kelvin)             97.71   112.95   117.72   141.12   169.41
                              199.66   207.28   251.41   254.81   296.68
                              329.51   377.54   394.92   405.15   411.24
                              417.77   450.63   453.78   479.54   583.67
                              609.72   613.79   615.84   623.09   661.29
                              734.38   753.46   786.27   876.30   911.50
                              917.01   919.56   924.88   945.06   999.09
                             1021.18  1047.72  1049.11  1050.72  1083.38
                             1139.55  1144.48  1162.34  1167.05  1258.65
                             1263.55  1267.47  1268.72  1327.56  1368.80
                             1387.46  1392.59  1452.89  1455.77  1465.74
                             1466.68  1469.32  1470.59  1475.58  1477.34
                             1479.06  1486.23  1486.75  1528.20  1534.09
                             1540.88  1565.72  1594.82  1599.17  1614.46
                             1622.11  1630.82  1659.65  1696.07  1697.81
                             1702.98  1707.39  1722.99  1738.93  1747.60
                             1763.58  1782.07  1810.24  1854.01  1870.51
                             1899.27  1906.36  1925.09  1955.63  1959.12
                             1965.74  1985.28  2000.63  2075.76  2093.04
                             2124.03  2138.30  2142.76  2150.39  2161.37
                             2165.67  2170.36  2214.31  2218.62  2224.12
                             2227.94  2275.72  2343.73  2357.01  2375.50
                             2380.12  2398.42  2408.32  2413.06  4362.77
                             4398.94  4465.53  4502.27  4534.76  4566.86
                             4577.56  4585.27  4595.33  4598.52  4601.11
                             4604.57  4609.64  4611.85  4617.74  4628.16
                             4629.36  4630.48  4637.94  4649.62  4677.19
                             4822.79  5185.02  5297.90

 Zero-point correction=                           0.421188 (Hartree/Particle)
 Thermal correction to Energy=                    0.444476
 Thermal correction to Enthalpy=                  0.445420
 Thermal correction to Gibbs Free Energy=         0.367840
 Sum of electronic and zero-point Energies=          -1075.213035
 Sum of electronic and thermal Energies=             -1075.189747
 Sum of electronic and thermal Enthalpies=           -1075.188803
 Sum of electronic and thermal Free Energies=        -1075.266383

                     E (Thermal)             CV                S
                      KCal/Mol        Cal/Mol-Kelvin    Cal/Mol-Kelvin
 Total                  278.913             90.466            163.280
 Electronic               0.000              0.000              0.000
 Translational            0.889              2.981             43.402
 Rotational               0.889              2.981             34.920
 Vibrational            277.135             84.504             84.958
 Vibration     1          0.593              1.984              5.979
 Vibration     2          0.594              1.983              5.673
 Vibration     3          0.596              1.976              4.679
 Vibration     4          0.596              1.975              4.568
 Vibration     5          0.597              1.971              4.271
 Vibration     6          0.598              1.970              4.213
 Vibration     7          0.600              1.964              3.928
 Vibration     8          0.600              1.962              3.847
 Vibration     9          0.604              1.951              3.492
 Vibration    10          0.608              1.935              3.137
 Vibration    11          0.614              1.915              2.821
 Vibration    12          0.616              1.909              2.749
 Vibration    13          0.627              1.874              2.384
 Vibration    14          0.628              1.871              2.359
 Vibration    15          0.641              1.831              2.077
 Vibration    16          0.652              1.797              1.887
 Vibration    17          0.670              1.742              1.646
 Vibration    18          0.677              1.720              1.568
 Vibration    19          0.681              1.708              1.524
 Vibration    20          0.684              1.700              1.499
 Vibration    21          0.686              1.692              1.472
 Vibration    22          0.701              1.648              1.345
 Vibration    23          0.703              1.644              1.334
 Vibration    24          0.715              1.609              1.244
 Vibration    25          0.771              1.458              0.942
 Vibration    26          0.786              1.419              0.879
 Vibration    27          0.788              1.412              0.870
 Vibration    28          0.790              1.409              0.865
 Vibration    29          0.794              1.398              0.849
 Vibration    30          0.818              1.340              0.767
 Vibration    31          0.866              1.227              0.633
 Vibration    32          0.879              1.198              0.601
 Vibration    33          0.902              1.147              0.552
 Vibration    34          0.968              1.013              0.434

 Optimization completed.
    -- Stationary point found.
 Normal termination of Gaussian 16 at Mon Jun 14 08:14:34 2021.
