 Gaussian 16, Revision A.03,
 Gaussian 16:  ES64L-G16RevA.03 25-Dec-2016

 ----------------------------------------------------------------------
 # wB97XD def2tzvp, opt=(ts, noeigen, calcfc, maxcycles=70, maxstep=1),
  freq=noraman, scrf=(iefpcm, solvent=water)
 ----------------------------------------------------------------------

 ------------------------
 0_iteration/TS-541-0.out
 ------------------------
 Symbolic Z-matrix:
 Charge =  0 Multiplicity = 1

 SCF Done:  E(RwB97XD) =  -3034.72152442     A.U. after   15 cycles
 SCF Done:  E(RwB97XD) =  -3034.72148556     A.U. after   10 cycles
 SCF Done:  E(RwB97XD) =  -3034.72144490     A.U. after   10 cycles
 SCF Done:  E(RwB97XD) =  -3034.72140545     A.U. after   10 cycles
 SCF Done:  E(RwB97XD) =  -3034.72136824     A.U. after   10 cycles
 SCF Done:  E(RwB97XD) =  -3034.72133398     A.U. after   10 cycles
 SCF Done:  E(RwB97XD) =  -3034.72130348     A.U. after   10 cycles
 SCF Done:  E(RwB97XD) =  -3034.72127820     A.U. after   10 cycles
 SCF Done:  E(RwB97XD) =  -3034.72126029     A.U. after   10 cycles
 SCF Done:  E(RwB97XD) =  -3034.72125270     A.U. after   10 cycles
 SCF Done:  E(RwB97XD) =  -3034.72195582     A.U. after   10 cycles
 SCF Done:  E(RwB97XD) =  -3034.72196301     A.U. after   10 cycles
 SCF Done:  E(RwB97XD) =  -3034.72196812     A.U. after   10 cycles
 SCF Done:  E(RwB97XD) =  -3034.72196804     A.U. after   10 cycles
 SCF Done:  E(RwB97XD) =  -3034.72196675     A.U. after   10 cycles
 SCF Done:  E(RwB97XD) =  -3034.72196786     A.U. after   10 cycles
 SCF Done:  E(RwB97XD) =  -3034.72196826     A.U. after    9 cycles
 SCF Done:  E(RwB97XD) =  -3034.72196833     A.U. after    8 cycles
 SCF Done:  E(RwB97XD) =  -3034.72196830     A.U. after    6 cycles
 Optimization completed.
    -- Stationary point found.
 Normal termination of Gaussian 16 at Tue Feb 16 12:26:44 2021.

 ---------------------------------------------------------------------
 #N Geom=AllCheck Guess=TCheck SCRF=Check GenChk RwB97XD/def2TZVP Freq
 ---------------------------------------------------------------------

 Structure from the checkpoint file:  "/beegfs/scratch/user/q/tla25/Gau-11226.chk"
 ------------------------
 0_iteration/TS-541-0.out
 ------------------------
 Charge =  0 Multiplicity = 1

                         Standard orientation:
 ---------------------------------------------------------------------
 Center     Atomic      Atomic             Coordinates (Angstroms)
 Number     Number       Type             X           Y           Z
 ---------------------------------------------------------------------
      1          6           0       -0.534858    0.839440   -0.747179
      2          6           0       -1.745752    0.102659   -0.404869
      3          8           0       -2.870447    0.506897   -0.727569
      4          6           0        0.725220    0.594556   -0.251679
      5          6           0        0.148864    1.931494    2.150294
      6          1           0       -0.162301    1.890746    3.193957
      7          1           0        0.898031    2.710831    2.030466
      8          1           0       -0.716952    2.167342    1.529805
      9          7           0        0.692363    0.656869    1.700424
     10          1           0        1.608006    0.460337    2.087302
     11          1           0        0.070200   -0.105872    1.943356
     12          6           0        1.861013    1.533899   -0.537305
     13          1           0        1.563012    2.560219   -0.322216
     14          1           0        2.741567    1.289691    0.051956
     15          1           0        2.131306    1.472127   -1.592371
     16         35           0        1.509394   -1.292565   -0.300807
     17          6           0       -0.752249    2.108179   -1.547327
     18          1           0        0.045310    2.280772   -2.271019
     19          1           0       -1.687583    2.019663   -2.096198
     20          1           0       -0.828032    3.005748   -0.923154
     21          7           0       -1.644642   -1.029742    0.365148
     22          6           0       -2.820346   -1.827832    0.635424
     23          1           0       -0.774783   -1.534270    0.320152
     24          1           0       -2.535017   -2.652631    1.286269
     25          1           0       -3.575234   -1.229037    1.143142
     26          1           0       -3.268165   -2.235302   -0.275795
 ---------------------------------------------------------------------

 SCF Done:  E(RwB97XD) =  -3034.72196830     A.U. after    1 cycles

 The electronic state is 1-A.
 Alpha  occ. eigenvalues -- -483.12084 -62.66942 -56.46021 -56.45721 -56.45712
 Alpha  occ. eigenvalues --  -19.19655 -14.48373 -14.44024 -10.39233 -10.37106
 Alpha  occ. eigenvalues --  -10.31658 -10.30293 -10.29057 -10.26726 -10.26211
 Alpha  occ. eigenvalues --   -8.81044  -6.63071  -6.62128  -6.62100  -2.73465
 Alpha  occ. eigenvalues --   -2.73212  -2.73189  -2.72427  -2.72425  -1.12326
 Alpha  occ. eigenvalues --   -1.03988  -1.00653  -0.93369  -0.86076  -0.82903
 Alpha  occ. eigenvalues --   -0.79543  -0.78787  -0.74668  -0.67698  -0.64481
 Alpha  occ. eigenvalues --   -0.63183  -0.58638  -0.57257  -0.55565  -0.55021
 Alpha  occ. eigenvalues --   -0.52971  -0.51616  -0.50444  -0.49497  -0.48986
 Alpha  occ. eigenvalues --   -0.47840  -0.47317  -0.46785  -0.45354  -0.44556
 Alpha  occ. eigenvalues --   -0.42507  -0.42174  -0.37168  -0.36760  -0.34030
 Alpha  occ. eigenvalues --   -0.32937  -0.26689
 Alpha virt. eigenvalues --    0.03405   0.05933   0.09895   0.12680   0.13154
 Alpha virt. eigenvalues --    0.14770   0.15538   0.16526   0.16723   0.17450
 Alpha virt. eigenvalues --    0.18304   0.19037   0.19736   0.20300   0.20813

 Mulliken charges:
               1
     1  C   -0.240191
     2  C    0.331633
     3  O   -0.545477
     4  C    0.152031
     5  C   -0.303162
     6  H    0.158697
     7  H    0.161594
     8  H    0.157355
     9  N   -0.319657
    10  H    0.286881
    11  H    0.272178
    12  C   -0.411204
    13  H    0.159965
    14  H    0.157414
    15  H    0.169658
    16  Br  -0.214056
    17  C   -0.392918
    18  H    0.129747
    19  H    0.134992
    20  H    0.123337
    21  N   -0.336268
    22  C   -0.259454
    23  H    0.240325
    24  H    0.136997
    25  H    0.129620
    26  H    0.119961
 Sum of Mulliken charges =  -0.00000

 Dipole moment (field-independent basis, Debye):
    X=              6.2094    Y=              1.0645    Z=              6.5275  Tot=              9.0718
 Quadrupole moment (field-independent basis, Debye-Ang):
   XX=            -95.7080   YY=            -75.3519   ZZ=            -73.7916
   XY=             11.6942   XZ=             -3.1908   YZ=              2.6926

  Exact polarizability: 204.505 -10.327 185.341  10.883  -3.183 163.608
 Approx polarizability: 159.941  -9.755 147.873   9.009  -3.646 135.524

 ******    1 imaginary frequencies (negative Signs) ******

                      1                      2                      3
                      A                      A                      A
 Frequencies --   -419.6745                60.4563                75.7076
 Red. masses --      5.4137                 2.6715                 2.4632
 Frc consts  --      0.5618                 0.0058                 0.0083
 IR Inten    --    492.7358                 8.1116                 7.1154

                      4                      5                      6
                      A                      A                      A
 Frequencies --     84.2685               107.4588               139.5045
 Red. masses --      2.0506                 1.5306                 3.2269
 Frc consts  --      0.0086                 0.0104                 0.0370
 IR Inten    --      4.0568                11.3895                 0.6212

                      7                      8                      9
                      A                      A                      A
 Frequencies --    147.2094               156.9727               169.5705
 Red. masses --      2.5249                 1.2695                 3.9035
 Frc consts  --      0.0322                 0.0184                 0.0661
 IR Inten    --     11.8840                 1.7926                 0.9917

                     10                     11                     12
                      A                      A                      A
 Frequencies --    189.8440               199.4920               229.9136
 Red. masses --      1.3677                 2.7281                 4.6213
 Frc consts  --      0.0290                 0.0640                 0.1439
 IR Inten    --      3.7012                19.2348                30.9562

                     13                     14                     15
                      A                      A                      A
 Frequencies --    267.4164               269.2203               297.4101
 Red. masses --      3.0978                 2.1637                 1.3567
 Frc consts  --      0.1305                 0.0924                 0.0707
 IR Inten    --     25.5763                 3.9513                14.8029

                     16                     17                     18
                      A                      A                      A
 Frequencies --    332.9134               355.3418               378.7402
 Red. masses --      2.6397                 2.9721                 2.9796
 Frc consts  --      0.1724                 0.2211                 0.2518
 IR Inten    --     19.3987                10.4083                24.3540

                     19                     20                     21
                      A                      A                      A
 Frequencies --    407.4341               519.0642               543.0673
 Red. masses --      3.8962                 2.7822                 3.3407
 Frc consts  --      0.3811                 0.4417                 0.5805
 IR Inten    --     47.7767                41.2417               119.2644

                     22                     23                     24
                      A                      A                      A
 Frequencies --    556.2892               644.5339               693.5314
 Red. masses --      1.6012                 2.3646                 1.6427
 Frc consts  --      0.2920                 0.5788                 0.4655
 IR Inten    --    124.0148                72.3916               122.2429

                     25                     26                     27
                      A                      A                      A
 Frequencies --    795.6269               845.3000               958.1588
 Red. masses --      7.5910                 2.9237                 1.9395
 Frc consts  --      2.8312                 1.2309                 1.0491
 IR Inten    --     57.4859               108.4016               116.3537

                     28                     29                     30
                      A                      A                      A
 Frequencies --    996.7017              1036.9484              1048.7889
 Red. masses --      1.0888                 1.1839                 1.3764
 Frc consts  --      0.6373                 0.7500                 0.8920
 IR Inten    --     37.8880                27.4125               109.6409

                     31                     32                     33
                      A                      A                      A
 Frequencies --   1055.9007              1067.7330              1081.6598
 Red. masses --      2.4672                 1.5643                 2.1748
 Frc consts  --      1.6207                 1.0507                 1.4992
 IR Inten    --     45.0631                34.1890                25.3262

                     34                     35                     36
                      A                      A                      A
 Frequencies --   1087.4774              1121.1251              1148.5443
 Red. masses --      2.4483                 2.4308                 1.3129
 Frc consts  --      1.7059                 1.8002                 1.0204
 IR Inten    --    140.7247                 3.6507                 8.8493

                     37                     38                     39
                      A                      A                      A
 Frequencies --   1181.7533              1214.0707              1217.4333
 Red. masses --      1.7222                 1.6355                 2.6830
 Frc consts  --      1.4170                 1.4203                 2.3430
 IR Inten    --     55.6533                34.9532                30.4155

                     40                     41                     42
                      A                      A                      A
 Frequencies --   1334.5610              1350.1149              1403.3162
 Red. masses --      2.7727                 1.4302                 1.2893
 Frc consts  --      2.9096                 1.5360                 1.4960
 IR Inten    --    337.1232                41.9871                12.2207

                     43                     44                     45
                      A                      A                      A
 Frequencies --   1419.7788              1453.5368              1455.8436
 Red. masses --      1.2199                 1.2541                 1.2043
 Frc consts  --      1.4489                 1.5611                 1.5039
 IR Inten    --     23.1185               106.6164                12.4182

                     46                     47                     48
                      A                      A                      A
 Frequencies --   1468.7651              1477.7547              1479.8564
 Red. masses --      1.2579                 1.0597                 1.0579
 Frc consts  --      1.5988                 1.3635                 1.3650
 IR Inten    --    140.5870                29.5973                 2.4772

                     49                     50                     51
                      A                      A                      A
 Frequencies --   1486.2379              1494.0235              1498.3393
 Red. masses --      1.0700                 1.0773                 1.0548
 Frc consts  --      1.3925                 1.4168                 1.3952
 IR Inten    --     17.3698                 6.9938                24.5056

                     52                     53                     54
                      A                      A                      A
 Frequencies --   1502.8300              1505.7969              1521.8063
 Red. masses --      1.0790                 1.0347                 2.1885
 Frc consts  --      1.4358                 1.3822                 2.9862
 IR Inten    --      1.6211                16.7973               534.5413

                     55                     56                     57
                      A                      A                      A
 Frequencies --   1562.1346              1633.9859              1651.5042
 Red. masses --      1.7390                 1.1825                 4.4363
 Frc consts  --      2.5003                 1.8601                 7.1291
 IR Inten    --    364.3617               230.9409               662.3649

                     58                     59                     60
                      A                      A                      A
 Frequencies --   3020.8817              3039.2698              3066.4180
 Red. masses --      1.0522                 1.0446                 1.0334
 Frc consts  --      5.6573                 5.6849                 5.7251
 IR Inten    --    105.9079                93.4686                42.2994

                     61                     62                     63
                      A                      A                      A
 Frequencies --   3069.2866              3097.5060              3116.3396
 Red. masses --      1.0368                 1.0865                 1.0914
 Frc consts  --      5.7545                 6.1417                 6.2451
 IR Inten    --     11.5622                50.8317                41.7858

                     64                     65                     66
                      A                      A                      A
 Frequencies --   3140.8477              3142.5043              3152.6834
 Red. masses --      1.1045                 1.1019                 1.0979
 Frc consts  --      6.4196                 6.4111                 6.4297
 IR Inten    --     10.9312                 9.0641                11.6000

                     67                     68                     69
                      A                      A                      A
 Frequencies --   3156.0306              3165.5144              3168.6523
 Red. masses --      1.1042                 1.1032                 1.1046
 Frc consts  --      6.4803                 6.5133                 6.5345
 IR Inten    --     25.5600                14.6932                11.9543

                     70                     71                     72
                      A                      A                      A
 Frequencies --   3520.9562              3607.5897              3619.3096
 Red. masses --      1.0506                 1.0966                 1.0768
 Frc consts  --      7.6737                 8.4084                 8.3109
 IR Inten    --     28.9461                58.7648               151.4365

 - Thermochemistry -
 -------------------
 Temperature   298.150 Kelvin.  Pressure   1.00000 Atm.
 Atom     1 has atomic number  6 and mass  12.00000

 Molecular mass:   222.03677 amu.
 Principal axes and moments of inertia in atomic units:
                           1         2         3
     Eigenvalues --  2097.664912880.469023545.19542
           X            0.98160   0.19095  -0.00163
           Y           -0.19088   0.98096  -0.03581
           Z           -0.00524   0.03546   0.99936
 This molecule is an asymmetric top.
 Rotational symmetry number  1.
 Warning -- assumption of classical behavior for rotation
           may cause significant error
 Rotational temperatures (Kelvin)      0.04129     0.03007     0.02443
 Rotational constants (GHZ):           0.86036     0.62654     0.50907
    1 imaginary frequencies ignored.
 Zero-point vibrational energy     582979.5 (Joules/Mol)
                                  139.33544 (Kcal/Mol)
 Warning -- explicit consideration of  21 degrees of freedom as
           vibrations may cause significant error
 Vibrational temperatures:     86.98   108.93   121.24   154.61   200.72
          (Kelvin)            211.80   225.85   243.97   273.14   287.02
                              330.79   384.75   387.35   427.91   478.99
                              511.26   544.92   586.21   746.82   781.35
                              800.38   927.34   997.84  1144.73  1216.20
                             1378.58  1434.03  1491.94  1508.97  1519.21
                             1536.23  1556.27  1564.64  1613.05  1652.50
                             1700.28  1746.78  1751.62  1920.14  1942.51
                             2019.06  2042.75  2091.32  2094.63  2113.23
                             2126.16  2129.18  2138.36  2149.57  2155.78
                             2162.24  2166.51  2189.54  2247.56  2350.94
                             2376.15  4346.38  4372.83  4411.89  4416.02
                             4456.62  4483.72  4518.98  4521.36  4536.01
                             4540.82  4554.47  4558.98  5065.87  5190.52
                             5207.38

 Zero-point correction=                           0.222045 (Hartree/Particle)
 Thermal correction to Energy=                    0.236314
 Thermal correction to Enthalpy=                  0.237258
 Thermal correction to Gibbs Free Energy=         0.180824
 Sum of electronic and zero-point Energies=          -3034.499923
 Sum of electronic and thermal Energies=             -3034.485655
 Sum of electronic and thermal Enthalpies=           -3034.484710
 Sum of electronic and thermal Free Energies=        -3034.541144

                     E (Thermal)             CV                S
                      KCal/Mol        Cal/Mol-Kelvin    Cal/Mol-Kelvin
 Total                  148.289             49.956            118.775
 Electronic               0.000              0.000              0.000
 Translational            0.889              2.981             42.096
 Rotational               0.889              2.981             31.438
 Vibrational            146.512             43.994             45.241
 Vibration     1          0.597              1.973              4.442
 Vibration     2          0.599              1.965              3.999
 Vibration     3          0.601              1.960              3.789
 Vibration     4          0.606              1.943              3.314
 Vibration     5          0.615              1.914              2.811
 Vibration     6          0.617              1.906              2.708
 Vibration     7          0.621              1.895              2.586
 Vibration     8          0.625              1.880              2.440
 Vibration     9          0.633              1.854              2.229
 Vibration    10          0.638              1.841              2.138
 Vibration    11          0.652              1.795              1.880
 Vibration    12          0.673              1.733              1.613
 Vibration    13          0.674              1.730              1.601
 Vibration    14          0.691              1.679              1.431
 Vibration    15          0.715              1.610              1.246
 Vibration    16          0.731              1.564              1.142
 Vibration    17          0.749              1.515              1.044
 Vibration    18          0.772              1.454              0.936
 Vibration    19          0.874              1.208              0.612
 Vibration    20          0.898              1.155              0.559
 Vibration    21          0.912              1.126              0.531

 Optimization completed.
    -- Stationary point found.
 Normal termination of Gaussian 16 at Tue Feb 16 12:54:30 2021.
