 Gaussian 16, Revision A.03,
 Gaussian 16:  ES64L-G16RevA.03 25-Dec-2016

 ----------------------------------------------------------------------
 # wB97XD def2tzvp, opt=(ts, noeigen, calcfc, maxcycles=70, maxstep=3),
  freq=noraman, scrf=(iefpcm, solvent=water)
 ----------------------------------------------------------------------

 ------------------------
 0_iteration/TS-555-0.out
 ------------------------
 Symbolic Z-matrix:
 Charge =  0 Multiplicity = 1

 SCF Done:  E(RwB97XD) =  -3415.71412425     A.U. after   16 cycles
 SCF Done:  E(RwB97XD) =  -3415.71429870     A.U. after   12 cycles
 SCF Done:  E(RwB97XD) =  -3415.71443831     A.U. after   12 cycles
 SCF Done:  E(RwB97XD) =  -3415.71453732     A.U. after   12 cycles
 SCF Done:  E(RwB97XD) =  -3415.71460614     A.U. after   12 cycles
 SCF Done:  E(RwB97XD) =  -3415.71463518     A.U. after   12 cycles
 SCF Done:  E(RwB97XD) =  -3415.71461507     A.U. after   12 cycles
 SCF Done:  E(RwB97XD) =  -3415.71455008     A.U. after   12 cycles
 SCF Done:  E(RwB97XD) =  -3415.71444177     A.U. after   12 cycles
 SCF Done:  E(RwB97XD) =  -3415.71429151     A.U. after   12 cycles
 SCF Done:  E(RwB97XD) =  -3415.71232374     A.U. after   12 cycles
 SCF Done:  E(RwB97XD) =  -3415.71234466     A.U. after   11 cycles
 SCF Done:  E(RwB97XD) =  -3415.71234089     A.U. after   11 cycles
 SCF Done:  E(RwB97XD) =  -3415.71234615     A.U. after   12 cycles
 SCF Done:  E(RwB97XD) =  -3415.71234893     A.U. after   11 cycles
 SCF Done:  E(RwB97XD) =  -3415.71234979     A.U. after   10 cycles
 SCF Done:  E(RwB97XD) =  -3415.71234839     A.U. after   10 cycles
 SCF Done:  E(RwB97XD) =  -3415.71234972     A.U. after   10 cycles
 SCF Done:  E(RwB97XD) =  -3415.71234976     A.U. after    7 cycles
 Optimization completed.
    -- Stationary point found.
 Normal termination of Gaussian 16 at Sat Apr 10 10:55:20 2021.

 ---------------------------------------------------------------------
 #N Geom=AllCheck Guess=TCheck SCRF=Check GenChk RwB97XD/def2TZVP Freq
 ---------------------------------------------------------------------

 Structure from the checkpoint file:  "/beegfs/scratch/user/q/tla25/Gau-191882.chk"
 ------------------------
 0_iteration/TS-555-0.out
 ------------------------
 Charge =  0 Multiplicity = 1

                         Standard orientation:
 ---------------------------------------------------------------------
 Center     Atomic      Atomic             Coordinates (Angstroms)
 Number     Number       Type             X           Y           Z
 ---------------------------------------------------------------------
      1          6           0        1.103919   -0.162357   -0.135052
      2          6           0        1.531613    1.050923    0.535494
      3          8           0        0.729767    1.759682    1.159979
      4          6           0       -0.216906   -0.546497   -0.270430
      5          6           0       -2.292245   -1.122639    1.877119
      6          1           0       -2.493759   -2.128056    1.511706
      7          1           0       -2.489918   -1.091401    2.950389
      8          1           0       -2.959574   -0.423409    1.376087
      9          7           0       -0.911895   -0.763459    1.573621
     10          1           0       -0.659706    0.162837    1.909059
     11          1           0       -0.253713   -1.428869    1.961725
     12          6           0       -0.595931   -1.869163   -0.864937
     13          1           0       -0.070163   -2.677529   -0.358455
     14          1           0       -1.667771   -2.033745   -0.786873
     15          1           0       -0.320959   -1.887941   -1.920471
     16         35           0       -1.489299    0.832030   -0.844543
     17         17           0        2.343219   -1.362506   -0.505240
     18          7           0        2.841613    1.390966    0.473035
     19          1           0        3.155638    2.166301    1.027701
     20          1           0        3.521790    0.811789    0.017618
 ---------------------------------------------------------------------

 SCF Done:  E(RwB97XD) =  -3415.71234976     A.U. after    1 cycles

 The electronic state is 1-A.
 Alpha  occ. eigenvalues -- -483.12621-101.69509 -62.67466 -56.46583 -56.46232
 Alpha  occ. eigenvalues --  -56.46214 -19.20769 -14.47440 -14.44343 -10.40026
 Alpha  occ. eigenvalues --  -10.38936 -10.31500 -10.31443 -10.29295  -9.58034
 Alpha  occ. eigenvalues --   -8.81571  -7.32664  -7.31836  -7.31796  -6.63718
 Alpha  occ. eigenvalues --   -6.62609  -6.62549  -2.74102  -2.73797  -2.73750
 Alpha  occ. eigenvalues --   -2.72852  -2.72851  -1.13418  -1.03147  -1.00429
 Alpha  occ. eigenvalues --   -0.97080  -0.91740  -0.83955  -0.80953  -0.78347
 Alpha  occ. eigenvalues --   -0.71437  -0.64597  -0.62491  -0.60629  -0.57971
 Alpha  occ. eigenvalues --   -0.56101  -0.55660  -0.53778  -0.51809  -0.50150
 Alpha  occ. eigenvalues --   -0.49958  -0.48405  -0.47570  -0.44853  -0.43526
 Alpha  occ. eigenvalues --   -0.41726  -0.40805  -0.37831  -0.36856  -0.35278
 Alpha  occ. eigenvalues --   -0.33899  -0.27460
 Alpha virt. eigenvalues --    0.02811   0.05913   0.10392   0.11861   0.13477
 Alpha virt. eigenvalues --    0.14470   0.15585   0.16113   0.17712   0.18175
 Alpha virt. eigenvalues --    0.19021   0.19563   0.20036   0.21129   0.21882

 Mulliken charges:
               1
     1  C   -0.195326
     2  C    0.345785
     3  O   -0.541978
     4  C    0.147880
     5  C   -0.280469
     6  H    0.153886
     7  H    0.151376
     8  H    0.146536
     9  N   -0.358814
    10  H    0.277921
    11  H    0.277540
    12  C   -0.379881
    13  H    0.150331
    14  H    0.157199
    15  H    0.163212
    16  Br  -0.123146
    17  Cl  -0.166560
    18  N   -0.467257
    19  H    0.271956
    20  H    0.269808
 Sum of Mulliken charges =  -0.00000

 Dipole moment (field-independent basis, Debye):
    X=             -0.9175    Y=             -4.8241    Z=              2.8748  Tot=              5.6902
 Quadrupole moment (field-independent basis, Debye-Ang):
   XX=            -68.7183   YY=            -80.4287   ZZ=            -75.7316
   XY=              8.7110   XZ=             -2.7102   YZ=             -5.0126

  Exact polarizability: 200.586   2.741 156.213 -10.233  -0.300 138.790
 Approx polarizability: 153.557  -4.252 131.778  -7.916   1.310 118.304

 ******    1 imaginary frequencies (negative Signs) ******

                      1                      2                      3
                      A                      A                      A
 Frequencies --   -361.0680                69.5320                77.6024
 Red. masses --      6.4152                 4.6967                 4.3880
 Frc consts  --      0.4928                 0.0134                 0.0156
 IR Inten    --    728.5358                 8.9971                14.3778

                      4                      5                      6
                      A                      A                      A
 Frequencies --    103.5233               122.3525               132.2476
 Red. masses --      2.5063                 3.7869                 1.3041
 Frc consts  --      0.0158                 0.0334                 0.0134
 IR Inten    --      1.3964                31.1336               281.5123

                      7                      8                      9
                      A                      A                      A
 Frequencies --    155.2897               171.6257               212.3733
 Red. masses --      8.4356                 1.6470                 2.3789
 Frc consts  --      0.1199                 0.0286                 0.0632
 IR Inten    --      1.3374                 4.5382                24.0776

                     10                     11                     12
                      A                      A                      A
 Frequencies --    242.5884               254.3902               267.5520
 Red. masses --      3.4176                 3.7154                 1.4622
 Frc consts  --      0.1185                 0.1417                 0.0617
 IR Inten    --      2.7473                15.2324                 2.6143

                     13                     14                     15
                      A                      A                      A
 Frequencies --    282.2414               321.7625               345.8275
 Red. masses --      5.7339                 1.9671                 3.4887
 Frc consts  --      0.2691                 0.1200                 0.2458
 IR Inten    --     11.5538                 2.8516                19.7028

                     16                     17                     18
                      A                      A                      A
 Frequencies --    415.1413               470.5044               478.6585
 Red. masses --      6.0551                 3.5810                 4.4241
 Frc consts  --      0.6148                 0.4671                 0.5972
 IR Inten    --     41.3336                 7.7212               111.6718

                     19                     20                     21
                      A                      A                      A
 Frequencies --    548.8307               609.0219               680.9634
 Red. masses --      1.2077                 2.4716                 1.6004
 Frc consts  --      0.2143                 0.5401                 0.4373
 IR Inten    --     15.0949                69.0636                11.1750

                     22                     23                     24
                      A                      A                      A
 Frequencies --    729.9761               782.2321              1006.6420
 Red. masses --      3.2811                 9.3020                 2.4212
 Frc consts  --      1.0301                 3.3535                 1.4455
 IR Inten    --    162.1305                66.2548                51.6717

                     25                     26                     27
                      A                      A                      A
 Frequencies --   1016.7000              1027.5709              1045.1812
 Red. masses --      1.0928                 1.6728                 1.4532
 Frc consts  --      0.6656                 1.0407                 0.9353
 IR Inten    --     35.3088               189.1617                13.8297

                     28                     29                     30
                      A                      A                      A
 Frequencies --   1074.2828              1081.9171              1098.4393
 Red. masses --      1.8987                 2.8025                 2.0976
 Frc consts  --      1.2911                 1.9328                 1.4912
 IR Inten    --     47.8106                72.8548                57.4419

                     31                     32                     33
                      A                      A                      A
 Frequencies --   1137.6327              1209.0066              1344.0504
 Red. masses --      3.0327                 1.3884                 1.3155
 Frc consts  --      2.3125                 1.1957                 1.4002
 IR Inten    --     53.3460                31.2627                 4.8934

                     34                     35                     36
                      A                      A                      A
 Frequencies --   1394.7518              1414.9195              1447.1742
 Red. masses --      4.0530                 1.2744                 1.8553
 Frc consts  --      4.6453                 1.5033                 2.2894
 IR Inten    --    593.5646                32.3558               389.2064

                     37                     38                     39
                      A                      A                      A
 Frequencies --   1466.0325              1477.0095              1487.0653
 Red. masses --      1.4137                 1.0896                 1.2804
 Frc consts  --      1.7902                 1.4006                 1.6682
 IR Inten    --    232.8494                16.9648               118.0557

                     40                     41                     42
                      A                      A                      A
 Frequencies --   1495.0987              1507.9216              1605.4282
 Red. masses --      1.0821                 1.0434                 1.4411
 Frc consts  --      1.4251                 1.3979                 2.1884
 IR Inten    --     41.6451                18.0125               257.9060

                     43                     44                     45
                      A                      A                      A
 Frequencies --   1652.4564              1662.2632              3060.6200
 Red. masses --      1.1807                 3.5018                 1.0367
 Frc consts  --      1.8995                 5.7009                 5.7218
 IR Inten    --    161.3211               479.4171                60.4212

                     46                     47                     48
                      A                      A                      A
 Frequencies --   3073.0648              3137.1175              3148.9490
 Red. masses --      1.0366                 1.1002                 1.1017
 Frc consts  --      5.7678                 6.3797                 6.4365
 IR Inten    --      6.6995                16.8899                 8.5851

                     49                     50                     51
                      A                      A                      A
 Frequencies --   3165.3480              3172.2098              3492.9328
 Red. masses --      1.1054                 1.1030                 1.0547
 Frc consts  --      6.5256                 6.5398                 7.5813
 IR Inten    --     16.4323                 8.8283                47.6114

                     52                     53                     54
                      A                      A                      A
 Frequencies --   3590.3671              3634.4754              3762.5852
 Red. masses --      1.0932                 1.0452                 1.1056
 Frc consts  --      8.3027                 8.1345                 9.2218
 IR Inten    --     60.8609               107.5358                96.0944

 - Thermochemistry -
 -------------------
 Temperature   298.150 Kelvin.  Pressure   1.00000 Atm.
 Atom     1 has atomic number  6 and mass  12.00000

 Molecular mass:   227.96650 amu.
 Principal axes and moments of inertia in atomic units:
                           1         2         3
     Eigenvalues --  1808.807483096.751143446.29590
           X            0.99355   0.10403  -0.04517
           Y           -0.10329   0.99448   0.01832
           Z            0.04682  -0.01354   0.99881
 This molecule is an asymmetric top.
 Rotational symmetry number  1.
 Warning -- assumption of classical behavior for rotation
           may cause significant error
 Rotational temperatures (Kelvin)      0.04788     0.02797     0.02513
 Rotational constants (GHZ):           0.99775     0.58279     0.52368
    1 imaginary frequencies ignored.
 Zero-point vibrational energy     408904.2 (Joules/Mol)
                                   97.73046 (Kcal/Mol)
 Warning -- explicit consideration of  19 degrees of freedom as
           vibrations may cause significant error
 Vibrational temperatures:    100.04   111.65   148.95   176.04   190.27
          (Kelvin)            223.43   246.93   305.56   349.03   366.01
                              384.95   406.08   462.94   497.57   597.30
                              676.95   688.68   789.64   876.25   979.75
                             1050.27  1125.46  1448.33  1462.80  1478.45
                             1503.78  1545.65  1556.64  1580.41  1636.80
                             1739.49  1933.79  2006.74  2035.75  2082.16
                             2109.29  2125.09  2139.56  2151.11  2169.56
                             2309.85  2377.52  2391.63  4403.55  4421.45
                             4513.61  4530.64  4554.23  4564.10  5025.55
                             5165.74  5229.20  5413.52

 Zero-point correction=                           0.155743 (Hartree/Particle)
 Thermal correction to Energy=                    0.168418
 Thermal correction to Enthalpy=                  0.169362
 Thermal correction to Gibbs Free Energy=         0.116105
 Sum of electronic and zero-point Energies=          -3415.556606
 Sum of electronic and thermal Energies=             -3415.543932
 Sum of electronic and thermal Enthalpies=           -3415.542988
 Sum of electronic and thermal Free Energies=        -3415.596245

                     E (Thermal)             CV                S
                      KCal/Mol        Cal/Mol-Kelvin    Cal/Mol-Kelvin
 Total                  105.684             43.691            112.089
 Electronic               0.000              0.000              0.000
 Translational            0.889              2.981             42.174
 Rotational               0.889              2.981             31.335
 Vibrational            103.906             37.730             38.580
 Vibration     1          0.598              1.969              4.167
 Vibration     2          0.599              1.964              3.951
 Vibration     3          0.605              1.946              3.387
 Vibration     4          0.610              1.930              3.063
 Vibration     5          0.612              1.921              2.913
 Vibration     6          0.620              1.897              2.606
 Vibration     7          0.626              1.877              2.418
 Vibration     8          0.643              1.822              2.023
 Vibration     9          0.659              1.775              1.784
 Vibration    10          0.665              1.755              1.700
 Vibration    11          0.673              1.733              1.612
 Vibration    12          0.681              1.707              1.520
 Vibration    13          0.707              1.632              1.301
 Vibration    14          0.724              1.584              1.185
 Vibration    15          0.779              1.437              0.909
 Vibration    16          0.828              1.315              0.736
 Vibration    17          0.835              1.297              0.714
 Vibration    18          0.904              1.142              0.547
 Vibration    19          0.968              1.013              0.434

 Optimization completed.
    -- Stationary point found.
 Normal termination of Gaussian 16 at Sat Apr 10 11:02:08 2021.
