 Gaussian 16, Revision A.03,
 Gaussian 16:  ES64L-G16RevA.03 25-Dec-2016

 ----------------------------------------------------------------------
 # wB97XD def2tzvp, opt=(ts, noeigen, calcfc, maxcycles=70, maxstep=1),
  freq=noraman, scrf=(iefpcm, solvent=water)
 ----------------------------------------------------------------------

 ------------------------
 0_iteration/TS-553-0.out
 ------------------------
 Symbolic Z-matrix:
 Charge =  0 Multiplicity = 1

 SCF Done:  E(RwB97XD) =  -3360.32605531     A.U. after   15 cycles
 SCF Done:  E(RwB97XD) =  -3360.32601736     A.U. after   10 cycles
 SCF Done:  E(RwB97XD) =  -3360.32598242     A.U. after   10 cycles
 SCF Done:  E(RwB97XD) =  -3360.32595058     A.U. after   10 cycles
 SCF Done:  E(RwB97XD) =  -3360.32592195     A.U. after   10 cycles
 SCF Done:  E(RwB97XD) =  -3360.32589672     A.U. after   10 cycles
 SCF Done:  E(RwB97XD) =  -3360.32587518     A.U. after   10 cycles
 SCF Done:  E(RwB97XD) =  -3360.32585788     A.U. after   10 cycles
 SCF Done:  E(RwB97XD) =  -3360.32584593     A.U. after   10 cycles
 SCF Done:  E(RwB97XD) =  -3360.32584164     A.U. after   10 cycles
 SCF Done:  E(RwB97XD) =  -3360.32859178     A.U. after   10 cycles
 SCF Done:  E(RwB97XD) =  -3360.32861922     A.U. after   10 cycles
 SCF Done:  E(RwB97XD) =  -3360.32863150     A.U. after   10 cycles
 SCF Done:  E(RwB97XD) =  -3360.32863821     A.U. after   10 cycles
 SCF Done:  E(RwB97XD) =  -3360.32863984     A.U. after   10 cycles
 SCF Done:  E(RwB97XD) =  -3360.32864070     A.U. after    9 cycles
 SCF Done:  E(RwB97XD) =  -3360.32864080     A.U. after    9 cycles
 SCF Done:  E(RwB97XD) =  -3360.32864077     A.U. after    8 cycles
 SCF Done:  E(RwB97XD) =  -3360.32864073     A.U. after    7 cycles
 Optimization completed.
    -- Stationary point found.
 Normal termination of Gaussian 16 at Mon Feb 15 20:23:26 2021.

 ---------------------------------------------------------------------
 #N Geom=AllCheck Guess=TCheck SCRF=Check GenChk RwB97XD/def2TZVP Freq
 ---------------------------------------------------------------------

 Structure from the checkpoint file:  "/beegfs/scratch/user/q/tla25/Gau-37455.chk"
 ------------------------
 0_iteration/TS-553-0.out
 ------------------------
 Charge =  0 Multiplicity = 1

                         Standard orientation:
 ---------------------------------------------------------------------
 Center     Atomic      Atomic             Coordinates (Angstroms)
 Number     Number       Type             X           Y           Z
 ---------------------------------------------------------------------
      1          6           0        1.000962   -0.240784   -0.270272
      2          6           0        1.172508   -1.528219    0.298803
      3          8           0        2.240087   -2.104359    0.493043
      4          6           0       -0.194167    0.467751   -0.407148
      5          6           0       -0.115841    0.790306    2.416342
      6          1           0        0.907868    0.432403    2.315129
      7          1           0       -0.189513    1.410019    3.309432
      8          1           0       -0.782811   -0.064756    2.516908
      9          7           0       -0.472688    1.537867    1.219500
     10          1           0       -1.436598    1.850823    1.240324
     11          1           0        0.119568    2.352897    1.105797
     12          6           0       -0.346220    1.588622   -1.397168
     13          1           0       -1.294133    2.105497   -1.264477
     14          1           0        0.470031    2.301488   -1.299833
     15          1           0       -0.316216    1.170579   -2.404415
     16         35           0       -1.815900   -0.589940   -0.324623
     17         17           0        2.478535    0.630689   -0.649762
     18          1           0        0.227888   -2.029002    0.564707
 ---------------------------------------------------------------------

 SCF Done:  E(RwB97XD) =  -3360.32864073     A.U. after    1 cycles

 The electronic state is 1-A.
 Alpha  occ. eigenvalues -- -483.14209-101.69292 -62.69052 -56.48177 -56.47812
 Alpha  occ. eigenvalues --  -56.47797 -19.21685 -14.49099 -10.41275 -10.35530
 Alpha  occ. eigenvalues --  -10.32063 -10.32011 -10.29735  -9.57816  -8.83159
 Alpha  occ. eigenvalues --   -7.32447  -7.31605  -7.31590  -6.65336  -6.64174
 Alpha  occ. eigenvalues --   -6.64128  -2.75718  -2.75390  -2.75356  -2.74415
 Alpha  occ. eigenvalues --   -2.74415  -1.12122  -1.04717  -0.98018  -0.92911
 Alpha  occ. eigenvalues --   -0.84939  -0.82129  -0.78956  -0.71293  -0.63975
 Alpha  occ. eigenvalues --   -0.62102  -0.58868  -0.57659  -0.56247  -0.54155
 Alpha  occ. eigenvalues --   -0.50648  -0.50435  -0.49746  -0.48578  -0.47586
 Alpha  occ. eigenvalues --   -0.45556  -0.43576  -0.41764  -0.40172  -0.38321
 Alpha  occ. eigenvalues --   -0.37980  -0.33086  -0.28769
 Alpha virt. eigenvalues --    0.02712   0.04122   0.10002   0.11492   0.13562
 Alpha virt. eigenvalues --    0.14218   0.14988   0.16113   0.17352   0.18533
 Alpha virt. eigenvalues --    0.19248   0.19689   0.21871   0.22416   0.23224

 Mulliken charges:
               1
     1  C   -0.075576
     2  C    0.059371
     3  O   -0.483765
     4  C    0.083628
     5  C   -0.312961
     6  H    0.167912
     7  H    0.167299
     8  H    0.158265
     9  N   -0.342525
    10  H    0.296438
    11  H    0.288507
    12  C   -0.344442
    13  H    0.156210
    14  H    0.152783
    15  H    0.162724
    16  Br  -0.071060
    17  Cl  -0.160945
    18  H    0.098135
 Sum of Mulliken charges =  -0.00000

 Dipole moment (field-independent basis, Debye):
    X=             -7.5580    Y=              8.4582    Z=              2.6363  Tot=             11.6453
 Quadrupole moment (field-independent basis, Debye-Ang):
   XX=            -89.6340   YY=            -72.2569   ZZ=            -66.4015
   XY=              7.8488   XZ=             -2.7185   YZ=              5.6872

  Exact polarizability: 177.501 -13.192 157.631  -4.552  -0.721 125.523
 Approx polarizability: 143.949  -7.753 132.708  -3.007  -1.530 106.172

 ******    1 imaginary frequencies (negative Signs) ******

                      1                      2                      3
                      A                      A                      A
 Frequencies --   -349.2337                55.4335                60.3157
 Red. masses --      5.4636                 5.7372                 2.3090
 Frc consts  --      0.3926                 0.0104                 0.0049
 IR Inten    --    829.9659                 1.4771                 0.2604

                      4                      5                      6
                      A                      A                      A
 Frequencies --    106.7340               143.6727               178.3734
 Red. masses --      3.6892                 1.7383                 7.9842
 Frc consts  --      0.0248                 0.0211                 0.1497
 IR Inten    --     11.9744                 3.9322                 6.2826

                      7                      8                      9
                      A                      A                      A
 Frequencies --    219.0215               225.7905               248.7434
 Red. masses --      2.2189                 2.5178                 1.9423
 Frc consts  --      0.0627                 0.0756                 0.0708
 IR Inten    --      4.7441                 2.5045                 1.6777

                     10                     11                     12
                      A                      A                      A
 Frequencies --    260.6812               282.7339               318.4921
 Red. masses --      3.8885                 4.3457                 2.2244
 Frc consts  --      0.1557                 0.2047                 0.1329
 IR Inten    --      3.8254                 4.3720                 7.9111

                     13                     14                     15
                      A                      A                      A
 Frequencies --    342.0902               359.1256               524.3098
 Red. masses --      2.9404                 2.8892                 5.0997
 Frc consts  --      0.2027                 0.2195                 0.8260
 IR Inten    --      2.4665                 6.4932                13.1538

                     16                     17                     18
                      A                      A                      A
 Frequencies --    529.9397               619.4086               664.3787
 Red. masses --      3.9674                 1.6621                 6.4521
 Frc consts  --      0.6565                 0.3757                 1.6780
 IR Inten    --    103.4392                 7.7003                64.9188

                     19                     20                     21
                      A                      A                      A
 Frequencies --    747.8510              1002.8277              1013.0193
 Red. masses --      2.7689                 1.0859                 1.3518
 Frc consts  --      0.9124                 0.6434                 0.8173
 IR Inten    --    192.1919                36.6802                69.1820

                     22                     23                     24
                      A                      A                      A
 Frequencies --   1016.2157              1042.5185              1060.2729
 Red. masses --      1.4378                 1.9651                 1.5815
 Frc consts  --      0.8748                 1.2583                 1.0475
 IR Inten    --     39.8772                69.0770                41.2715

                     25                     26                     27
                      A                      A                      A
 Frequencies --   1087.7516              1111.8915              1221.8938
 Red. masses --      3.6177                 2.7029                 1.3963
 Frc consts  --      2.5220                 1.9688                 1.2283
 IR Inten    --     18.6369                61.9933                24.1408

                     28                     29                     30
                      A                      A                      A
 Frequencies --   1251.1163              1347.7895              1382.2653
 Red. masses --      4.1089                 1.3182                 1.9495
 Frc consts  --      3.7894                 1.4108                 2.1946
 IR Inten    --     97.0466                 0.6554               601.5095

                     31                     32                     33
                      A                      A                      A
 Frequencies --   1423.2232              1457.0113              1473.8283
 Red. masses --      1.2431                 1.2791                 1.2726
 Frc consts  --      1.4835                 1.5998                 1.6286
 IR Inten    --     28.3412                77.8551                75.8505

                     34                     35                     36
                      A                      A                      A
 Frequencies --   1480.1588              1493.3210              1494.1929
 Red. masses --      1.1071                 1.0470                 1.4215
 Frc consts  --      1.4291                 1.3756                 1.8698
 IR Inten    --     44.5081                15.3515               199.2251

                     37                     38                     39
                      A                      A                      A
 Frequencies --   1506.7049              1643.7351              1676.6291
 Red. masses --      1.0692                 1.0894                 8.4303
 Frc consts  --      1.4301                 1.7341                13.9626
 IR Inten    --     38.5790                64.5850               989.6970

                     40                     41                     42
                      A                      A                      A
 Frequencies --   2995.4324              3072.7829              3075.4307
 Red. masses --      1.0828                 1.0327                 1.0366
 Frc consts  --      5.7243                 5.7447                 5.7767
 IR Inten    --     68.0083                20.7610                 5.8530

                     43                     44                     45
                      A                      A                      A
 Frequencies --   3153.3151              3154.3108              3164.6860
 Red. masses --      1.1046                 1.1015                 1.1056
 Frc consts  --      6.4710                 6.4570                 6.5238
 IR Inten    --      3.6203                14.6497                 9.3300

                     46                     47                     48
                      A                      A                      A
 Frequencies --   3173.5886              3520.9817              3604.3090
 Red. masses --      1.1041                 1.0505                 1.0966
 Frc consts  --      6.5517                 7.6731                 8.3936
 IR Inten    --      8.9232                67.3961                52.1711

 - Thermochemistry -
 -------------------
 Temperature   298.150 Kelvin.  Pressure   1.00000 Atm.
 Atom     1 has atomic number  6 and mass  12.00000

 Molecular mass:   212.95560 amu.
 Principal axes and moments of inertia in atomic units:
                           1         2         3
     Eigenvalues --  1497.284842765.872732978.78030
           X            0.99908  -0.04214  -0.00834
           Y            0.04217   0.99910   0.00360
           Z            0.00818  -0.00395   0.99996
 This molecule is an asymmetric top.
 Rotational symmetry number  1.
 Warning -- assumption of classical behavior for rotation
           may cause significant error
 Rotational temperatures (Kelvin)      0.05785     0.03132     0.02908
 Rotational constants (GHZ):           1.20534     0.65250     0.60587
    1 imaginary frequencies ignored.
 Zero-point vibrational energy     364791.0 (Joules/Mol)
                                   87.18715 (Kcal/Mol)
 Warning -- explicit consideration of  16 degrees of freedom as
           vibrations may cause significant error
 Vibrational temperatures:     79.76    86.78   153.57   206.71   256.64
          (Kelvin)            315.12   324.86   357.89   375.06   406.79
                              458.24   492.19   516.70   754.36   762.47
                              891.19   955.89  1075.99  1442.85  1457.51
                             1462.11  1499.95  1525.50  1565.03  1599.76
                             1758.03  1800.08  1939.17  1988.77  2047.70
                             2096.31  2120.51  2129.62  2148.56  2149.81
                             2167.81  2364.97  2412.30  4309.76  4421.05
                             4424.86  4536.92  4538.35  4553.28  4566.09
                             5065.91  5185.80

 Zero-point correction=                           0.138942 (Hartree/Particle)
 Thermal correction to Energy=                    0.150045
 Thermal correction to Enthalpy=                  0.150989
 Thermal correction to Gibbs Free Energy=         0.100738
 Sum of electronic and zero-point Energies=          -3360.189699
 Sum of electronic and thermal Energies=             -3360.178596
 Sum of electronic and thermal Enthalpies=           -3360.177652
 Sum of electronic and thermal Free Energies=        -3360.227902

                     E (Thermal)             CV                S
                      KCal/Mol        Cal/Mol-Kelvin    Cal/Mol-Kelvin
 Total                   94.154             37.827            105.761
 Electronic               0.000              0.000              0.000
 Translational            0.889              2.981             41.971
 Rotational               0.889              2.981             30.890
 Vibrational             92.377             31.865             32.900
 Vibration     1          0.596              1.975              4.613
 Vibration     2          0.597              1.973              4.447
 Vibration     3          0.606              1.944              3.327
 Vibration     4          0.616              1.909              2.754
 Vibration     5          0.629              1.869              2.345
 Vibration     6          0.647              1.812              1.967
 Vibration     7          0.650              1.802              1.912
 Vibration     8          0.662              1.765              1.739
 Vibration     9          0.669              1.745              1.657
 Vibration    10          0.682              1.706              1.517
 Vibration    11          0.705              1.638              1.318
 Vibration    12          0.721              1.591              1.202
 Vibration    13          0.734              1.556              1.126
 Vibration    14          0.879              1.196              0.600
 Vibration    15          0.885              1.184              0.587
 Vibration    16          0.979              0.991              0.417

 Optimization completed.
    -- Stationary point found.
 Normal termination of Gaussian 16 at Mon Feb 15 20:35:54 2021.
