 Gaussian 16, Revision A.03,
 Gaussian 16:  ES64L-G16RevA.03 25-Dec-2016

 ----------------------------------------------------------------------
 # wB97XD def2tzvp, opt=(ts, noeigen, calcfc, maxcycles=70, maxstep=8),
  freq=noraman, scrf=(iefpcm, solvent=water)
 ----------------------------------------------------------------------

 ------------------------
 1_iteration/TS-505-1.out
 ------------------------
 Symbolic Z-matrix:
 Charge =  0 Multiplicity = 1

 SCF Done:  E(RwB97XD) =  -2940.04276861     A.U. after   14 cycles
 SCF Done:  E(RwB97XD) =  -2940.04276865     A.U. after    8 cycles
 Optimization completed.
    -- Stationary point found.
 Normal termination of Gaussian 16 at Tue Feb 16 14:38:40 2021.

 ---------------------------------------------------------------------
 #N Geom=AllCheck Guess=TCheck SCRF=Check GenChk RwB97XD/def2TZVP Freq
 ---------------------------------------------------------------------

 Structure from the checkpoint file:  "/beegfs/scratch/user/q/tla25/Gau-95116.chk"
 ------------------------
 1_iteration/TS-505-1.out
 ------------------------
 Charge =  0 Multiplicity = 1

                         Standard orientation:
 ---------------------------------------------------------------------
 Center     Atomic      Atomic             Coordinates (Angstroms)
 Number     Number       Type             X           Y           Z
 ---------------------------------------------------------------------
      1          6           0       -0.402863    0.558684    0.177564
      2          6           0       -0.939594    1.797678   -0.224722
      3          8           0       -2.075984    2.029385   -0.643644
      4          6           0        0.919091    0.338529    0.605970
      5          6           0        3.268817   -0.676653   -1.039906
      6          1           0        3.640868   -0.867671   -2.047931
      7          1           0        3.914858    0.057582   -0.561750
      8          1           0        3.306060   -1.603713   -0.471549
      9          7           0        1.895047   -0.175716   -1.055980
     10          1           0        1.816297    0.668623   -1.611064
     11          1           0        1.263003   -0.856977   -1.460943
     12          6           0        1.243317   -0.883593    1.424784
     13          1           0        0.755490   -0.778313    2.396769
     14          1           0        0.879405   -1.800521    0.967363
     15          1           0        2.315268   -0.966526    1.594586
     16          6           0        1.762489    1.534840    0.990481
     17          1           0        1.404916    1.924618    1.944922
     18          1           0        2.799618    1.232123    1.124692
     19          1           0        1.732263    2.338873    0.259967
     20         35           0       -1.581677   -0.943141   -0.030780
     21          1           0       -0.234353    2.639878   -0.121770
 ---------------------------------------------------------------------

 SCF Done:  E(RwB97XD) =  -2940.04276865     A.U. after    1 cycles

 The electronic state is 1-A.
 Alpha  occ. eigenvalues -- -483.11797 -62.66641 -56.45735 -56.45416 -56.45404
 Alpha  occ. eigenvalues --  -19.20831 -14.47727 -10.36604 -10.34763 -10.31750
 Alpha  occ. eigenvalues --  -10.30455 -10.28883 -10.28468  -8.80761  -6.62845
 Alpha  occ. eigenvalues --   -6.61821  -6.61785  -2.73247  -2.72950  -2.72922
 Alpha  occ. eigenvalues --   -2.72093  -2.72093  -1.11109  -1.03379  -0.94460
 Alpha  occ. eigenvalues --   -0.87801  -0.81498  -0.79255  -0.78468  -0.69454
 Alpha  occ. eigenvalues --   -0.62618  -0.60584  -0.58894  -0.56486  -0.55467
 Alpha  occ. eigenvalues --   -0.53371  -0.50401  -0.49840  -0.48507  -0.48272
 Alpha  occ. eigenvalues --   -0.47525  -0.46830  -0.46098  -0.43476  -0.40775
 Alpha  occ. eigenvalues --   -0.38363  -0.36373  -0.32532  -0.27904
 Alpha virt. eigenvalues --    0.03679   0.08351   0.09753   0.13330   0.13604
 Alpha virt. eigenvalues --    0.14419   0.15136   0.16940   0.17779   0.18388
 Alpha virt. eigenvalues --    0.18651   0.19892   0.20502   0.21465   0.21840

 Mulliken charges:
               1
     1  C   -0.036850
     2  C    0.044640
     3  O   -0.506859
     4  C    0.053733
     5  C   -0.292907
     6  H    0.154776
     7  H    0.152258
     8  H    0.159609
     9  N   -0.360084
    10  H    0.279719
    11  H    0.277745
    12  C   -0.368698
    13  H    0.157486
    14  H    0.152872
    15  H    0.147916
    16  C   -0.373981
    17  H    0.163937
    18  H    0.144184
    19  H    0.148698
    20  Br  -0.173660
    21  H    0.075464
 Sum of Mulliken charges =  -0.00000

 Dipole moment (field-independent basis, Debye):
    X=             12.3987    Y=             -2.6342    Z=             -0.1755  Tot=             12.6766
 Quadrupole moment (field-independent basis, Debye-Ang):
   XX=            -69.4390   YY=            -72.1651   ZZ=            -63.8066
   XY=              8.7628   XZ=             -7.4207   YZ=              3.9433

  Exact polarizability: 188.909 -14.397 152.068   3.662  -0.434 122.379
 Approx polarizability: 143.501  -8.049 123.258   4.025  -0.724 104.954

 ******    1 imaginary frequencies (negative Signs) ******

                      1                      2                      3
                      A                      A                      A
 Frequencies --   -317.7563                44.8662                64.3670
 Red. masses --      5.6973                 3.0667                 2.2070
 Frc consts  --      0.3389                 0.0036                 0.0054
 IR Inten    --    816.1743                 0.6319                 3.0077

                      4                      5                      6
                      A                      A                      A
 Frequencies --     93.8473               157.1763               188.0880
 Red. masses --      4.0742                 1.2660                 1.9482
 Frc consts  --      0.0211                 0.0184                 0.0406
 IR Inten    --      9.5520                 1.2284                 1.0690

                      7                      8                      9
                      A                      A                      A
 Frequencies --    192.1932               219.2008               237.8084
 Red. masses --      5.3737                 2.5910                 1.7504
 Frc consts  --      0.1170                 0.0734                 0.0583
 IR Inten    --     13.5271                 2.7376                 2.8034

                     10                     11                     12
                      A                      A                      A
 Frequencies --    256.2788               273.0809               314.5348
 Red. masses --      1.2015                 2.3166                 2.6418
 Frc consts  --      0.0465                 0.1018                 0.1540
 IR Inten    --      0.4407                 3.8731                19.4314

                     13                     14                     15
                      A                      A                      A
 Frequencies --    362.3925               378.7489               421.9100
 Red. masses --      2.8594                 2.5469                 2.9573
 Frc consts  --      0.2213                 0.2153                 0.3102
 IR Inten    --      7.8466                 6.7816                 8.8639

                     16                     17                     18
                      A                      A                      A
 Frequencies --    501.7311               572.7241               615.9491
 Red. masses --      3.8643                 3.6426                 4.4512
 Frc consts  --      0.5731                 0.7040                 0.9950
 IR Inten    --    156.8755                43.6219                80.6307

                     19                     20                     21
                      A                      A                      A
 Frequencies --    641.4978               887.7383               957.1592
 Red. masses --      1.3477                 3.1738                 1.3357
 Frc consts  --      0.3268                 1.4737                 0.7210
 IR Inten    --     16.2301                27.3214                 1.3400

                     22                     23                     24
                      A                      A                      A
 Frequencies --   1007.0215              1012.0261              1030.4045
 Red. masses --      1.2484                 1.4649                 1.2585
 Frc consts  --      0.7459                 0.8840                 0.7872
 IR Inten    --      0.6030                 3.4406                 2.8911

                     25                     26                     27
                      A                      A                      A
 Frequencies --   1035.1983              1059.2039              1076.5033
 Red. masses --      1.1176                 3.1554                 1.8858
 Frc consts  --      0.7056                 2.0857                 1.2876
 IR Inten    --    231.9691               194.3315                24.3014

                     28                     29                     30
                      A                      A                      A
 Frequencies --   1109.8612              1204.5369              1223.8914
 Red. masses --      1.9475                 3.4898                 1.3939
 Frc consts  --      1.4134                 2.9833                 1.2302
 IR Inten    --     39.4468                30.4666                29.6226

                     31                     32                     33
                      A                      A                      A
 Frequencies --   1290.2342              1351.3932              1386.3526
 Red. masses --      3.3927                 1.3094                 1.9591
 Frc consts  --      3.3276                 1.4090                 2.2185
 IR Inten    --     77.4209                 0.5213               577.0937

                     34                     35                     36
                      A                      A                      A
 Frequencies --   1411.9701              1422.2802              1453.6404
 Red. masses --      1.3054                 1.2204                 1.2614
 Frc consts  --      1.5333                 1.4545                 1.5704
 IR Inten    --     85.0979                 8.1229                51.2951

                     37                     38                     39
                      A                      A                      A
 Frequencies --   1466.9909              1476.5998              1478.6286
 Red. masses --      1.2720                 1.0852                 1.0593
 Frc consts  --      1.6129                 1.3941                 1.3645
 IR Inten    --     79.5558                19.0831                 6.5559

                     40                     41                     42
                      A                      A                      A
 Frequencies --   1492.8431              1506.5493              1508.2130
 Red. masses --      1.0548                 1.1088                 1.0602
 Frc consts  --      1.3850                 1.4828                 1.4209
 IR Inten    --     17.3521                59.6004                53.0250

                     43                     44                     45
                      A                      A                      A
 Frequencies --   1523.3365              1646.1592              1662.0734
 Red. masses --      1.3750                 1.1171                 6.4170
 Frc consts  --      1.8799                 1.7836                10.4443
 IR Inten    --    123.3479               160.1289               998.6366

                     46                     47                     48
                      A                      A                      A
 Frequencies --   2972.7519              3063.9244              3066.9250
 Red. masses --      1.0806                 1.0365                 1.0397
 Frc consts  --      5.6263                 5.7327                 5.7618
 IR Inten    --    110.5185                55.5283                 9.9148

                     49                     50                     51
                      A                      A                      A
 Frequencies --   3075.8880              3139.6241              3141.0758
 Red. masses --      1.0388                 1.1007                 1.0981
 Frc consts  --      5.7909                 6.3928                 6.3835
 IR Inten    --     19.3704                17.3617                10.2792

                     52                     53                     54
                      A                      A                      A
 Frequencies --   3147.0008              3167.4348              3172.1747
 Red. masses --      1.0997                 1.1054                 1.1037
 Frc consts  --      6.4169                 6.5340                 6.5434
 IR Inten    --     26.9817                24.3104                 7.9946

                     55                     56                     57
                      A                      A                      A
 Frequencies --   3174.6272              3522.9706              3602.6582
 Red. masses --      1.1022                 1.0512                 1.0958
 Frc consts  --      6.5451                 7.6872                 8.3799
 IR Inten    --     23.4006                14.5694                36.5545

 - Thermochemistry -
 -------------------
 Temperature   298.150 Kelvin.  Pressure   1.00000 Atm.
 Atom     1 has atomic number  6 and mass  12.00000

 Molecular mass:   193.01023 amu.
 Principal axes and moments of inertia in atomic units:
                           1         2         3
     Eigenvalues --  1250.951832435.163042966.80514
           X            0.99906  -0.04269  -0.00729
           Y            0.04282   0.99890   0.01927
           Z            0.00646  -0.01956   0.99979
 This molecule is an asymmetric top.
 Rotational symmetry number  1.
 Warning -- assumption of classical behavior for rotation
           may cause significant error
 Rotational temperatures (Kelvin)      0.06924     0.03557     0.02919
 Rotational constants (GHZ):           1.44269     0.74112     0.60831
    1 imaginary frequencies ignored.
 Zero-point vibrational energy     463339.2 (Joules/Mol)
                                  110.74072 (Kcal/Mol)
 Warning -- explicit consideration of  17 degrees of freedom as
           vibrations may cause significant error
 Vibrational temperatures:     64.55    92.61   135.03   226.14   270.62
          (Kelvin)            276.52   315.38   342.15   368.73   392.90
                              452.55   521.40   544.94   607.03   721.88
                              824.02   886.21   922.97  1277.26  1377.14
                             1448.88  1456.08  1482.52  1489.42  1523.96
                             1548.85  1596.84  1733.06  1760.91  1856.36
                             1944.35  1994.65  2031.51  2046.34  2091.46
                             2110.67  2124.50  2127.42  2147.87  2167.59
                             2169.98  2191.74  2368.46  2391.35  4277.13
                             4408.30  4412.62  4425.52  4517.22  4519.31
                             4527.83  4557.23  4564.05  4567.58  5068.77
                             5183.42

 Zero-point correction=                           0.176477 (Hartree/Particle)
 Thermal correction to Energy=                    0.187953
 Thermal correction to Enthalpy=                  0.188897
 Thermal correction to Gibbs Free Energy=         0.138196
 Sum of electronic and zero-point Energies=          -2939.866292
 Sum of electronic and thermal Energies=             -2939.854816
 Sum of electronic and thermal Enthalpies=           -2939.853872
 Sum of electronic and thermal Free Energies=        -2939.904572

                     E (Thermal)             CV                S
                      KCal/Mol        Cal/Mol-Kelvin    Cal/Mol-Kelvin
 Total                  117.942             39.896            106.708
 Electronic               0.000              0.000              0.000
 Translational            0.889              2.981             41.678
 Rotational               0.889              2.981             30.581
 Vibrational            116.165             33.934             34.449
 Vibration     1          0.595              1.979              5.032
 Vibration     2          0.597              1.971              4.319
 Vibration     3          0.603              1.954              3.578
 Vibration     4          0.621              1.895              2.583
 Vibration     5          0.633              1.856              2.247
 Vibration     6          0.634              1.851              2.207
 Vibration     7          0.647              1.812              1.966
 Vibration     8          0.656              1.783              1.819
 Vibration     9          0.666              1.752              1.687
 Vibration    10          0.676              1.723              1.577
 Vibration    11          0.702              1.646              1.338
 Vibration    12          0.736              1.550              1.112
 Vibration    13          0.749              1.515              1.044
 Vibration    14          0.784              1.423              0.886
 Vibration    15          0.857              1.246              0.654
 Vibration    16          0.929              1.090              0.499
 Vibration    17          0.976              0.998              0.423

 Optimization completed.
    -- Stationary point found.
 Normal termination of Gaussian 16 at Tue Feb 16 14:51:22 2021.
