 Gaussian 16, Revision A.03,
 Gaussian 16:  ES64L-G16RevA.03 25-Dec-2016

 ----------------------------------------------------------------------
 # wB97XD def2tzvp, opt=(ts, noeigen, calcfc, maxcycles=70, maxstep=5),
  freq=noraman, scrf=(iefpcm, solvent=water)
 ----------------------------------------------------------------------

 ------------------------
 2_iteration/TS-565-2.out
 ------------------------
 Symbolic Z-matrix:
 Charge =  0 Multiplicity = 1

 SCF Done:  E(RwB97XD) =  -1112.46398758     A.U. after   15 cycles
 Optimization completed.
    -- Stationary point found.
 Normal termination of Gaussian 16 at Wed Feb 17 17:13:55 2021.

 ---------------------------------------------------------------------
 #N Geom=AllCheck Guess=TCheck SCRF=Check GenChk RwB97XD/def2TZVP Freq
 ---------------------------------------------------------------------

 Structure from the checkpoint file:  "/beegfs/scratch/user/q/tla25/Gau-37265.chk"
 ------------------------
 2_iteration/TS-565-2.out
 ------------------------
 Charge =  0 Multiplicity = 1

                         Standard orientation:
 ---------------------------------------------------------------------
 Center     Atomic      Atomic             Coordinates (Angstroms)
 Number     Number       Type             X           Y           Z
 ---------------------------------------------------------------------
      1          6           0       -0.232391    0.079589   -0.237611
      2          6           0       -0.720992    1.447578   -0.120971
      3          8           0       -1.884883    1.729167    0.216559
      4          6           0       -1.130080   -0.971532   -0.311261
      5          6           0       -1.433710   -1.100393    2.527519
      6          1           0       -1.925130   -0.701833    3.416379
      7          1           0       -1.231759   -2.159522    2.677339
      8          1           0       -0.486630   -0.575442    2.389049
      9          7           0       -2.230980   -0.915103    1.329089
     10          1           0       -3.035529   -1.527174    1.283879
     11          1           0       -2.517871    0.054796    1.203229
     12          6           0       -0.678528   -2.403402   -0.296961
     13          1           0        0.083412   -2.550721    0.467699
     14          1           0       -1.518248   -3.066543   -0.100441
     15          1           0       -0.252488   -2.674211   -1.262711
     16         17           0       -2.568250   -0.805914   -1.407451
     17          6           0        1.229549   -0.188130   -0.135891
     18          6           0        1.924980   -0.798899   -1.181141
     19          6           0        3.287430   -1.047058   -1.094461
     20          6           0        3.994500   -0.667437    0.036659
     21          6           0        3.326179   -0.038248    1.078449
     22          6           0        1.962459    0.193051    0.991959
     23          1           0        1.386800   -1.076930   -2.079201
     24          1           0        3.799181   -1.528017   -1.918981
     25          1           0        5.058720   -0.854676    0.104629
     26          1           0        3.867609    0.266203    1.965669
     27          1           0        1.451618    0.682791    1.812889
     28          7           0        0.162487    2.445569   -0.369441
     29          6           0       -0.166105    3.835499   -0.169041
     30          1           0        1.093677    2.205500   -0.655631
     31          1           0       -0.954525    4.164718   -0.849281
     32          1           0       -0.503785    4.018288    0.853199
     33          1           0        0.723964    4.432990   -0.354571
 ---------------------------------------------------------------------

 SCF Done:  E(RwB97XD) =  -1112.46398758     A.U. after    1 cycles

 The electronic state is 1-A.
 Alpha  occ. eigenvalues -- -101.68365 -19.20168 -14.46446 -14.44498 -10.39192
 Alpha  occ. eigenvalues --  -10.37461 -10.31059 -10.30633 -10.30029 -10.28851
 Alpha  occ. eigenvalues --  -10.28822 -10.28727 -10.28653 -10.28653 -10.28574
 Alpha  occ. eigenvalues --  -10.26183  -9.56968  -7.31574  -7.30771  -7.30734
 Alpha  occ. eigenvalues --   -1.12691  -1.02708  -1.01197  -0.97003  -0.95484
 Alpha  occ. eigenvalues --   -0.88696  -0.84928  -0.84045  -0.81864  -0.78334
 Alpha  occ. eigenvalues --   -0.77880  -0.70197  -0.69865  -0.67985  -0.64649
 Alpha  occ. eigenvalues --   -0.62172  -0.61668  -0.58300  -0.56955  -0.55866
 Alpha  occ. eigenvalues --   -0.55122  -0.53868  -0.53690  -0.53293  -0.51761
 Alpha  occ. eigenvalues --   -0.51191  -0.50587  -0.49558  -0.47651  -0.47345
 Alpha  occ. eigenvalues --   -0.46987  -0.46503  -0.46276  -0.45631  -0.43436
 Alpha  occ. eigenvalues --   -0.42595  -0.42242  -0.38981  -0.37295  -0.35149
 Alpha  occ. eigenvalues --   -0.33996  -0.33033  -0.32717  -0.26575
 Alpha virt. eigenvalues --    0.03693   0.05368   0.06281   0.09179   0.10690
 Alpha virt. eigenvalues --    0.12622   0.13213   0.13799   0.14570   0.15464
 Alpha virt. eigenvalues --    0.16114   0.16685   0.17782   0.18207   0.18768

 Mulliken charges:
               1
     1  C   -0.286247
     2  C    0.395735
     3  O   -0.573473
     4  C    0.218738
     5  C   -0.284709
     6  H    0.149678
     7  H    0.154308
     8  H    0.125384
     9  N   -0.343123
    10  H    0.273670
    11  H    0.269425
    12  C   -0.395717
    13  H    0.157633
    14  H    0.153629
    15  H    0.155057
    16  Cl  -0.167866
    17  C    0.094534
    18  C   -0.235087
    19  C   -0.153746
    20  C   -0.142365
    21  C   -0.139711
    22  C   -0.246670
    23  H    0.154177
    24  H    0.139112
    25  H    0.142383
    26  H    0.139996
    27  H    0.156000
    28  N   -0.308766
    29  C   -0.255555
    30  H    0.263130
    31  H    0.125138
    32  H    0.125513
    33  H    0.139794
 Sum of Mulliken charges =  -0.00000

 Dipole moment (field-independent basis, Debye):
    X=              2.8141    Y=             -2.9414    Z=              3.6417  Tot=              5.4619
 Quadrupole moment (field-independent basis, Debye-Ang):
   XX=           -101.2943   YY=            -95.3442   ZZ=            -96.5798
   XY=             11.7051   XZ=             -9.3709   YZ=             -2.9141

  Exact polarizability: 288.212   6.381 228.489  -2.682  10.977 227.487
 Approx polarizability: 225.439   1.585 181.238  -1.125  11.001 192.587

 ******    1 imaginary frequencies (negative Signs) ******

                      1                      2                      3
                      A                      A                      A
 Frequencies --   -396.1633                40.7373                56.7640
 Red. masses --      5.5212                 4.0753                 3.1549
 Frc consts  --      0.5105                 0.0040                 0.0060
 IR Inten    --    697.5570                 2.0327                 4.9644

                      4                      5                      6
                      A                      A                      A
 Frequencies --     70.3330                78.4535                94.0179
 Red. masses --      4.5251                 3.2028                 1.9306
 Frc consts  --      0.0132                 0.0116                 0.0101
 IR Inten    --      4.2343                11.0989                 3.4141

                      7                      8                      9
                      A                      A                      A
 Frequencies --    104.0902               125.0566               143.4364
 Red. masses --      2.7989                 2.1479                 2.1601
 Frc consts  --      0.0179                 0.0198                 0.0262
 IR Inten    --      3.7331                 6.1412                19.1768

                     10                     11                     12
                      A                      A                      A
 Frequencies --    161.1926               166.9789               198.2053
 Red. masses --      2.9034                 3.3447                 1.5884
 Frc consts  --      0.0444                 0.0549                 0.0368
 IR Inten    --     16.3234                 3.7089                 3.0730

                     13                     14                     15
                      A                      A                      A
 Frequencies --    237.5345               253.7575               269.7891
 Red. masses --      3.2758                 2.4996                 4.1253
 Frc consts  --      0.1089                 0.0948                 0.1769
 IR Inten    --     13.4577                 1.3710                14.6046

                     16                     17                     18
                      A                      A                      A
 Frequencies --    295.1078               307.7898               313.0434
 Red. masses --      2.0218                 3.6295                 1.9818
 Frc consts  --      0.1037                 0.2026                 0.1144
 IR Inten    --      4.9893                24.7081                30.9605

                     19                     20                     21
                      A                      A                      A
 Frequencies --    355.1137               366.7209               402.7168
 Red. masses --      4.1302                 2.8045                 3.6599
 Frc consts  --      0.3069                 0.2222                 0.3497
 IR Inten    --      8.9827                33.5097                42.1110

                     22                     23                     24
                      A                      A                      A
 Frequencies --    419.1451               430.1616               470.8761
 Red. masses --      1.6209                 2.8350                 3.6309
 Frc consts  --      0.1678                 0.3091                 0.4743
 IR Inten    --     65.1923                 1.9563                 7.4963

                     25                     26                     27
                      A                      A                      A
 Frequencies --    535.0266               548.9358               628.9393
 Red. masses --      3.5938                 4.6907                 3.2311
 Frc consts  --      0.6061                 0.8328                 0.7530
 IR Inten    --     35.4891                81.4817                55.7203

                     28                     29                     30
                      A                      A                      A
 Frequencies --    641.5174               694.2295               720.2432
 Red. masses --      4.3324                 2.4117                 2.7046
 Frc consts  --      1.0505                 0.6848                 0.8266
 IR Inten    --     10.8722                16.5959               169.4618

                     31                     32                     33
                      A                      A                      A
 Frequencies --    733.4406               797.1642               810.5991
 Red. masses --      1.4456                 4.4085                 3.5728
 Frc consts  --      0.4582                 1.6506                 1.3832
 IR Inten    --    153.4485                40.7292                63.2886

                     34                     35                     36
                      A                      A                      A
 Frequencies --    815.2575               883.3134               960.0662
 Red. masses --      3.4192                 1.2427                 1.4861
 Frc consts  --      1.3390                 0.5713                 0.8070
 IR Inten    --     15.9007                 1.3310                 3.9471

                     37                     38                     39
                      A                      A                      A
 Frequencies --    979.4364               984.0571              1017.8590
 Red. masses --      1.1263                 3.0109                 1.4397
 Frc consts  --      0.6366                 1.7179                 0.8788
 IR Inten    --     80.8825                 8.3541                 1.6588

                     40                     41                     42
                      A                      A                      A
 Frequencies --   1022.4223              1027.5254              1030.2417
 Red. masses --      3.0251                 2.1251                 1.7937
 Frc consts  --      1.8632                 1.3220                 1.1217
 IR Inten    --     10.9963                 3.7203                 6.0589

                     43                     44                     45
                      A                      A                      A
 Frequencies --   1050.4870              1059.4646              1067.0491
 Red. masses --      1.2078                 1.4705                 1.8790
 Frc consts  --      0.7853                 0.9725                 1.2605
 IR Inten    --     78.3271               114.7144                 2.4683

                     46                     47                     48
                      A                      A                      A
 Frequencies --   1095.7990              1110.6851              1127.7449
 Red. masses --      3.9731                 1.5757                 2.5348
 Frc consts  --      2.8109                 1.1453                 1.8994
 IR Inten    --     13.9398                12.1609               122.2426

                     49                     50                     51
                      A                      A                      A
 Frequencies --   1154.5814              1159.9657              1181.4472
 Red. masses --      1.7458                 1.8130                 1.1288
 Frc consts  --      1.3712                 1.4373                 0.9283
 IR Inten    --      4.3135                 4.1545                 0.2347

                     52                     53                     54
                      A                      A                      A
 Frequencies --   1190.1844              1194.6766              1209.8320
 Red. masses --      1.8824                 1.4109                 1.1234
 Frc consts  --      1.5711                 1.1864                 0.9688
 IR Inten    --     20.0683                37.2856                 0.5542

                     55                     56                     57
                      A                      A                      A
 Frequencies --   1284.2961              1303.0668              1330.0074
 Red. masses --      2.7158                 4.0283                 3.7636
 Frc consts  --      2.6392                 4.0300                 3.9225
 IR Inten    --    104.6307                80.4150               257.5240

                     58                     59                     60
                      A                      A                      A
 Frequencies --   1346.3275              1359.2296              1415.7299
 Red. masses --      1.3259                 1.4442                 1.2848
 Frc consts  --      1.4160                 1.5721                 1.5172
 IR Inten    --      2.5874                 3.9758                39.0490

                     61                     62                     63
                      A                      A                      A
 Frequencies --   1448.7846              1457.5864              1469.0411
 Red. masses --      1.3904                 1.2258                 1.7399
 Frc consts  --      1.7194                 1.5345                 2.2123
 IR Inten    --    224.4828                35.8323               277.6422

                     64                     65                     66
                      A                      A                      A
 Frequencies --   1476.6353              1479.1264              1486.5633
 Red. masses --      1.0475                 1.0744                 1.8486
 Frc consts  --      1.3457                 1.3849                 2.4069
 IR Inten    --     10.3228                22.8881                 3.3397

                     67                     68                     69
                      A                      A                      A
 Frequencies --   1490.7171              1502.8193              1507.5111
 Red. masses --      1.0737                 1.2455                 1.0763
 Frc consts  --      1.4057                 1.6573                 1.4412
 IR Inten    --     10.8818               125.0284                 9.5012

                     70                     71                     72
                      A                      A                      A
 Frequencies --   1508.9757              1542.1785              1555.8796
 Red. masses --      1.2475                 2.3706                 2.0729
 Frc consts  --      1.6736                 3.3218                 2.9565
 IR Inten    --     84.9899                97.2343               545.4155

                     73                     74                     75
                      A                      A                      A
 Frequencies --   1631.9316              1642.6464              1658.4146
 Red. masses --      2.2899                 3.9495                 1.8487
 Frc consts  --      3.5932                 6.2788                 2.9957
 IR Inten    --    554.0482                32.6053               154.9200

                     76                     77                     78
                      A                      A                      A
 Frequencies --   1670.2499              3047.8395              3057.8071
 Red. masses --      5.7564                 1.0357                 1.0335
 Frc consts  --      9.4616                 5.6685                 5.6936
 IR Inten    --      2.3857                86.8686                60.1261

                     79                     80                     81
                      A                      A                      A
 Frequencies --   3075.9285              3103.3268              3126.9361
 Red. masses --      1.0356                 1.1043                 1.1034
 Frc consts  --      5.7730                 6.2662                 6.3563
 IR Inten    --     10.8080                46.2345                13.8192

                     82                     83                     84
                      A                      A                      A
 Frequencies --   3153.6244              3155.5884              3157.1637
 Red. masses --      1.1025                 1.1039                 1.1014
 Frc consts  --      6.4605                 6.4764                 6.4681
 IR Inten    --     11.5124                22.0620                24.4542

                     85                     86                     87
                      A                      A                      A
 Frequencies --   3164.3478              3187.3261              3191.4776
 Red. masses --      1.1038                 1.0862                 1.0876
 Frc consts  --      6.5119                 6.5017                 6.5269
 IR Inten    --     21.6299                10.0978                 1.1242

                     88                     89                     90
                      A                      A                      A
 Frequencies --   3201.1817              3207.7487              3219.1613
 Red. masses --      1.0913                 1.0950                 1.0988
 Frc consts  --      6.5888                 6.6386                 6.7089
 IR Inten    --     13.7268                47.3440                19.9873

                     91                     92                     93
                      A                      A                      A
 Frequencies --   3440.1317              3598.7650              3684.2729
 Red. masses --      1.0611                 1.0883                 1.0781
 Frc consts  --      7.3990                 8.3044                 8.6219
 IR Inten    --    116.6567                93.3711                81.6329

 - Thermochemistry -
 -------------------
 Temperature   298.150 Kelvin.  Pressure   1.00000 Atm.
 Atom     1 has atomic number  6 and mass  12.00000

 Molecular mass:   240.10294 amu.
 Principal axes and moments of inertia in atomic units:
                           1         2         3
     Eigenvalues --  3086.327754781.821425870.08617
           X            0.99965   0.00303  -0.02635
           Y           -0.00358   0.99978  -0.02081
           Z            0.02628   0.02090   0.99944
 This molecule is an asymmetric top.
 Rotational symmetry number  1.
 Warning -- assumption of classical behavior for rotation
           may cause significant error
 Rotational temperatures (Kelvin)      0.02806     0.01811     0.01476
 Rotational constants (GHZ):           0.58475     0.37742     0.30745
    1 imaginary frequencies ignored.
 Zero-point vibrational energy     724539.6 (Joules/Mol)
                                  173.16912 (Kcal/Mol)
 Warning -- explicit consideration of  25 degrees of freedom as
           vibrations may cause significant error
 Vibrational temperatures:     58.61    81.67   101.19   112.88   135.27
          (Kelvin)            149.76   179.93   206.37   231.92   240.25
                              285.17   341.76   365.10   388.17   424.59
                              442.84   450.40   510.93   527.63   579.42
                              603.06   618.91   677.49   769.78   789.80
                              904.90   923.00   998.84  1036.27  1055.26
                             1146.94  1166.27  1172.97  1270.89  1381.32
                             1409.19  1415.84  1464.47  1471.04  1478.38
                             1482.29  1511.42  1524.33  1535.25  1576.61
                             1598.03  1622.57  1661.19  1668.93  1699.84
                             1712.41  1718.87  1740.68  1847.82  1874.82
                             1913.58  1937.07  1955.63  2036.92  2084.48
                             2097.14  2113.62  2124.55  2128.13  2138.83
                             2144.81  2162.22  2168.97  2171.08  2218.85
                             2238.56  2347.99  2363.40  2386.09  2403.12
                             4385.16  4399.50  4425.58  4465.00  4498.96
                             4537.36  4540.19  4542.45  4552.79  4585.85
                             4591.82  4605.79  4615.23  4631.66  4949.58
                             5177.82  5300.85

 Zero-point correction=                           0.275963 (Hartree/Particle)
 Thermal correction to Energy=                    0.293100
 Thermal correction to Enthalpy=                  0.294044
 Thermal correction to Gibbs Free Energy=         0.230840
 Sum of electronic and zero-point Energies=          -1112.188025
 Sum of electronic and thermal Energies=             -1112.170888
 Sum of electronic and thermal Enthalpies=           -1112.169943
 Sum of electronic and thermal Free Energies=        -1112.233148

                     E (Thermal)             CV                S
                      KCal/Mol        Cal/Mol-Kelvin    Cal/Mol-Kelvin
 Total                  183.923             62.821            133.024
 Electronic               0.000              0.000              0.000
 Translational            0.889              2.981             42.329
 Rotational               0.889              2.981             32.827
 Vibrational            182.146             56.859             57.869
 Vibration     1          0.594              1.981              5.223
 Vibration     2          0.596              1.975              4.567
 Vibration     3          0.598              1.968              4.144
 Vibration     4          0.600              1.964              3.929
 Vibration     5          0.603              1.953              3.575
 Vibration     6          0.605              1.946              3.376
 Vibration     7          0.610              1.928              3.021
 Vibration     8          0.616              1.910              2.758
 Vibration     9          0.622              1.890              2.536
 Vibration    10          0.624              1.883              2.469
 Vibration    11          0.637              1.842              2.150
 Vibration    12          0.656              1.783              1.821
 Vibration    13          0.665              1.756              1.704
 Vibration    14          0.674              1.729              1.598
 Vibration    15          0.689              1.683              1.444
 Vibration    16          0.698              1.659              1.374
 Vibration    17          0.701              1.649              1.346
 Vibration    18          0.731              1.565              1.143
 Vibration    19          0.740              1.541              1.093
 Vibration    20          0.768              1.464              0.953
 Vibration    21          0.782              1.429              0.895
 Vibration    22          0.791              1.405              0.858
 Vibration    23          0.828              1.315              0.735
 Vibration    24          0.890              1.173              0.576
 Vibration    25          0.904              1.142              0.546

 Optimization completed.
    -- Stationary point found.
 Normal termination of Gaussian 16 at Wed Feb 17 18:36:10 2021.
