 Gaussian 16, Revision A.03,
 Gaussian 16:  ES64L-G16RevA.03 25-Dec-2016

 ----------------------------------------------------------------------
 # wB97XD def2tzvp, opt=(ts, noeigen, calcfc, maxcycles=70, maxstep=1),
  freq=noraman, scrf=(iefpcm, solvent=water)
 ----------------------------------------------------------------------

 ------------------------
 0_iteration/TS-599-0.out
 ------------------------
 Symbolic Z-matrix:
 Charge =  0 Multiplicity = 1

 SCF Done:  E(RwB97XD) =  -1532.74931073     A.U. after   15 cycles
 SCF Done:  E(RwB97XD) =  -1532.74942523     A.U. after   10 cycles
 SCF Done:  E(RwB97XD) =  -1532.74953935     A.U. after   10 cycles
 SCF Done:  E(RwB97XD) =  -1532.74965267     A.U. after   10 cycles
 SCF Done:  E(RwB97XD) =  -1532.74976484     A.U. after   10 cycles
 SCF Done:  E(RwB97XD) =  -1532.74987608     A.U. after   10 cycles
 SCF Done:  E(RwB97XD) =  -1532.74998672     A.U. after   10 cycles
 SCF Done:  E(RwB97XD) =  -1532.75009623     A.U. after   10 cycles
 SCF Done:  E(RwB97XD) =  -1532.75020388     A.U. after   10 cycles
 SCF Done:  E(RwB97XD) =  -1532.75030558     A.U. after   10 cycles
 SCF Done:  E(RwB97XD) =  -1532.75085627     A.U. after   10 cycles
 SCF Done:  E(RwB97XD) =  -1532.75087878     A.U. after   10 cycles
 SCF Done:  E(RwB97XD) =  -1532.75089109     A.U. after   10 cycles
 SCF Done:  E(RwB97XD) =  -1532.75089446     A.U. after   10 cycles
 SCF Done:  E(RwB97XD) =  -1532.75089442     A.U. after    9 cycles
 SCF Done:  E(RwB97XD) =  -1532.75089467     A.U. after    9 cycles
 SCF Done:  E(RwB97XD) =  -1532.75089479     A.U. after    8 cycles
 SCF Done:  E(RwB97XD) =  -1532.75089480     A.U. after    7 cycles
 SCF Done:  E(RwB97XD) =  -1532.75089481     A.U. after    7 cycles
 Optimization completed.
    -- Stationary point found.
 Normal termination of Gaussian 16 at Tue Feb 16 05:58:41 2021.

 ---------------------------------------------------------------------
 #N Geom=AllCheck Guess=TCheck SCRF=Check GenChk RwB97XD/def2TZVP Freq
 ---------------------------------------------------------------------

 Structure from the checkpoint file:  "/beegfs/scratch/user/q/tla25/Gau-34681.chk"
 ------------------------
 0_iteration/TS-599-0.out
 ------------------------
 Charge =  0 Multiplicity = 1

                         Standard orientation:
 ---------------------------------------------------------------------
 Center     Atomic      Atomic             Coordinates (Angstroms)
 Number     Number       Type             X           Y           Z
 ---------------------------------------------------------------------
      1          6           0        1.488991    0.604058   -0.483913
      2          6           0        0.073559    0.938862   -0.429007
      3          8           0       -0.334976    2.091335   -0.530743
      4          6           0        2.132460   -0.596761   -0.199790
      5          6           0        2.107821    0.028089    2.542924
      6          1           0        1.671416    0.934756    2.122933
      7          1           0        1.690500   -0.140992    3.534847
      8          1           0        3.185044    0.152409    2.623476
      9          7           0        1.809603   -1.082725    1.645605
     10          1           0        2.331440   -1.920123    1.879454
     11          1           0        0.822982   -1.314462    1.675962
     12          6           0        3.632102   -0.695812   -0.239323
     13          1           0        4.084345    0.053304    0.406763
     14          1           0        3.957338   -1.686366    0.070123
     15          1           0        3.977285   -0.518434   -1.257995
     16         17           0        1.434165   -2.120210   -0.890697
     17         17           0        2.520592    2.018849   -0.656291
     18          7           0       -0.799404   -0.111249   -0.208441
     19          6           0       -2.194067   -0.042258   -0.087001
     20          6           0       -2.870425    1.075994    0.399737
     21          6           0       -4.250729    1.041707    0.534474
     22          6           0       -4.976625   -0.092079    0.201258
     23          6           0       -4.301730   -1.208318   -0.273090
     24          6           0       -2.925728   -1.184470   -0.419217
     25          1           0       -0.447397   -1.032219   -0.412052
     26          1           0       -2.317740    1.962406    0.665819
     27          1           0       -4.761981    1.918522    0.912600
     28          1           0       -6.053056   -0.107444    0.311771
     29          1           0       -4.848154   -2.105188   -0.536770
     30          1           0       -2.408257   -2.059945   -0.794661
 ---------------------------------------------------------------------

 SCF Done:  E(RwB97XD) =  -1532.75089481     A.U. after    1 cycles

 The electronic state is 1-A.
 Alpha  occ. eigenvalues -- -101.70880-101.68791 -19.21009 -14.49449 -14.46335
 Alpha  occ. eigenvalues --  -10.41613 -10.39461 -10.33756 -10.32131 -10.31862
 Alpha  occ. eigenvalues --  -10.29650 -10.29083 -10.28955 -10.28913 -10.28427
 Alpha  occ. eigenvalues --  -10.28367  -9.59496  -9.57312  -7.34109  -7.33289
 Alpha  occ. eigenvalues --   -7.33255  -7.31962  -7.31091  -7.31079  -1.14267
 Alpha  occ. eigenvalues --   -1.05375  -1.04054  -0.99053  -0.95483  -0.94923
 Alpha  occ. eigenvalues --   -0.86187  -0.85530  -0.85178  -0.80351  -0.79487
 Alpha  occ. eigenvalues --   -0.73210  -0.71518  -0.68412  -0.65056  -0.63965
 Alpha  occ. eigenvalues --   -0.62650  -0.60178  -0.58882  -0.58072  -0.56039
 Alpha  occ. eigenvalues --   -0.54356  -0.53778  -0.52397  -0.51958  -0.51810
 Alpha  occ. eigenvalues --   -0.50611  -0.50510  -0.49146  -0.48631  -0.47092
 Alpha  occ. eigenvalues --   -0.46900  -0.45134  -0.44799  -0.43153  -0.42421
 Alpha  occ. eigenvalues --   -0.41412  -0.39693  -0.39086  -0.38809  -0.34945
 Alpha  occ. eigenvalues --   -0.33547  -0.30767  -0.27493
 Alpha virt. eigenvalues --    0.02970   0.05126   0.05359   0.07656   0.09917
 Alpha virt. eigenvalues --    0.11921   0.13221   0.14217   0.14334   0.15403
 Alpha virt. eigenvalues --    0.15771   0.16721   0.17147   0.18097   0.18481

 Mulliken charges:
               1
     1  C   -0.154849
     2  C    0.313088
     3  O   -0.498666
     4  C    0.108545
     5  C   -0.303053
     6  H    0.160231
     7  H    0.163198
     8  H    0.163860
     9  N   -0.317154
    10  H    0.293848
    11  H    0.282390
    12  C   -0.379558
    13  H    0.154239
    14  H    0.155041
    15  H    0.166095
    16  Cl  -0.118316
    17  Cl  -0.158909
    18  N   -0.274549
    19  C    0.289315
    20  C   -0.300644
    21  C   -0.093911
    22  C   -0.194869
    23  C   -0.099079
    24  C   -0.295509
    25  H    0.218965
    26  H    0.149742
    27  H    0.142225
    28  H    0.141124
    29  H    0.143564
    30  H    0.143597
 Sum of Mulliken charges =  -0.00000

 Dipole moment (field-independent basis, Debye):
    X=              4.0952    Y=             -8.7045    Z=              6.6791  Tot=             11.7111
 Quadrupole moment (field-independent basis, Debye-Ang):
   XX=            -93.5632   YY=           -114.6929   ZZ=           -102.3900
   XY=             -6.6262   XZ=              9.9392   YZ=              1.6078

  Exact polarizability: 302.898  -1.476 261.621  -1.070   6.222 186.467
 Approx polarizability: 225.167   0.529 224.086  -2.063   6.291 160.955

 ******    1 imaginary frequencies (negative Signs) ******

                      1                      2                      3
                      A                      A                      A
 Frequencies --   -377.2424                24.7016                29.3912
 Red. masses --      5.5202                 3.9202                 4.4097
 Frc consts  --      0.4629                 0.0014                 0.0022
 IR Inten    --    732.1268                 1.5099                 2.8362

                      4                      5                      6
                      A                      A                      A
 Frequencies --     61.5519                69.6273                88.3066
 Red. masses --      8.6575                 3.3204                 3.5493
 Frc consts  --      0.0193                 0.0095                 0.0163
 IR Inten    --      7.5862                 0.4389                 5.9734

                      7                      8                      9
                      A                      A                      A
 Frequencies --     97.6144               136.2376               185.5356
 Red. masses --      7.3967                 3.1228                 5.9266
 Frc consts  --      0.0415                 0.0341                 0.1202
 IR Inten    --      4.4629                 9.4666                 5.9955

                     10                     11                     12
                      A                      A                      A
 Frequencies --    200.5680               206.1510               236.9050
 Red. masses --      1.3651                 3.8259                 5.0256
 Frc consts  --      0.0324                 0.0958                 0.1662
 IR Inten    --      1.9612                15.7772                 0.7649

                     13                     14                     15
                      A                      A                      A
 Frequencies --    267.1315               276.5995               289.8535
 Red. masses --      3.0054                 2.0820                 3.2728
 Frc consts  --      0.1264                 0.0938                 0.1620
 IR Inten    --      0.4404                 3.6746                 2.3712

                     16                     17                     18
                      A                      A                      A
 Frequencies --    307.2177               328.4700               343.9736
 Red. masses --      4.3839                 2.1095                 6.0434
 Frc consts  --      0.2438                 0.1341                 0.4213
 IR Inten    --     29.5004                 4.2136                 6.9107

                     19                     20                     21
                      A                      A                      A
 Frequencies --    372.1101               395.7070               423.4830
 Red. masses --      5.5296                 5.6507                 2.9610
 Frc consts  --      0.4511                 0.5213                 0.3129
 IR Inten    --      9.2538                10.7379                 0.3981

                     22                     23                     24
                      A                      A                      A
 Frequencies --    472.6415               525.3104               555.1098
 Red. masses --      4.2937                 2.7327                 5.1267
 Frc consts  --      0.5651                 0.4443                 0.9308
 IR Inten    --     23.1773                49.5550                46.8196

                     25                     26                     27
                      A                      A                      A
 Frequencies --    568.9119               593.6777               635.9781
 Red. masses --      1.6813                 2.7438                 6.0483
 Frc consts  --      0.3206                 0.5698                 1.4413
 IR Inten    --    116.3253                42.9792                 6.0511

                     28                     29                     30
                      A                      A                      A
 Frequencies --    668.9677               718.1260               723.5794
 Red. masses --      1.6370                 1.9695                 2.6146
 Frc consts  --      0.4316                 0.5984                 0.8065
 IR Inten    --     53.5002                79.1933               161.6314

                     31                     32                     33
                      A                      A                      A
 Frequencies --    775.6949               781.1365               798.9770
 Red. masses --      8.8485                 2.0171                 5.1663
 Frc consts  --      3.1369                 0.7251                 1.9431
 IR Inten    --     43.4275               120.2262                38.5306

                     34                     35                     36
                      A                      A                      A
 Frequencies --    860.4248               893.5926               936.7599
 Red. masses --      1.2587                 4.6630                 1.5394
 Frc consts  --      0.5490                 2.1938                 0.7959
 IR Inten    --      2.5651                46.9288                 7.1914

                     37                     38                     39
                      A                      A                      A
 Frequencies --    999.7029              1002.6403              1016.6298
 Red. masses --      1.1683                 1.3526                 2.9890
 Frc consts  --      0.6879                 0.8012                 1.8201
 IR Inten    --     18.6839                 0.3277                20.6346

                     40                     41                     42
                      A                      A                      A
 Frequencies --   1018.8408              1023.5541              1047.1101
 Red. masses --      1.3448                 4.6334                 1.1782
 Frc consts  --      0.8225                 2.8600                 0.7611
 IR Inten    --      1.7102                19.6577                39.5438

                     43                     44                     45
                      A                      A                      A
 Frequencies --   1056.9836              1063.9672              1081.6940
 Red. masses --      1.8822                 2.0387                 3.5366
 Frc consts  --      1.2389                 1.3598                 2.4380
 IR Inten    --    139.4791                18.4110                 7.5698

                     46                     47                     48
                      A                      A                      A
 Frequencies --   1092.3675              1108.2630              1125.0953
 Red. masses --      2.2799                 2.2579                 1.6129
 Frc consts  --      1.6029                 1.6340                 1.2029
 IR Inten    --      9.4737               157.1629                 9.7992

                     49                     50                     51
                      A                      A                      A
 Frequencies --   1182.5207              1210.6388              1229.2317
 Red. masses --      1.1223                 1.1302                 1.4098
 Frc consts  --      0.9246                 0.9759                 1.2551
 IR Inten    --      2.3641                15.7365                38.8462

                     52                     53                     54
                      A                      A                      A
 Frequencies --   1271.9354              1287.0821              1342.1868
 Red. masses --      2.7128                 4.4619                 3.1248
 Frc consts  --      2.5858                 4.3549                 3.3166
 IR Inten    --    540.0390                 5.0573               347.0466

                     55                     56                     57
                      A                      A                      A
 Frequencies --   1347.1163              1363.5599              1419.0480
 Red. masses --      1.5154                 1.5167                 1.4546
 Frc consts  --      1.6203                 1.6615                 1.7258
 IR Inten    --     70.4132                22.0859               171.4204

                     58                     59                     60
                      A                      A                      A
 Frequencies --   1435.8386              1462.4569              1477.7281
 Red. masses --      2.3903                 1.2438                 1.0563
 Frc consts  --      2.9035                 1.5673                 1.3590
 IR Inten    --    499.2538                43.4802                10.2069

                     61                     62                     63
                      A                      A                      A
 Frequencies --   1482.1539              1492.1068              1495.9716
 Red. masses --      2.0757                 1.1115                 1.1074
 Frc consts  --      2.6866                 1.4580                 1.4601
 IR Inten    --    188.5122                26.6609                45.8442

                     64                     65                     66
                      A                      A                      A
 Frequencies --   1508.3166              1547.6578              1576.3492
 Red. masses --      1.0361                 2.4375                 1.9299
 Frc consts  --      1.3888                 3.4399                 2.8254
 IR Inten    --     15.5735               230.1982               460.8687

                     67                     68                     69
                      A                      A                      A
 Frequencies --   1642.4665              1662.7425              1673.3090
 Red. masses --      1.0946                 5.9058                 4.5557
 Frc consts  --      1.7397                 9.6201                 7.5156
 IR Inten    --     81.7062               125.5500                60.4727

                     70                     71                     72
                      A                      A                      A
 Frequencies --   1689.7269              3071.8342              3081.0518
 Red. masses --      6.4635                 1.0333                 1.0361
 Frc consts  --     10.8730                 5.7448                 5.7951
 IR Inten    --    739.8180                27.7185                 6.3783

                     73                     74                     75
                      A                      A                      A
 Frequencies --   3148.2778              3159.8000              3172.9238
 Red. masses --      1.1049                 1.1018                 1.1055
 Frc consts  --      6.4521                 6.4815                 6.5574
 IR Inten    --      8.0894                 7.4133                13.9992

                     76                     77                     78
                      A                      A                      A
 Frequencies --   3177.9819              3188.8260              3197.9298
 Red. masses --      1.1042                 1.0878                 1.0883
 Frc consts  --      6.5705                 6.5171                 6.5573
 IR Inten    --      8.0538                11.9673                 1.9226

                     79                     80                     81
                      A                      A                      A
 Frequencies --   3207.3811              3221.5675              3263.8536
 Red. masses --      1.0933                 1.0980                 1.0927
 Frc consts  --      6.6263                 6.7141                 6.8585
 IR Inten    --     30.2506                22.6638                 1.1939

                     82                     83                     84
                      A                      A                      A
 Frequencies --   3522.3539              3604.2648              3614.6854
 Red. masses --      1.0507                 1.0964                 1.0764
 Frc consts  --      7.6804                 8.3920                 8.2862
 IR Inten    --     47.3062                56.4724               208.2682

 - Thermochemistry -
 -------------------
 Temperature   298.150 Kelvin.  Pressure   1.00000 Atm.
 Atom     1 has atomic number  6 and mass  12.00000

 Molecular mass:   260.04832 amu.
 Principal axes and moments of inertia in atomic units:
                           1         2         3
     Eigenvalues --  2541.940217203.720218228.79773
           X            0.99988  -0.00892   0.01255
           Y            0.00884   0.99994   0.00646
           Z           -0.01260  -0.00635   0.99990
 This molecule is an asymmetric top.
 Rotational symmetry number  1.
 Warning -- assumption of classical behavior for rotation
           may cause significant error
 Rotational temperatures (Kelvin)      0.03407     0.01202     0.01053
 Rotational constants (GHZ):           0.70999     0.25053     0.21932
    1 imaginary frequencies ignored.
 Zero-point vibrational energy     627559.5 (Joules/Mol)
                                  149.99031 (Kcal/Mol)
 Warning -- explicit consideration of  25 degrees of freedom as
           vibrations may cause significant error
 Vibrational temperatures:     35.54    42.29    88.56   100.18   127.05
          (Kelvin)            140.45   196.02   266.94   288.57   296.61
                              340.85   384.34   397.96   417.03   442.02
                              472.60   494.90   535.38   569.33   609.30
                              680.03   755.80   798.68   818.54   854.17
                              915.03   962.50  1033.22  1041.07  1116.05
                             1123.88  1149.55  1237.96  1285.68  1347.79
                             1438.35  1442.58  1462.70  1465.88  1472.67
                             1506.56  1520.76  1530.81  1556.32  1571.67
                             1594.54  1618.76  1701.38  1741.84  1768.59
                             1830.03  1851.82  1931.11  1938.20  1961.86
                             2041.69  2065.85  2104.15  2126.12  2132.49
                             2146.81  2152.37  2170.13  2226.73  2268.01
                             2363.14  2392.32  2407.52  2431.14  4419.68
                             4432.95  4529.67  4546.25  4565.13  4572.41
                             4588.01  4601.11  4614.71  4635.12  4695.96
                             5067.88  5185.73  5200.73

 Zero-point correction=                           0.239025 (Hartree/Particle)
 Thermal correction to Energy=                    0.255439
 Thermal correction to Enthalpy=                  0.256383
 Thermal correction to Gibbs Free Energy=         0.193238
 Sum of electronic and zero-point Energies=          -1532.511870
 Sum of electronic and thermal Energies=             -1532.495456
 Sum of electronic and thermal Enthalpies=           -1532.494512
 Sum of electronic and thermal Free Energies=        -1532.557656

                     E (Thermal)             CV                S
                      KCal/Mol        Cal/Mol-Kelvin    Cal/Mol-Kelvin
 Total                  160.290             60.333            132.898
 Electronic               0.000              0.000              0.000
 Translational            0.889              2.981             42.567
 Rotational               0.889              2.981             33.377
 Vibrational            158.513             54.372             56.955
 Vibration     1          0.593              1.985              6.215
 Vibration     2          0.593              1.984              5.870
 Vibration     3          0.597              1.973              4.407
 Vibration     4          0.598              1.969              4.164
 Vibration     5          0.601              1.957              3.697
 Vibration     6          0.603              1.951              3.501
 Vibration     7          0.614              1.917              2.856
 Vibration     8          0.632              1.860              2.272
 Vibration     9          0.638              1.839              2.128
 Vibration    10          0.641              1.831              2.077
 Vibration    11          0.656              1.784              1.826
 Vibration    12          0.672              1.733              1.615
 Vibration    13          0.678              1.717              1.555
 Vibration    14          0.686              1.693              1.475
 Vibration    15          0.697              1.660              1.377
 Vibration    16          0.712              1.619              1.268
 Vibration    17          0.723              1.588              1.194
 Vibration    18          0.744              1.529              1.071
 Vibration    19          0.762              1.479              0.979
 Vibration    20          0.786              1.419              0.880
 Vibration    21          0.830              1.311              0.730
 Vibration    22          0.880              1.194              0.598
 Vibration    23          0.911              1.129              0.534
 Vibration    24          0.925              1.098              0.506
 Vibration    25          0.951              1.045              0.461

 Optimization completed.
    -- Stationary point found.
 Normal termination of Gaussian 16 at Tue Feb 16 06:59:56 2021.
