 Gaussian 16, Revision A.03,
 Gaussian 16:  ES64L-G16RevA.03 25-Dec-2016

 ----------------------------------------------------------------------
 # wB97XD def2tzvp, opt=(ts, noeigen, calcfc, maxcycles=70, maxstep=8),
  freq=noraman, scrf=(iefpcm, solvent=water)
 ----------------------------------------------------------------------

 ------------------------
 1_iteration/TS-556-1.out
 ------------------------
 Symbolic Z-matrix:
 Charge =  0 Multiplicity = 1

 SCF Done:  E(RwB97XD) =  -3474.87902912     A.U. after   15 cycles
 SCF Done:  E(RwB97XD) =  -3474.88104002     A.U. after   13 cycles
 SCF Done:  E(RwB97XD) =  -3474.88299367     A.U. after   13 cycles
 SCF Done:  E(RwB97XD) =  -3474.88372816     A.U. after   13 cycles
 SCF Done:  E(RwB97XD) =  -3474.88381703     A.U. after   12 cycles
 SCF Done:  E(RwB97XD) =  -3474.88381773     A.U. after   11 cycles
 SCF Done:  E(RwB97XD) =  -3474.88381770     A.U. after   10 cycles
 SCF Done:  E(RwB97XD) =  -3474.88382215     A.U. after   10 cycles
 SCF Done:  E(RwB97XD) =  -3474.88382203     A.U. after   10 cycles
 SCF Done:  E(RwB97XD) =  -3474.88382246     A.U. after    9 cycles
 SCF Done:  E(RwB97XD) =  -3474.88382220     A.U. after    7 cycles
 SCF Done:  E(RwB97XD) =  -3474.88382389     A.U. after   10 cycles
 SCF Done:  E(RwB97XD) =  -3474.88382234     A.U. after   10 cycles
 Optimization completed.
    -- Stationary point found.
 Normal termination of Gaussian 16 at Tue Feb 16 15:42:58 2021.

 ---------------------------------------------------------------------
 #N Geom=AllCheck Guess=TCheck SCRF=Check GenChk RwB97XD/def2TZVP Freq
 ---------------------------------------------------------------------

 Structure from the checkpoint file:  "/beegfs/scratch/user/q/tla25/Gau-26949.chk"
 ------------------------
 1_iteration/TS-556-1.out
 ------------------------
 Charge =  0 Multiplicity = 1

                         Standard orientation:
 ---------------------------------------------------------------------
 Center     Atomic      Atomic             Coordinates (Angstroms)
 Number     Number       Type             X           Y           Z
 ---------------------------------------------------------------------
      1          6           0        0.722472   -0.570426   -0.427332
      2          6           0        1.584635    0.575442   -0.254695
      3          8           0        2.727735    0.676391   -0.655520
      4          6           0       -0.625583   -0.665186   -0.135777
      5          6           0        0.019831   -1.352422    2.575727
      6          1           0        0.999981   -1.338747    2.095826
      7          1           0        0.135931   -1.052065    3.617516
      8          1           0       -0.378522   -2.364230    2.539453
      9          7           0       -0.861018   -0.453982    1.845442
     10          1           0       -1.832655   -0.552642    2.114207
     11          1           0       -0.586310    0.513994    1.966093
     12          6           0       -1.368100   -1.953958   -0.335069
     13          1           0       -0.850123   -2.771326    0.163969
     14          1           0       -2.382353   -1.880020    0.049022
     15          1           0       -1.416175   -2.183522   -1.400545
     16         35           0       -1.778152    0.845119   -0.612047
     17         17           0        1.569527   -2.030942   -0.909975
     18          8           0        0.995333    1.549812    0.467482
     19          6           0        1.732568    2.757584    0.627706
     20          1           0        1.970799    3.196357   -0.340953
     21          1           0        1.085270    3.424424    1.190822
     22          1           0        2.655146    2.576677    1.178683
 ---------------------------------------------------------------------

 SCF Done:  E(RwB97XD) =  -3474.88382234     A.U. after    1 cycles

 The electronic state is 1-A.
 Alpha  occ. eigenvalues -- -483.13058-101.69213 -62.67906 -56.47025 -56.46669
 Alpha  occ. eigenvalues --  -56.46652 -19.29372 -19.22467 -14.47809 -10.41182
 Alpha  occ. eigenvalues --  -10.40370 -10.33165 -10.32175 -10.31615 -10.29436
 Alpha  occ. eigenvalues --   -9.57731  -8.82012  -7.32384  -7.31509  -7.31497
 Alpha  occ. eigenvalues --   -6.64170  -6.63042  -6.62987  -2.74552  -2.74241
 Alpha  occ. eigenvalues --   -2.74198  -2.73284  -2.73284  -1.20895  -1.11317
 Alpha  occ. eigenvalues --   -1.03576  -0.97846  -0.92062  -0.85000  -0.84197
 Alpha  occ. eigenvalues --   -0.78670  -0.78350  -0.69730  -0.64267  -0.62962
 Alpha  occ. eigenvalues --   -0.59222  -0.58123  -0.57208  -0.57007  -0.54726
 Alpha  occ. eigenvalues --   -0.53034  -0.52132  -0.50241  -0.49149  -0.48678
 Alpha  occ. eigenvalues --   -0.47974  -0.45136  -0.44532  -0.43251  -0.42116
 Alpha  occ. eigenvalues --   -0.40113  -0.39115  -0.37047  -0.36794  -0.36215
 Alpha  occ. eigenvalues --   -0.28243
 Alpha virt. eigenvalues --    0.02257   0.05251   0.10071   0.11611   0.13209
 Alpha virt. eigenvalues --    0.14365   0.15370   0.15511   0.16558   0.17522
 Alpha virt. eigenvalues --    0.18753   0.19619   0.20125   0.20390   0.20698

 Mulliken charges:
               1
     1  C   -0.244680
     2  C    0.408591
     3  O   -0.468189
     4  C    0.187002
     5  C   -0.296623
     6  H    0.151963
     7  H    0.155781
     8  H    0.158896
     9  N   -0.369907
    10  H    0.285746
    11  H    0.282306
    12  C   -0.376861
    13  H    0.152776
    14  H    0.154224
    15  H    0.164963
    16  Br  -0.107860
    17  Cl  -0.150701
    18  O   -0.303123
    19  C   -0.195331
    20  H    0.134688
    21  H    0.142828
    22  H    0.133512
 Sum of Mulliken charges =  -0.00000

 Dipole moment (field-independent basis, Debye):
    X=             -6.1618    Y=             -0.1858    Z=              7.2933  Tot=              9.5496
 Quadrupole moment (field-independent basis, Debye-Ang):
   XX=            -97.5507   YY=            -77.3090   ZZ=            -76.5488
   XY=              7.0214   XZ=              2.2452   YZ=             -1.4184

  Exact polarizability: 191.722  -4.878 172.154 -14.515  -1.356 156.821
 Approx polarizability: 154.613  -6.450 140.529 -12.061   0.151 130.688

 ******    1 imaginary frequencies (negative Signs) ******

                      1                      2                      3
                      A                      A                      A
 Frequencies --   -363.7263                47.1492                74.0819
 Red. masses --      5.6147                 2.8699                 5.0711
 Frc consts  --      0.4376                 0.0038                 0.0164
 IR Inten    --    649.4327                 0.1943                 3.1877

                      4                      5                      6
                      A                      A                      A
 Frequencies --     79.0724               104.8590               127.0136
 Red. masses --      3.0623                 5.6834                 2.8616
 Frc consts  --      0.0113                 0.0368                 0.0272
 IR Inten    --      5.1458                 4.5595                 3.0974

                      7                      8                      9
                      A                      A                      A
 Frequencies --    143.2516               166.8450               181.0363
 Red. masses --      1.3697                 4.1227                 2.5575
 Frc consts  --      0.0166                 0.0676                 0.0494
 IR Inten    --      3.2570                 1.9888                10.6702

                     10                     11                     12
                      A                      A                      A
 Frequencies --    192.7958               236.7409               256.1595
 Red. masses --      1.3947                 5.5041                 2.4103
 Frc consts  --      0.0305                 0.1818                 0.0932
 IR Inten    --      0.5325                 0.4560                 3.9410

                     13                     14                     15
                      A                      A                      A
 Frequencies --    263.6986               279.9776               309.1598
 Red. masses --      3.8909                 1.9047                 2.1884
 Frc consts  --      0.1594                 0.0880                 0.1232
 IR Inten    --     23.3347                 4.3727                 2.4028

                     16                     17                     18
                      A                      A                      A
 Frequencies --    325.4797               337.3733               389.0706
 Red. masses --      3.6236                 4.2465                 4.9453
 Frc consts  --      0.2262                 0.2848                 0.4411
 IR Inten    --     28.3972                 6.3166                15.6622

                     19                     20                     21
                      A                      A                      A
 Frequencies --    482.3931               518.8924               636.8901
 Red. masses --      5.4964                 5.0761                 1.4959
 Frc consts  --      0.7536                 0.8053                 0.3575
 IR Inten    --     23.2746                64.6959                36.1248

                     22                     23                     24
                      A                      A                      A
 Frequencies --    708.9898               786.7130               794.3363
 Red. masses --      3.2436                 8.0313                 7.6120
 Frc consts  --      0.9606                 2.9286                 2.8298
 IR Inten    --    163.6195                50.9293                52.9278

                     25                     26                     27
                      A                      A                      A
 Frequencies --    937.6142               986.8793              1020.0330
 Red. masses --      5.2468                 1.0956                 1.1713
 Frc consts  --      2.7177                 0.6287                 0.7180
 IR Inten    --     48.9839                56.8041                85.3860

                     28                     29                     30
                      A                      A                      A
 Frequencies --   1050.9847              1064.8584              1086.0680
 Red. masses --      1.6109                 1.8622                 3.7214
 Frc consts  --      1.0483                 1.2441                 2.5862
 IR Inten    --     82.0351                31.7806                 6.4856

                     31                     32                     33
                      A                      A                      A
 Frequencies --   1097.9741              1135.2002              1181.5283
 Red. masses --      3.7208                 4.7770                 1.2827
 Frc consts  --      2.6428                 3.6270                 1.0550
 IR Inten    --     97.3721               203.0552                 1.4810

                     34                     35                     36
                      A                      A                      A
 Frequencies --   1202.4113              1219.0473              1306.7647
 Red. masses --      1.4146                 1.5553                 6.3135
 Frc consts  --      1.2050                 1.3618                 6.3521
 IR Inten    --     26.7751                65.4658               576.4654

                     37                     38                     39
                      A                      A                      A
 Frequencies --   1343.7162              1417.0216              1445.9457
 Red. masses --      1.3292                 1.2537                 1.7319
 Frc consts  --      1.4141                 1.4832                 2.1334
 IR Inten    --      0.6503                40.0994               351.7687

                     40                     41                     42
                      A                      A                      A
 Frequencies --   1462.5071              1475.4401              1480.1708
 Red. masses --      1.3784                 1.0616                 1.1807
 Frc consts  --      1.7371                 1.3616                 1.5240
 IR Inten    --    137.5907                11.5338                60.5182

                     43                     44                     45
                      A                      A                      A
 Frequencies --   1481.9499              1490.4432              1493.9180
 Red. masses --      1.0468                 1.1298                 1.0882
 Frc consts  --      1.3545                 1.4787                 1.4310
 IR Inten    --     14.7928                35.0869                 4.3385

                     46                     47                     48
                      A                      A                      A
 Frequencies --   1498.4227              1506.6988              1640.7976
 Red. masses --      1.3710                 1.0348                 1.0942
 Frc consts  --      1.8137                 1.3841                 1.7356
 IR Inten    --    197.6036                 9.7903                77.5706

                     49                     50                     51
                      A                      A                      A
 Frequencies --   1723.2813              3060.9175              3068.0397
 Red. masses --     11.3462                 1.0338                 1.0305
 Frc consts  --     19.8524                 5.7067                 5.7151
 IR Inten    --    991.4843                38.7849                54.3911

                     52                     53                     54
                      A                      A                      A
 Frequencies --   3074.6264              3132.0581              3146.8312
 Red. masses --      1.0367                 1.1042                 1.1071
 Frc consts  --      5.7742                 6.3823                 6.4595
 IR Inten    --      5.7267                14.1072                32.0233

                     55                     56                     57
                      A                      A                      A
 Frequencies --   3150.3905              3162.8408              3174.5411
 Red. masses --      1.1009                 1.1046                 1.1039
 Frc consts  --      6.4374                 6.5103                 6.5547
 IR Inten    --      7.7560                17.6868                10.3531

                     58                     59                     60
                      A                      A                      A
 Frequencies --   3179.5017              3529.1119              3617.0029
 Red. masses --      1.1059                 1.0500                 1.0970
 Frc consts  --      6.5868                 7.7050                 8.4561
 IR Inten    --     19.3152                39.5034                63.7551

 - Thermochemistry -
 -------------------
 Temperature   298.150 Kelvin.  Pressure   1.00000 Atm.
 Atom     1 has atomic number  6 and mass  12.00000

 Molecular mass:   242.96617 amu.
 Principal axes and moments of inertia in atomic units:
                           1         2         3
     Eigenvalues --  2513.100353068.975293858.88157
           X            0.95803   0.28624  -0.01553
           Y           -0.28643   0.95803  -0.01144
           Z            0.01160   0.01541   0.99981
 This molecule is an asymmetric top.
 Rotational symmetry number  1.
 Warning -- assumption of classical behavior for rotation
           may cause significant error
 Rotational temperatures (Kelvin)      0.03446     0.02822     0.02245
 Rotational constants (GHZ):           0.71813     0.58806     0.46769
    1 imaginary frequencies ignored.
 Zero-point vibrational energy     451515.6 (Joules/Mol)
                                  107.91482 (Kcal/Mol)
 Warning -- explicit consideration of  19 degrees of freedom as
           vibrations may cause significant error
 Vibrational temperatures:     67.84   106.59   113.77   150.87   182.74
          (Kelvin)            206.11   240.05   260.47   277.39   340.62
                              368.56   379.40   402.83   444.81   468.29
                              485.40   559.79   694.06   746.57   916.34
                             1020.08  1131.90  1142.87  1349.02  1419.90
                             1467.60  1512.13  1532.09  1562.61  1579.74
                             1633.30  1699.96  1730.00  1753.94  1880.14
                             1933.31  2038.78  2080.39  2104.22  2122.83
                             2129.64  2132.20  2144.42  2149.41  2155.90
                             2167.80  2360.74  2479.42  4403.98  4414.22
                             4423.70  4506.33  4527.59  4532.71  4550.62
                             4567.46  4574.59  5077.60  5204.06

 Zero-point correction=                           0.171973 (Hartree/Particle)
 Thermal correction to Energy=                    0.185682
 Thermal correction to Enthalpy=                  0.186626
 Thermal correction to Gibbs Free Energy=         0.130528
 Sum of electronic and zero-point Energies=          -3474.711849
 Sum of electronic and thermal Energies=             -3474.698140
 Sum of electronic and thermal Enthalpies=           -3474.697196
 Sum of electronic and thermal Free Energies=        -3474.753294

                     E (Thermal)             CV                S
                      KCal/Mol        Cal/Mol-Kelvin    Cal/Mol-Kelvin
 Total                  116.517             46.654            118.068
 Electronic               0.000              0.000              0.000
 Translational            0.889              2.981             42.364
 Rotational               0.889              2.981             31.765
 Vibrational            114.740             40.693             43.939
 Vibration     1          0.595              1.979              4.934
 Vibration     2          0.599              1.966              4.042
 Vibration     3          0.600              1.963              3.914
 Vibration     4          0.605              1.945              3.362
 Vibration     5          0.611              1.926              2.991
 Vibration     6          0.616              1.910              2.760
 Vibration     7          0.624              1.883              2.471
 Vibration     8          0.630              1.865              2.318
 Vibration     9          0.635              1.850              2.201
 Vibration    10          0.656              1.784              1.827
 Vibration    11          0.666              1.752              1.688
 Vibration    12          0.670              1.739              1.637
 Vibration    13          0.680              1.711              1.534
 Vibration    14          0.699              1.656              1.367
 Vibration    15          0.710              1.625              1.282
 Vibration    16          0.718              1.601              1.225
 Vibration    17          0.757              1.494              1.004
 Vibration    18          0.839              1.289              0.704
 Vibration    19          0.874              1.208              0.613

 Optimization completed.
    -- Stationary point found.
 Normal termination of Gaussian 16 at Tue Feb 16 16:06:58 2021.
