 Gaussian 16, Revision A.03,
 Gaussian 16:  ES64L-G16RevA.03 25-Dec-2016

 ----------------------------------------------------------------------
 # wB97XD def2tzvp, opt=(ts, noeigen, calcfc, maxcycles=70, maxstep=5),
  freq=noraman, scrf=(iefpcm, solvent=water)
 ----------------------------------------------------------------------

 ------------------------
 2_iteration/TS-502-2.out
 ------------------------
 Symbolic Z-matrix:
 Charge =  0 Multiplicity = 1

 SCF Done:  E(RwB97XD) =  -539.727604490     A.U. after   14 cycles
 Optimization completed.
    -- Stationary point found.
 Normal termination of Gaussian 16 at Wed Feb 17 12:20:42 2021.

 ---------------------------------------------------------------------
 #N Geom=AllCheck Guess=TCheck SCRF=Check GenChk RwB97XD/def2TZVP Freq
 ---------------------------------------------------------------------

 Structure from the checkpoint file:  "/beegfs/scratch/user/q/tla25/Gau-18768.chk"
 ------------------------
 2_iteration/TS-502-2.out
 ------------------------
 Charge =  0 Multiplicity = 1

                         Standard orientation:
 ---------------------------------------------------------------------
 Center     Atomic      Atomic             Coordinates (Angstroms)
 Number     Number       Type             X           Y           Z
 ---------------------------------------------------------------------
      1          6           0        0.093521    0.694360   -0.095940
      2          6           0        0.988201   -0.415810    0.013330
      3          8           0        0.596912   -1.605830    0.152860
      4          6           0       -1.241669    0.531679    0.381680
      5          6           0       -3.308978   -1.350071   -0.560190
      6          1           0       -3.538968   -2.064651   -1.352670
      7          1           0       -3.350658   -1.867231    0.395860
      8          1           0       -4.060809   -0.561951   -0.569020
      9          7           0       -1.981809   -0.766421   -0.737350
     10          1           0       -1.222578   -1.440511   -0.602690
     11          1           0       -1.876829   -0.354491   -1.656490
     12          6           0       -2.189219    1.693289    0.180730
     13          1           0       -1.848549    2.538439    0.782740
     14          1           0       -2.233399    2.022759   -0.856320
     15          1           0       -3.196769    1.435809    0.508180
     16          6           0       -1.460359   -0.120681    1.733530
     17          1           0       -1.211599    0.616439    2.500070
     18          1           0       -2.503829   -0.402101    1.883680
     19          1           0       -0.827388   -0.992961    1.869020
     20          6           0        0.416971    1.840490   -1.031740
     21          1           0        0.423560    2.825030   -0.548590
     22          1           0        1.395641    1.703940   -1.489900
     23          1           0       -0.296959    1.908580   -1.861730
     24          7           0        2.351611   -0.197560   -0.104700
     25          6           0        2.986131    0.994240    0.414350
     26          6           0        3.232192   -1.334129   -0.234330
     27          1           0        2.235681    1.689530    0.780630
     28          1           0        3.646791    0.733981    1.249780
     29          1           0        3.589621    1.497381   -0.347460
     30          1           0        2.755522   -2.112380   -0.824600
     31          1           0        4.149722   -1.018929   -0.736100
     32          1           0        3.507142   -1.762379    0.738530
 ---------------------------------------------------------------------

 SCF Done:  E(RwB97XD) =  -539.727604490     A.U. after    1 cycles

 The electronic state is 1-A.
 Alpha  occ. eigenvalues --  -19.18362 -14.46805 -14.43410 -10.35171 -10.33456
 Alpha  occ. eigenvalues --  -10.31277 -10.29824 -10.29478 -10.27273 -10.26518
 Alpha  occ. eigenvalues --  -10.26114 -10.23111  -1.10510  -1.02720  -1.00874
 Alpha  occ. eigenvalues --   -0.90984  -0.83478  -0.80168  -0.78962  -0.78566
 Alpha  occ. eigenvalues --   -0.76838  -0.72315  -0.64779  -0.62024  -0.60126
 Alpha  occ. eigenvalues --   -0.57521  -0.55507  -0.55068  -0.54601  -0.53810
 Alpha  occ. eigenvalues --   -0.51884  -0.50575  -0.49526  -0.48069  -0.47702
 Alpha  occ. eigenvalues --   -0.47065  -0.46877  -0.46393  -0.45770  -0.45222
 Alpha  occ. eigenvalues --   -0.44068  -0.43055  -0.42408  -0.41523  -0.39734
 Alpha  occ. eigenvalues --   -0.32556  -0.30255  -0.23791
 Alpha virt. eigenvalues --    0.08322   0.09787   0.12207   0.13227   0.14001
 Alpha virt. eigenvalues --    0.15082   0.16216   0.16601   0.17024   0.17449
 Alpha virt. eigenvalues --    0.18140   0.18669   0.19285   0.19597   0.20074

 Mulliken charges:
               1
     1  C   -0.317410
     2  C    0.355568
     3  O   -0.627756
     4  C    0.164641
     5  C   -0.297947
     6  H    0.149948
     7  H    0.153801
     8  H    0.148676
     9  N   -0.291617
    10  H    0.266881
    11  H    0.267220
    12  C   -0.362207
    13  H    0.143843
    14  H    0.132630
    15  H    0.137694
    16  C   -0.417088
    17  H    0.129148
    18  H    0.124459
    19  H    0.147995
    20  C   -0.424066
    21  H    0.116846
    22  H    0.134953
    23  H    0.112520
    24  N   -0.144524
    25  C   -0.295569
    26  C   -0.292760
    27  H    0.151526
    28  H    0.123491
    29  H    0.132672
    30  H    0.131158
    31  H    0.128957
    32  H    0.116314
 Sum of Mulliken charges =  -0.00000

 Dipole moment (field-independent basis, Debye):
    X=             -4.4667    Y=              1.5752    Z=             -1.7815  Tot=              5.0602
 Quadrupole moment (field-independent basis, Debye-Ang):
   XX=            -59.3806   YY=            -81.2029   ZZ=            -74.5907
   XY=              5.1759   XZ=              3.7456   YZ=              2.9886

  Exact polarizability: 229.123   4.659 178.590   5.322  -0.024 151.365
 Approx polarizability: 163.506   4.288 146.504   2.779   0.720 127.589

 ******    1 imaginary frequencies (negative Signs) ******

                      1                      2                      3
                      A                      A                      A
 Frequencies --   -395.8289                66.5067                78.2655
 Red. masses --      5.8946                 2.7509                 3.4381
 Frc consts  --      0.5442                 0.0072                 0.0124
 IR Inten    --    871.6257                 7.9373                 9.2136

                      4                      5                      6
                      A                      A                      A
 Frequencies --    102.0032               118.2015               138.9422
 Red. masses --      2.2590                 1.8182                 1.7238
 Frc consts  --      0.0138                 0.0150                 0.0196
 IR Inten    --      5.0613                 3.5363                11.8639

                      7                      8                      9
                      A                      A                      A
 Frequencies --    147.1250               175.0794               183.2636
 Red. masses --      2.1033                 1.3800                 1.2773
 Frc consts  --      0.0268                 0.0249                 0.0253
 IR Inten    --     16.9445                 5.3852                 0.9524

                     10                     11                     12
                      A                      A                      A
 Frequencies --    189.0104               224.6017               232.2877
 Red. masses --      1.1272                 1.7641                 2.6546
 Frc consts  --      0.0237                 0.0524                 0.0844
 IR Inten    --      0.8010                 7.7972                 3.6826

                     13                     14                     15
                      A                      A                      A
 Frequencies --    252.6616               264.8588               282.3177
 Red. masses --      1.3002                 1.4164                 1.9740
 Frc consts  --      0.0489                 0.0585                 0.0927
 IR Inten    --      4.9472                25.6041                 2.8577

                     16                     17                     18
                      A                      A                      A
 Frequencies --    306.3253               308.0553               357.9859
 Red. masses --      2.4559                 2.0954                 2.5305
 Frc consts  --      0.1358                 0.1172                 0.1911
 IR Inten    --     43.3178                 3.7552                12.9991

                     19                     20                     21
                      A                      A                      A
 Frequencies --    383.5151               399.1459               424.3293
 Red. masses --      2.3786                 2.6832                 3.2744
 Frc consts  --      0.2061                 0.2519                 0.3474
 IR Inten    --      8.5682                17.2188                 1.0013

                     22                     23                     24
                      A                      A                      A
 Frequencies --    438.9579               493.1429               568.7428
 Red. masses --      2.4630                 3.2298                 3.2084
 Frc consts  --      0.2796                 0.4628                 0.6115
 IR Inten    --      4.0473                96.9523                 5.0704

                     25                     26                     27
                      A                      A                      A
 Frequencies --    600.9853               714.4293               736.7758
 Red. masses --      4.1891                 4.9072                 1.2329
 Frc consts  --      0.8915                 1.4757                 0.3943
 IR Inten    --     66.5480                22.7712                22.8984

                     28                     29                     30
                      A                      A                      A
 Frequencies --    791.2902               837.2553               954.8214
 Red. masses --      8.2341                 3.1779                 1.3689
 Frc consts  --      3.0376                 1.3125                 0.7353
 IR Inten    --     69.1130                20.1811                 0.5430

                     31                     32                     33
                      A                      A                      A
 Frequencies --    975.2777              1014.6926              1017.0951
 Red. masses --      2.3051                 1.2677                 1.4619
 Frc consts  --      1.2918                 0.7690                 0.8910
 IR Inten    --      3.1300                 7.9022                25.6822

                     34                     35                     36
                      A                      A                      A
 Frequencies --   1043.6457              1052.6499              1062.5084
 Red. masses --      1.2001                 2.1995                 1.4712
 Frc consts  --      0.7702                 1.4360                 0.9786
 IR Inten    --     98.0487               101.4629                15.6495

                     37                     38                     39
                      A                      A                      A
 Frequencies --   1084.0739              1089.0237              1100.2919
 Red. masses --      1.2838                 1.3714                 1.7070
 Frc consts  --      0.8889                 0.9583                 1.2176
 IR Inten    --    341.2829               127.6905               130.9393

                     40                     41                     42
                      A                      A                      A
 Frequencies --   1117.1026              1134.7204              1168.8455
 Red. masses --      1.8898                 1.2296                 1.4042
 Frc consts  --      1.3895                 0.9328                 1.1303
 IR Inten    --     26.2321                 1.6161                29.5865

                     43                     44                     45
                      A                      A                      A
 Frequencies --   1178.3758              1225.7070              1256.2725
 Red. masses --      2.8128                 1.5307                 2.4509
 Frc consts  --      2.3012                 1.3549                 2.2790
 IR Inten    --      3.3211               111.9878                36.0519

                     46                     47                     48
                      A                      A                      A
 Frequencies --   1300.2435              1325.7823              1350.1702
 Red. masses --      4.8521                 3.6819                 1.3379
 Frc consts  --      4.8331                 3.8130                 1.4370
 IR Inten    --     16.7655                 2.5001                33.6329

                     49                     50                     51
                      A                      A                      A
 Frequencies --   1391.3725              1401.9972              1407.2476
 Red. masses --      2.2791                 1.6950                 1.5155
 Frc consts  --      2.5995                 1.9630                 1.7683
 IR Inten    --    580.3094               303.6661               101.2409

                     52                     53                     54
                      A                      A                      A
 Frequencies --   1423.4688              1428.8474              1442.9807
 Red. masses --      1.3851                 1.4267                 1.1640
 Frc consts  --      1.6536                 1.7161                 1.4279
 IR Inten    --     92.3355                58.8947                 8.4866

                     55                     56                     57
                      A                      A                      A
 Frequencies --   1462.2364              1471.9994              1477.6281
 Red. masses --      1.2231                 1.1798                 1.0608
 Frc consts  --      1.5408                 1.5062                 1.3646
 IR Inten    --     13.7597                83.9962                24.4522

                     58                     59                     60
                      A                      A                      A
 Frequencies --   1482.8130              1484.2859              1491.1850
 Red. masses --      1.0596                 1.0824                 1.0808
 Frc consts  --      1.3727                 1.4050                 1.4160
 IR Inten    --      9.1649                 3.4398                15.3657

                     61                     62                     63
                      A                      A                      A
 Frequencies --   1493.6751              1499.1417              1501.2264
 Red. masses --      1.0595                 1.0677                 1.0542
 Frc consts  --      1.3927                 1.4137                 1.3998
 IR Inten    --     52.7945                15.3052                45.0237

                     64                     65                     66
                      A                      A                      A
 Frequencies --   1503.8870              1508.7782              1510.4908
 Red. masses --      1.0576                 1.0726                 1.0660
 Frc consts  --      1.4094                 1.4385                 1.4329
 IR Inten    --      4.6543                21.9810                28.0710

                     67                     68                     69
                      A                      A                      A
 Frequencies --   1514.7302              1531.6981              1567.1615
 Red. masses --      1.1024                 1.3379                 5.1432
 Frc consts  --      1.4902                 1.8493                 7.4424
 IR Inten    --     49.9289               242.3046               528.8645

                     70                     71                     72
                      A                      A                      A
 Frequencies --   1665.1479              2997.1401              3000.6809
 Red. masses --      1.0852                 1.0442                 1.0518
 Frc consts  --      1.7729                 5.5267                 5.5797
 IR Inten    --     47.7725               201.4554                82.8129

                     73                     74                     75
                      A                      A                      A
 Frequencies --   3011.5517              3030.2577              3059.0072
 Red. masses --      1.0437                 1.1009                 1.0382
 Frc consts  --      5.5772                 5.9560                 5.7241
 IR Inten    --    173.1882                75.8347                21.0893

                     76                     77                     78
                      A                      A                      A
 Frequencies --   3061.3527              3062.0363              3063.3628
 Red. masses --      1.0372                 1.0989                 1.0383
 Frc consts  --      5.7274                 6.0706                 5.7407
 IR Inten    --     38.6538                89.7232                79.3814

                     79                     80                     81
                      A                      A                      A
 Frequencies --   3082.6849              3120.4501              3130.8577
 Red. masses --      1.0877                 1.1006                 1.1004
 Frc consts  --      6.0900                 6.3140                 6.3551
 IR Inten    --     50.7630                30.8588                45.5475

                     82                     83                     84
                      A                      A                      A
 Frequencies --   3135.4507              3136.5777              3149.3470
 Red. masses --      1.0916                 1.1010                 1.1025
 Frc consts  --      6.3227                 6.3820                 6.4426
 IR Inten    --     36.4856                25.1673                33.5130

                     85                     86                     87
                      A                      A                      A
 Frequencies --   3164.4369              3168.0995              3168.6819
 Red. masses --      1.0977                 1.1046                 1.0955
 Frc consts  --      6.4762                 6.5320                 6.4804
 IR Inten    --     19.0586                21.9616                11.8560

                     88                     89                     90
                      A                      A                      A
 Frequencies --   3181.5601              3368.4104              3578.6435
 Red. masses --      1.0995                 1.0686                 1.0823
 Frc consts  --      6.5575                 7.1433                 8.1663
 IR Inten    --      8.8135               199.5124                43.2280

 - Thermochemistry -
 -------------------
 Temperature   298.150 Kelvin.  Pressure   1.00000 Atm.
 Atom     1 has atomic number  6 and mass  12.00000

 Molecular mass:   172.15756 amu.
 Principal axes and moments of inertia in atomic units:
                           1         2         3
     Eigenvalues --  1218.940493062.420083593.54692
           X            0.99997   0.00776  -0.00045
           Y           -0.00776   0.99995  -0.00669
           Z            0.00040   0.00669   0.99998
 This molecule is an asymmetric top.
 Rotational symmetry number  1.
 Warning -- assumption of classical behavior for rotation
           may cause significant error
 Rotational temperatures (Kelvin)      0.07106     0.02828     0.02410
 Rotational constants (GHZ):           1.48058     0.58932     0.50222
    1 imaginary frequencies ignored.
 Zero-point vibrational energy     757235.9 (Joules/Mol)
                                  180.98372 (Kcal/Mol)
 Warning -- explicit consideration of  24 degrees of freedom as
           vibrations may cause significant error
 Vibrational temperatures:     95.69   112.61   146.76   170.07   199.91
          (Kelvin)            211.68   251.90   263.68   271.94   323.15
                              334.21   363.52   381.07   406.19   440.73
                              443.22   515.06   551.79   574.28   610.52
                              631.56   709.52   818.29   864.68  1027.90
                             1060.06  1138.49  1204.62  1373.78  1403.21
                             1459.92  1463.37  1501.57  1514.53  1528.71
                             1559.74  1566.86  1583.07  1607.26  1632.61
                             1681.71  1695.42  1763.52  1807.50  1870.76
                             1907.50  1942.59  2001.87  2017.16  2024.72
                             2048.05  2055.79  2076.13  2103.83  2117.88
                             2125.98  2133.44  2135.56  2145.48  2149.07
                             2156.93  2159.93  2163.76  2170.80  2173.26
                             2179.36  2203.77  2254.80  2395.78  4312.22
                             4317.31  4332.95  4359.87  4401.23  4404.60
                             4405.59  4407.50  4435.30  4489.63  4504.61
                             4511.21  4512.84  4531.21  4552.92  4558.19
                             4559.03  4577.56  4846.39  5148.87

 Zero-point correction=                           0.288416 (Hartree/Particle)
 Thermal correction to Energy=                    0.303635
 Thermal correction to Enthalpy=                  0.304579
 Thermal correction to Gibbs Free Energy=         0.247689
 Sum of electronic and zero-point Energies=           -539.439189
 Sum of electronic and thermal Energies=              -539.423970
 Sum of electronic and thermal Enthalpies=            -539.423026
 Sum of electronic and thermal Free Energies=         -539.479916

                     E (Thermal)             CV                S
                      KCal/Mol        Cal/Mol-Kelvin    Cal/Mol-Kelvin
 Total                  190.534             55.748            119.735
 Electronic               0.000              0.000              0.000
 Translational            0.889              2.981             41.337
 Rotational               0.889              2.981             30.973
 Vibrational            188.756             49.787             47.424
 Vibration     1          0.598              1.970              4.254
 Vibration     2          0.600              1.964              3.934
 Vibration     3          0.604              1.948              3.416
 Vibration     4          0.608              1.934              3.130
 Vibration     5          0.615              1.914              2.818
 Vibration     6          0.617              1.906              2.709
 Vibration     7          0.627              1.873              2.380
 Vibration     8          0.631              1.863              2.295
 Vibration     9          0.633              1.855              2.238
 Vibration    10          0.649              1.804              1.922
 Vibration    11          0.653              1.792              1.861
 Vibration    12          0.664              1.758              1.712
 Vibration    13          0.671              1.737              1.630
 Vibration    14          0.681              1.706              1.520
 Vibration    15          0.697              1.662              1.382
 Vibration    16          0.698              1.658              1.373
 Vibration    17          0.733              1.559              1.131
 Vibration    18          0.753              1.505              1.025
 Vibration    19          0.765              1.472              0.966
 Vibration    20          0.786              1.417              0.877
 Vibration    21          0.799              1.385              0.830
 Vibration    22          0.849              1.265              0.675
 Vibration    23          0.925              1.099              0.507
 Vibration    24          0.959              1.030              0.448

 Optimization completed.
    -- Stationary point found.
 Normal termination of Gaussian 16 at Wed Feb 17 13:05:35 2021.
