 Gaussian 16, Revision A.03,
 Gaussian 16:  ES64L-G16RevA.03 25-Dec-2016

 ----------------------------------------------------------------------
 # wB97XD def2tzvp, opt=(ts, noeigen, calcfc, maxcycles=70, maxstep=8),
  freq=noraman, scrf=(iefpcm, solvent=water)
 ----------------------------------------------------------------------

 ------------------------
 1_iteration/TS-550-1.out
 ------------------------
 Symbolic Z-matrix:
 Charge =  0 Multiplicity = 1

 SCF Done:  E(RwB97XD) =  -5608.31799189     A.U. after   16 cycles
 SCF Done:  E(RwB97XD) =  -5608.32043625     A.U. after   15 cycles
 SCF Done:  E(RwB97XD) =  -5608.32288091     A.U. after   14 cycles
 SCF Done:  E(RwB97XD) =  -5608.32457150     A.U. after   14 cycles
 SCF Done:  E(RwB97XD) =  -5608.32560559     A.U. after   14 cycles
 SCF Done:  E(RwB97XD) =  -5608.32616303     A.U. after   13 cycles
 SCF Done:  E(RwB97XD) =  -5608.32649338     A.U. after   13 cycles
 SCF Done:  E(RwB97XD) =  -5608.32653704     A.U. after   13 cycles
 SCF Done:  E(RwB97XD) =  -5608.32696705     A.U. after   13 cycles
 SCF Done:  E(RwB97XD) =  -5608.32715731     A.U. after   13 cycles
 SCF Done:  E(RwB97XD) =  -5608.32765314     A.U. after   12 cycles
 SCF Done:  E(RwB97XD) =  -5608.32760125     A.U. after   12 cycles
 SCF Done:  E(RwB97XD) =  -5608.32770549     A.U. after   11 cycles
 SCF Done:  E(RwB97XD) =  -5608.32771080     A.U. after   10 cycles
 SCF Done:  E(RwB97XD) =  -5608.32767935     A.U. after   11 cycles
 SCF Done:  E(RwB97XD) =  -5608.32771121     A.U. after   12 cycles
 SCF Done:  E(RwB97XD) =  -5608.32771230     A.U. after   10 cycles
 SCF Done:  E(RwB97XD) =  -5608.32771227     A.U. after    8 cycles
 SCF Done:  E(RwB97XD) =  -5608.32771225     A.U. after    7 cycles
 Optimization completed.
    -- Stationary point found.
 Normal termination of Gaussian 16 at Wed Feb 17 11:42:50 2021.

 ---------------------------------------------------------------------
 #N Geom=AllCheck Guess=TCheck SCRF=Check GenChk RwB97XD/def2TZVP Freq
 ---------------------------------------------------------------------

 Structure from the checkpoint file:  "/beegfs/scratch/user/q/tla25/Gau-47334.chk"
 ------------------------
 1_iteration/TS-550-1.out
 ------------------------
 Charge =  0 Multiplicity = 1

                         Standard orientation:
 ---------------------------------------------------------------------
 Center     Atomic      Atomic             Coordinates (Angstroms)
 Number     Number       Type             X           Y           Z
 ---------------------------------------------------------------------
      1          6           0        0.293618   -0.240673   -0.137851
      2          6           0        0.886738    0.888648    0.587269
      3          8           0        0.293652    1.388743    1.557903
      4          6           0       -1.072366   -0.417309   -0.227336
      5          6           0       -1.393979   -1.694912    2.287976
      6          1           0       -1.566785   -1.590311    3.359958
      7          1           0       -1.927093   -2.572227    1.926875
      8          1           0       -0.325753   -1.830652    2.117342
      9          7           0       -1.829014   -0.513241    1.556967
     10          1           0       -2.834509   -0.392794    1.565357
     11          1           0       -1.365477    0.325605    1.906560
     12          6           0       -1.696494   -1.617914   -0.874153
     13          1           0       -1.313974   -2.532395   -0.423272
     14          1           0       -2.778550   -1.594898   -0.767572
     15          1           0       -1.449776   -1.632317   -1.936318
     16         35           0       -2.070033    1.217105   -0.741211
     17         35           0        1.426789   -1.764935   -0.438489
     18          7           0        2.095135    1.365342    0.205201
     19          6           0        2.647819    1.201390   -1.123491
     20          6           0        2.772780    2.327631    1.048189
     21          1           0        1.916191    0.744244   -1.783512
     22          1           0        2.904467    2.185150   -1.524061
     23          1           0        3.550813    0.586547   -1.109424
     24          1           0        2.500253    2.166571    2.087507
     25          1           0        3.849906    2.200640    0.933516
     26          1           0        2.513065    3.355100    0.774516
 ---------------------------------------------------------------------

 SCF Done:  E(RwB97XD) =  -5608.32771225     A.U. after    1 cycles

 The electronic state is 1-A.
 Alpha  occ. eigenvalues -- -483.12463-483.12432 -62.67313 -62.67246 -56.46421
 Alpha  occ. eigenvalues --  -56.46361 -56.46077 -56.46070 -56.46013 -56.46005
 Alpha  occ. eigenvalues --  -19.21258 -14.47266 -14.46204 -10.39724 -10.38738
 Alpha  occ. eigenvalues --  -10.31397 -10.30883 -10.30601 -10.30505 -10.29143
 Alpha  occ. eigenvalues --   -8.81415  -8.81345  -6.63536  -6.63480  -6.62450
 Alpha  occ. eigenvalues --   -6.62425  -6.62372  -6.62346  -2.73921  -2.73869
 Alpha  occ. eigenvalues --   -2.73618  -2.73599  -2.73550  -2.73529  -2.72719
 Alpha  occ. eigenvalues --   -2.72719  -2.72633  -2.72633  -1.13937  -1.03741
 Alpha  occ. eigenvalues --   -1.03016  -0.94804  -0.89049  -0.83655  -0.82200
 Alpha  occ. eigenvalues --   -0.80834  -0.78498  -0.77562  -0.67370  -0.62979
 Alpha  occ. eigenvalues --   -0.61465  -0.58523  -0.57272  -0.56767  -0.56119
 Alpha  occ. eigenvalues --   -0.54506  -0.52283  -0.51749  -0.49773  -0.48726
 Alpha  occ. eigenvalues --   -0.48652  -0.47972  -0.47377  -0.46771  -0.45669
 Alpha  occ. eigenvalues --   -0.43725  -0.42824  -0.39201  -0.37964  -0.37164
 Alpha  occ. eigenvalues --   -0.36538  -0.34636  -0.32229  -0.26828
 Alpha virt. eigenvalues --    0.02616   0.05887   0.08999   0.10295   0.12324
 Alpha virt. eigenvalues --    0.14377   0.14842   0.15338   0.16503   0.16912
 Alpha virt. eigenvalues --    0.17639   0.17963   0.18882   0.19667   0.19859

 Mulliken charges:
               1
     1  C   -0.359435
     2  C    0.369477
     3  O   -0.558464
     4  C    0.188372
     5  C   -0.308703
     6  H    0.153975
     7  H    0.157375
     8  H    0.151614
     9  N   -0.323517
    10  H    0.278207
    11  H    0.277375
    12  C   -0.378518
    13  H    0.154996
    14  H    0.156964
    15  H    0.162772
    16  Br  -0.148891
    17  Br  -0.146521
    18  N   -0.103680
    19  C   -0.300381
    20  C   -0.291664
    21  H    0.161551
    22  H    0.141683
    23  H    0.144630
    24  H    0.141112
    25  H    0.141534
    26  H    0.138138
 Sum of Mulliken charges =  -0.00000

 Dipole moment (field-independent basis, Debye):
    X=             -1.6755    Y=             -2.3938    Z=              1.2094  Tot=              3.1623
 Quadrupole moment (field-independent basis, Debye-Ang):
   XX=            -84.6221   YY=            -98.0303   ZZ=            -96.0267
   XY=             13.3879   XZ=             -7.6051   YZ=             -6.0536

  Exact polarizability: 238.473  -1.816 208.749 -15.134  -4.086 184.131
 Approx polarizability: 183.429  -6.144 169.051 -12.231  -0.344 155.707

 ******    1 imaginary frequencies (negative Signs) ******

                      1                      2                      3
                      A                      A                      A
 Frequencies --   -392.9251                49.6225                72.0921
 Red. masses --      5.6468                 4.2895                 4.8968
 Frc consts  --      0.5137                 0.0062                 0.0150
 IR Inten    --    734.7079                 4.3845                 3.0924

                      4                      5                      6
                      A                      A                      A
 Frequencies --     84.6072                94.0862               122.9275
 Red. masses --      3.2325                 3.3796                 1.4116
 Frc consts  --      0.0136                 0.0176                 0.0126
 IR Inten    --      0.1151                 1.4419                 0.8339

                      7                      8                      9
                      A                      A                      A
 Frequencies --    140.3939               151.1668               160.9734
 Red. masses --      6.3275                 2.5458                 1.8236
 Frc consts  --      0.0735                 0.0343                 0.0278
 IR Inten    --     14.4785                 2.6355                 3.5170

                     10                     11                     12
                      A                      A                      A
 Frequencies --    168.2018               192.5519               204.8130
 Red. masses --      3.7780                 1.9271                 1.5022
 Frc consts  --      0.0630                 0.0421                 0.0371
 IR Inten    --     11.3950                 2.0655                 1.6385

                     13                     14                     15
                      A                      A                      A
 Frequencies --    225.4591               253.1724               259.2302
 Red. masses --      2.6202                 3.2401                 2.1415
 Frc consts  --      0.0785                 0.1224                 0.0848
 IR Inten    --      5.0312                12.8008                 9.2195

                     16                     17                     18
                      A                      A                      A
 Frequencies --    271.0822               288.7151               314.6025
 Red. masses --      2.3590                 2.1468                 1.7634
 Frc consts  --      0.1021                 0.1054                 0.1028
 IR Inten    --     13.3261                47.3174                 6.6985

                     19                     20                     21
                      A                      A                      A
 Frequencies --    345.0038               406.5055               416.6968
 Red. masses --      3.0905                 2.7122                 5.1183
 Frc consts  --      0.2167                 0.2641                 0.5236
 IR Inten    --      6.3848                16.8210                12.4662

                     22                     23                     24
                      A                      A                      A
 Frequencies --    488.7634               501.8782               629.7417
 Red. masses --      6.2806                 3.5720                 2.5630
 Frc consts  --      0.8840                 0.5301                 0.5989
 IR Inten    --    105.2103                35.5900                89.2924

                     25                     26                     27
                      A                      A                      A
 Frequencies --    670.0216               737.9431               777.5928
 Red. masses --      5.5585                 1.6838                 7.6222
 Frc consts  --      1.4702                 0.5402                 2.7154
 IR Inten    --     32.2149               140.7620                33.3411

                     28                     29                     30
                      A                      A                      A
 Frequencies --    888.3754               996.6975              1014.1075
 Red. masses --      5.4336                 1.1213                 2.1770
 Frc consts  --      2.5266                 0.6563                 1.3191
 IR Inten    --     32.9637                43.1995                55.4198

                     31                     32                     33
                      A                      A                      A
 Frequencies --   1047.8338              1061.0941              1081.2115
 Red. masses --      2.1567                 1.4119                 1.5908
 Frc consts  --      1.3952                 0.9366                 1.0957
 IR Inten    --     54.3493                38.1084               178.2444

                     34                     35                     36
                      A                      A                      A
 Frequencies --   1086.3178              1089.1267              1127.7953
 Red. masses --      2.5896                 1.3987                 2.2280
 Frc consts  --      1.8005                 0.9775                 1.6697
 IR Inten    --      7.2213                19.1187               103.4637

                     37                     38                     39
                      A                      A                      A
 Frequencies --   1132.5118              1171.0771              1214.9929
 Red. masses --      1.2370                 1.4043                 1.5023
 Frc consts  --      0.9348                 1.1347                 1.3067
 IR Inten    --      0.7080                 6.4820               120.0383

                     40                     41                     42
                      A                      A                      A
 Frequencies --   1224.1555              1316.1574              1359.1200
 Red. masses --      2.5639                 5.2351                 1.2916
 Frc consts  --      2.2638                 5.3430                 1.4057
 IR Inten    --    159.4908                47.0744                13.1990

                     43                     44                     45
                      A                      A                      A
 Frequencies --   1414.0253              1434.4567              1446.8197
 Red. masses --      1.2971                 1.8588                 1.2290
 Frc consts  --      1.5280                 2.2535                 1.5158
 IR Inten    --     94.6403               507.3107                83.9255

                     46                     47                     48
                      A                      A                      A
 Frequencies --   1450.9940              1463.8654              1473.5962
 Red. masses --      1.6332                 1.3396                 1.1884
 Frc consts  --      2.0260                 1.6914                 1.5204
 IR Inten    --     80.1924                97.3789                56.2479

                     49                     50                     51
                      A                      A                      A
 Frequencies --   1479.2710              1483.4592              1488.9510
 Red. masses --      1.0562                 1.0833                 1.2176
 Frc consts  --      1.3617                 1.4046                 1.5904
 IR Inten    --     38.7443                 2.7171                73.8390

                     52                     53                     54
                      A                      A                      A
 Frequencies --   1493.5025              1498.9948              1501.6765
 Red. masses --      1.0529                 1.2402                 1.0617
 Frc consts  --      1.3837                 1.6419                 1.4105
 IR Inten    --     23.1435                55.1196                23.5998

                     55                     56                     57
                      A                      A                      A
 Frequencies --   1509.9139              1536.9161              1617.4742
 Red. masses --      1.0394                 1.7432                 2.2615
 Frc consts  --      1.3962                 2.4261                 3.4860
 IR Inten    --      4.1127               187.8375               640.2606

                     58                     59                     60
                      A                      A                      A
 Frequencies --   1650.9021              3035.6396              3044.1099
 Red. masses --      1.5872                 1.0439                 1.0383
 Frc consts  --      2.5487                 5.6675                 5.6689
 IR Inten    --    152.5446                74.2608                99.7999

                     61                     62                     63
                      A                      A                      A
 Frequencies --   3063.4091              3075.1125              3100.2992
 Red. masses --      1.0341                 1.0362                 1.1029
 Frc consts  --      5.7175                 5.7733                 6.2461
 IR Inten    --     48.3850                 7.3652                61.1010

                     64                     65                     66
                      A                      A                      A
 Frequencies --   3110.2106              3136.5218              3152.4326
 Red. masses --      1.0965                 1.1037                 1.1016
 Frc consts  --      6.2492                 6.3971                 6.4500
 IR Inten    --     21.5570                16.3875                 7.6752

                     67                     68                     69
                      A                      A                      A
 Frequencies --   3162.8363              3169.8217              3174.1702
 Red. masses --      1.1049                 1.1036                 1.1007
 Frc consts  --      6.5123                 6.5333                 6.5340
 IR Inten    --     22.2778                10.6908                10.6727

                     70                     71                     72
                      A                      A                      A
 Frequencies --   3176.5238              3432.0956              3589.2297
 Red. masses --      1.0989                 1.0605                 1.0886
 Frc consts  --      6.5332                 7.3602                 8.2629
 IR Inten    --     11.1299               129.9424                99.4804

 - Thermochemistry -
 -------------------
 Temperature   298.150 Kelvin.  Pressure   1.00000 Atm.
 Atom     1 has atomic number  6 and mass  12.00000

 Molecular mass:   299.94729 amu.
 Principal axes and moments of inertia in atomic units:
                           1         2         3
     Eigenvalues --  3166.563004474.895175652.70375
           X            0.96228   0.27017  -0.03201
           Y           -0.27082   0.96246  -0.01811
           Z            0.02591   0.02610   0.99932
 This molecule is an asymmetric top.
 Rotational symmetry number  1.
 Warning -- assumption of classical behavior for rotation
           may cause significant error
 Rotational temperatures (Kelvin)      0.02735     0.01936     0.01532
 Rotational constants (GHZ):           0.56994     0.40330     0.31927
    1 imaginary frequencies ignored.
 Zero-point vibrational energy     557493.6 (Joules/Mol)
                                  133.24417 (Kcal/Mol)
 Warning -- explicit consideration of  22 degrees of freedom as
           vibrations may cause significant error
 Vibrational temperatures:     71.40   103.72   121.73   135.37   176.87
          (Kelvin)            202.00   217.50   231.60   242.00   277.04
                              294.68   324.39   364.26   372.97   390.03
                              415.40   452.64   496.38   584.87   599.53
                              703.22   722.09   906.06   964.01  1061.74
                             1118.78  1278.17  1434.03  1459.07  1507.60
                             1526.68  1555.62  1562.97  1567.01  1622.65
                             1629.43  1684.92  1748.10  1761.29  1893.66
                             1955.47  2034.47  2063.86  2081.65  2087.66
                             2106.18  2120.18  2128.34  2134.37  2142.27
                             2148.82  2156.72  2160.58  2172.43  2211.28
                             2327.18  2375.28  4367.61  4379.80  4407.56
                             4424.40  4460.64  4474.90  4512.76  4535.65
                             4550.62  4560.67  4566.92  4570.31  4938.02
                             5164.10

 Zero-point correction=                           0.212338 (Hartree/Particle)
 Thermal correction to Energy=                    0.227768
 Thermal correction to Enthalpy=                  0.228712
 Thermal correction to Gibbs Free Energy=         0.168713
 Sum of electronic and zero-point Energies=          -5608.115374
 Sum of electronic and thermal Energies=             -5608.099944
 Sum of electronic and thermal Enthalpies=           -5608.099000
 Sum of electronic and thermal Free Energies=        -5608.158999

                     E (Thermal)             CV                S
                      KCal/Mol        Cal/Mol-Kelvin    Cal/Mol-Kelvin
 Total                  142.927             53.092            126.280
 Electronic               0.000              0.000              0.000
 Translational            0.889              2.981             42.992
 Rotational               0.889              2.981             32.749
 Vibrational            141.149             47.130             50.539
 Vibration     1          0.595              1.978              4.832
 Vibration     2          0.598              1.967              4.095
 Vibration     3          0.601              1.960              3.781
 Vibration     4          0.603              1.953              3.573
 Vibration     5          0.610              1.930              3.054
 Vibration     6          0.615              1.913              2.798
 Vibration     7          0.619              1.901              2.657
 Vibration     8          0.622              1.890              2.538
 Vibration     9          0.625              1.882              2.455
 Vibration    10          0.635              1.850              2.203
 Vibration    11          0.640              1.833              2.089
 Vibration    12          0.650              1.802              1.915
 Vibration    13          0.664              1.757              1.708
 Vibration    14          0.668              1.747              1.667
 Vibration    15          0.675              1.727              1.589
 Vibration    16          0.685              1.695              1.481
 Vibration    17          0.702              1.646              1.338
 Vibration    18          0.723              1.585              1.189
 Vibration    19          0.771              1.456              0.939
 Vibration    20          0.780              1.434              0.903
 Vibration    21          0.845              1.275              0.687
 Vibration    22          0.857              1.246              0.653

 Optimization completed.
    -- Stationary point found.
 Normal termination of Gaussian 16 at Wed Feb 17 12:20:52 2021.
