 Gaussian 16, Revision A.03,
 Gaussian 16:  ES64L-G16RevA.03 25-Dec-2016

 ----------------------------------------------------------------------
 # wB97XD def2tzvp, opt=(ts, noeigen, calcfc, maxcycles=70, maxstep=8),
  freq=noraman, scrf=(iefpcm, solvent=water)
 ----------------------------------------------------------------------

 ------------------------
 1_iteration/TS-593-1.out
 ------------------------
 Symbolic Z-matrix:
 Charge =  0 Multiplicity = 1

 SCF Done:  E(RwB97XD) =  -1246.32219658     A.U. after   15 cycles
 SCF Done:  E(RwB97XD) =  -1246.32297889     A.U. after   13 cycles
 SCF Done:  E(RwB97XD) =  -1246.32351565     A.U. after   13 cycles
 SCF Done:  E(RwB97XD) =  -1246.32376260     A.U. after   12 cycles
 SCF Done:  E(RwB97XD) =  -1246.32382469     A.U. after   12 cycles
 SCF Done:  E(RwB97XD) =  -1246.32382183     A.U. after   11 cycles
 SCF Done:  E(RwB97XD) =  -1246.32383389     A.U. after   11 cycles
 SCF Done:  E(RwB97XD) =  -1246.32383366     A.U. after   10 cycles
 SCF Done:  E(RwB97XD) =  -1246.32383429     A.U. after   10 cycles
 SCF Done:  E(RwB97XD) =  -1246.32383433     A.U. after    8 cycles
 Optimization completed.
    -- Stationary point found.
 Normal termination of Gaussian 16 at Tue Feb 16 15:00:12 2021.

 ---------------------------------------------------------------------
 #N Geom=AllCheck Guess=TCheck SCRF=Check GenChk RwB97XD/def2TZVP Freq
 ---------------------------------------------------------------------

 Structure from the checkpoint file:  "/beegfs/scratch/user/q/tla25/Gau-22467.chk"
 ------------------------
 1_iteration/TS-593-1.out
 ------------------------
 Charge =  0 Multiplicity = 1

                         Standard orientation:
 ---------------------------------------------------------------------
 Center     Atomic      Atomic             Coordinates (Angstroms)
 Number     Number       Type             X           Y           Z
 ---------------------------------------------------------------------
      1          6           0       -0.692336    0.288661    0.159602
      2          6           0       -1.234061    1.250382   -0.730048
      3          8           0       -2.418382    1.393719   -1.021001
      4          6           0        0.665951    0.101598    0.425728
      5          6           0        0.608284   -2.036834   -1.482536
      6          1           0        0.987434   -2.504172   -2.391451
      7          1           0        0.534375   -2.787950   -0.698843
      8          1           0       -0.382360   -1.628889   -1.680360
      9          7           0        1.477196   -0.952952   -1.037409
     10          1           0        2.389644   -1.292277   -0.752942
     11          1           0        1.618269   -0.272737   -1.775550
     12          6           0        1.124531   -0.743265    1.578617
     13          1           0        0.697705   -1.742170    1.517071
     14          1           0        2.209463   -0.810675    1.602166
     15          1           0        0.782248   -0.284512    2.507421
     16         17           0        1.702166    1.529672    0.215388
     17         17           0       -1.830783   -0.837579    0.877205
     18          1           0       -0.477813    1.915466   -1.179911
 ---------------------------------------------------------------------

 SCF Done:  E(RwB97XD) =  -1246.32383433     A.U. after    1 cycles

 The electronic state is 1-A.
 Alpha  occ. eigenvalues -- -101.70912-101.69234 -19.21828 -14.48772 -10.41751
 Alpha  occ. eigenvalues --  -10.35606 -10.31987 -10.31932 -10.29708  -9.59503
 Alpha  occ. eigenvalues --   -9.57758  -7.34155  -7.33282  -7.33243  -7.32396
 Alpha  occ. eigenvalues --   -7.31540  -7.31532  -1.12244  -1.04727  -0.99558
 Alpha  occ. eigenvalues --   -0.95289  -0.86211  -0.82249  -0.79125  -0.71220
 Alpha  occ. eigenvalues --   -0.63455  -0.62418  -0.59374  -0.58516  -0.55708
 Alpha  occ. eigenvalues --   -0.54661  -0.50847  -0.50570  -0.49582  -0.48781
 Alpha  occ. eigenvalues --   -0.47820  -0.46994  -0.44858  -0.42038  -0.41652
 Alpha  occ. eigenvalues --   -0.39477  -0.38893  -0.33296  -0.28730
 Alpha virt. eigenvalues --    0.02408   0.06517   0.10019   0.12207   0.13657
 Alpha virt. eigenvalues --    0.14624   0.14823   0.16784   0.17477   0.18438
 Alpha virt. eigenvalues --    0.19285   0.20423   0.21407   0.22707   0.24018

 Mulliken charges:
               1
     1  C   -0.068325
     2  C    0.057666
     3  O   -0.482263
     4  C    0.149305
     5  C   -0.304775
     6  H    0.160378
     7  H    0.159561
     8  H    0.160163
     9  N   -0.341614
    10  H    0.288731
    11  H    0.282697
    12  C   -0.375464
    13  H    0.152591
    14  H    0.154275
    15  H    0.165053
    16  Cl  -0.088155
    17  Cl  -0.158626
    18  H    0.088801
 Sum of Mulliken charges =  -0.00000

 Dipole moment (field-independent basis, Debye):
    X=             10.2025    Y=             -5.4571    Z=             -1.1711  Tot=             11.6293
 Quadrupole moment (field-independent basis, Debye-Ang):
   XX=            -78.4777   YY=            -66.4371   ZZ=            -63.3308
   XY=              0.6087   XZ=             -7.3759   YZ=              4.5278

  Exact polarizability: 169.914  -9.935 139.393   1.413  -6.505 117.686
 Approx polarizability: 137.864  -4.481 115.750   1.086  -6.140 101.409

 ******    1 imaginary frequencies (negative Signs) ******

                      1                      2                      3
                      A                      A                      A
 Frequencies --   -348.3152                60.3498                74.4424
 Red. masses --      5.5898                 2.6668                 4.2576
 Frc consts  --      0.3996                 0.0057                 0.0139
 IR Inten    --    863.3498                 1.0324                 4.3525

                      4                      5                      6
                      A                      A                      A
 Frequencies --    117.2295               187.1217               194.3837
 Red. masses --      4.3972                 5.9272                 2.2042
 Frc consts  --      0.0356                 0.1223                 0.0491
 IR Inten    --      6.3848                10.0043                 2.8652

                      7                      8                      9
                      A                      A                      A
 Frequencies --    224.8979               236.9918               261.2923
 Red. masses --      1.8035                 4.1887                 1.8728
 Frc consts  --      0.0537                 0.1386                 0.0753
 IR Inten    --      0.8867                 3.5496                 0.9548

                     10                     11                     12
                      A                      A                      A
 Frequencies --    277.2816               307.9138               332.1517
 Red. masses --      3.5319                 1.7199                 3.9796
 Frc consts  --      0.1600                 0.0961                 0.2587
 IR Inten    --     34.1291                 3.7935                 7.6149

                     13                     14                     15
                      A                      A                      A
 Frequencies --    358.2497               383.0749               502.8702
 Red. masses --      2.4798                 4.5569                 3.5677
 Frc consts  --      0.1875                 0.3940                 0.5316
 IR Inten    --      8.4646                 6.4602                36.8121

                     16                     17                     18
                      A                      A                      A
 Frequencies --    556.6896               658.7582               678.7521
 Red. masses --      5.2413                 2.5825                 2.1432
 Frc consts  --      0.9570                 0.6603                 0.5817
 IR Inten    --     95.3257                94.3013                 3.2564

                     19                     20                     21
                      A                      A                      A
 Frequencies --    751.8189              1000.1182              1022.3277
 Red. masses --      4.1803                 1.0960                 1.6469
 Frc consts  --      1.3921                 0.6459                 1.0141
 IR Inten    --    189.1852                 7.6963                 0.2479

                     22                     23                     24
                      A                      A                      A
 Frequencies --   1032.3178              1050.3150              1063.6891
 Red. masses --      1.1240                 1.8127                 1.6539
 Frc consts  --      0.7057                 1.1782                 1.1025
 IR Inten    --     85.0324               126.4272                22.2217

                     25                     26                     27
                      A                      A                      A
 Frequencies --   1082.3950              1110.4352              1227.0212
 Red. masses --      3.7526                 3.2231                 1.4087
 Frc consts  --      2.5903                 2.3416                 1.2496
 IR Inten    --      6.9973                90.5241                22.5926

                     28                     29                     30
                      A                      A                      A
 Frequencies --   1257.3611              1344.7849              1378.2773
 Red. masses --      3.9137                 1.3300                 1.9448
 Frc consts  --      3.6455                 1.4171                 2.1767
 IR Inten    --    139.1524                 7.1037               558.1649

                     31                     32                     33
                      A                      A                      A
 Frequencies --   1421.9663              1459.4735              1473.3021
 Red. masses --      1.2451                 1.2952                 1.4679
 Frc consts  --      1.4833                 1.6255                 1.8773
 IR Inten    --     18.8738               108.5156               195.5452

                     34                     35                     36
                      A                      A                      A
 Frequencies --   1481.3193              1491.9762              1497.1423
 Red. masses --      1.0498                 1.0446                 1.3953
 Frc consts  --      1.3573                 1.3700                 1.8427
 IR Inten    --      3.0718                14.6439               205.9486

                     37                     38                     39
                      A                      A                      A
 Frequencies --   1510.7504              1644.0183              1682.5400
 Red. masses --      1.0316                 1.0886                 8.5610
 Frc consts  --      1.3872                 1.7335                14.2793
 IR Inten    --     14.2491                59.1096               964.3848

                     40                     41                     42
                      A                      A                      A
 Frequencies --   2980.1670              3069.5724              3077.9868
 Red. masses --      1.0828                 1.0333                 1.0370
 Frc consts  --      5.6660                 5.7362                 5.7887
 IR Inten    --     76.0932                28.2582                 4.4898

                     43                     44                     45
                      A                      A                      A
 Frequencies --   3146.5846              3156.2762              3166.9115
 Red. masses --      1.1047                 1.1003                 1.1058
 Frc consts  --      6.4442                 6.4581                 6.5341
 IR Inten    --     10.6979                 7.9901                14.0864

                     46                     47                     48
                      A                      A                      A
 Frequencies --   3179.2557              3518.7452              3602.9749
 Red. masses --      1.1046                 1.0506                 1.0966
 Frc consts  --      6.5781                 7.6639                 8.3873
 IR Inten    --      9.7301                55.5413                47.8243

 - Thermochemistry -
 -------------------
 Temperature   298.150 Kelvin.  Pressure   1.00000 Atm.
 Atom     1 has atomic number  6 and mass  12.00000

 Molecular mass:   169.00612 amu.
 Principal axes and moments of inertia in atomic units:
                           1         2         3
     Eigenvalues --  1432.840431997.245002355.15484
           X            0.99513  -0.09854   0.00196
           Y            0.09827   0.99354   0.05667
           Z           -0.00753  -0.05620   0.99839
 This molecule is an asymmetric top.
 Rotational symmetry number  1.
 Warning -- assumption of classical behavior for rotation
           may cause significant error
 Rotational temperatures (Kelvin)      0.06045     0.04337     0.03678
 Rotational constants (GHZ):           1.25955     0.90362     0.76629
    1 imaginary frequencies ignored.
 Zero-point vibrational energy     366621.2 (Joules/Mol)
                                   87.62457 (Kcal/Mol)
 Warning -- explicit consideration of  15 degrees of freedom as
           vibrations may cause significant error
 Vibrational temperatures:     86.83   107.11   168.67   269.23   279.67
          (Kelvin)            323.58   340.98   375.94   398.95   443.02
                              477.89   515.44   551.16   723.52   800.95
                              947.81   976.57  1081.70  1438.95  1470.90
                             1485.28  1511.17  1530.41  1557.33  1597.67
                             1765.41  1809.06  1934.85  1983.03  2045.89
                             2099.86  2119.75  2131.29  2146.62  2154.05
                             2173.63  2365.38  2420.80  4287.80  4416.43
                             4428.54  4527.23  4541.18  4556.48  4574.24
                             5062.69  5183.88

 Zero-point correction=                           0.139639 (Hartree/Particle)
 Thermal correction to Energy=                    0.150395
 Thermal correction to Enthalpy=                  0.151339
 Thermal correction to Gibbs Free Energy=         0.102762
 Sum of electronic and zero-point Energies=          -1246.184196
 Sum of electronic and thermal Energies=             -1246.173439
 Sum of electronic and thermal Enthalpies=           -1246.172495
 Sum of electronic and thermal Free Energies=        -1246.221073

                     E (Thermal)             CV                S
                      KCal/Mol        Cal/Mol-Kelvin    Cal/Mol-Kelvin
 Total                   94.374             37.339            102.240
 Electronic               0.000              0.000              0.000
 Translational            0.889              2.981             41.282
 Rotational               0.889              2.981             30.289
 Vibrational             92.597             31.377             30.668
 Vibration     1          0.597              1.973              4.446
 Vibration     2          0.599              1.966              4.032
 Vibration     3          0.608              1.935              3.146
 Vibration     4          0.632              1.858              2.256
 Vibration     5          0.635              1.848              2.186
 Vibration     6          0.650              1.803              1.919
 Vibration     7          0.656              1.784              1.825
 Vibration     8          0.669              1.744              1.653
 Vibration     9          0.678              1.715              1.550
 Vibration    10          0.698              1.659              1.374
 Vibration    11          0.714              1.611              1.250
 Vibration    12          0.733              1.558              1.130
 Vibration    13          0.752              1.506              1.027
 Vibration    14          0.858              1.244              0.651
 Vibration    15          0.912              1.125              0.530

 Optimization completed.
    -- Stationary point found.
 Normal termination of Gaussian 16 at Tue Feb 16 15:09:55 2021.
