 Gaussian 16, Revision A.03,
 Gaussian 16:  ES64L-G16RevA.03 25-Dec-2016

 ----------------------------------------------------------------------
 # wB97XD def2tzvp, opt=(ts, noeigen, calcfc, maxcycles=70, maxstep=5),
  freq=noraman, scrf=(iefpcm, solvent=water)
 ----------------------------------------------------------------------

 ------------------------
 2_iteration/TS-525-2.out
 ------------------------
 Symbolic Z-matrix:
 Charge =  0 Multiplicity = 1

 SCF Done:  E(RwB97XD) =  -3226.45797278     A.U. after   14 cycles
 SCF Done:  E(RwB97XD) =  -3226.45797281     A.U. after    7 cycles
 Optimization completed.
    -- Stationary point found.
 Normal termination of Gaussian 16 at Wed Feb 17 13:58:40 2021.

 ---------------------------------------------------------------------
 #N Geom=AllCheck Guess=TCheck SCRF=Check GenChk RwB97XD/def2TZVP Freq
 ---------------------------------------------------------------------

 Structure from the checkpoint file:  "/beegfs/scratch/user/q/tla25/Gau-79196.chk"
 ------------------------
 2_iteration/TS-525-2.out
 ------------------------
 Charge =  0 Multiplicity = 1

                         Standard orientation:
 ---------------------------------------------------------------------
 Center     Atomic      Atomic             Coordinates (Angstroms)
 Number     Number       Type             X           Y           Z
 ---------------------------------------------------------------------
      1          6           0        0.338048    0.331932   -0.079948
      2          6           0       -0.015403    1.742216   -0.021557
      3          8           0        0.844763    2.631081   -0.040437
      4          6           0       -0.521301   -0.747825    0.042725
      5          6           0       -2.400129   -1.521215    2.260555
      6          1           0       -2.068127   -2.555909    2.205756
      7          1           0       -2.668636   -1.290511    3.292457
      8          1           0       -3.274183   -1.391624    1.627005
      9          7           0       -1.330991   -0.641621    1.788970
     10          1           0       -1.606846    0.335548    1.820909
     11          1           0       -0.498132   -0.734299    2.360041
     12          6           0        0.005346   -2.156004    0.071427
     13          1           0        0.816542   -2.239370    0.794528
     14          1           0       -0.777825   -2.865579    0.326939
     15          1           0        0.395937   -2.420647   -0.910894
     16         35           0       -2.229834   -0.783151   -1.031032
     17          6           0        1.805701    0.041889   -0.071091
     18          6           0        2.561761    0.177978    1.092871
     19          6           0        3.919464   -0.103246    1.103308
     20          6           0        4.551063   -0.530168   -0.057496
     21          6           0        3.814389   -0.668127   -1.224592
     22          6           0        2.455830   -0.381324   -1.227869
     23          1           0        2.074740    0.511847    2.001843
     24          1           0        4.486182    0.008204    2.019695
     25          1           0        5.610780   -0.752810   -0.051342
     26          1           0        4.297814   -0.997753   -2.136144
     27          1           0        1.884161   -0.488796   -2.142390
     28          7           0       -1.334992    2.096028    0.133971
     29          6           0       -1.718167    3.490111    0.069971
     30          1           0       -2.024847    1.441812   -0.196139
     31          1           0       -2.791995    3.559679    0.234689
     32          1           0       -1.209468    4.058192    0.847363
     33          1           0       -1.477744    3.945505   -0.895120
 ---------------------------------------------------------------------

 SCF Done:  E(RwB97XD) =  -3226.45797281     A.U. after    1 cycles

 The electronic state is 1-A.
 Alpha  occ. eigenvalues -- -483.12559 -62.67408 -56.46497 -56.46185 -56.46172
 Alpha  occ. eigenvalues --  -19.19664 -14.48937 -14.44136 -10.40043 -10.37323
 Alpha  occ. eigenvalues --  -10.31948 -10.30324 -10.29558 -10.29134 -10.28618
 Alpha  occ. eigenvalues --  -10.28594 -10.28524 -10.28296 -10.28249 -10.26357
 Alpha  occ. eigenvalues --   -8.81504  -6.63561  -6.62579  -6.62540  -2.73953
 Alpha  occ. eigenvalues --   -2.73689  -2.73656  -2.72863  -2.72861  -1.12394
 Alpha  occ. eigenvalues --   -1.04387  -1.00742  -0.96560  -0.93395  -0.87119
 Alpha  occ. eigenvalues --   -0.84554  -0.83594  -0.82140  -0.79278  -0.77266
 Alpha  occ. eigenvalues --   -0.69884  -0.69566  -0.67739  -0.64913  -0.63460
 Alpha  occ. eigenvalues --   -0.61339  -0.59137  -0.56680  -0.56103  -0.55127
 Alpha  occ. eigenvalues --   -0.53832  -0.53516  -0.52856  -0.51804  -0.50538
 Alpha  occ. eigenvalues --   -0.50397  -0.50028  -0.48639  -0.47472  -0.46993
 Alpha  occ. eigenvalues --   -0.46084  -0.45658  -0.45497  -0.42958  -0.42121
 Alpha  occ. eigenvalues --   -0.41384  -0.37572  -0.37239  -0.34226  -0.33594
 Alpha  occ. eigenvalues --   -0.33008  -0.32446  -0.27122
 Alpha virt. eigenvalues --    0.02855   0.05465   0.06058   0.06529   0.09595
 Alpha virt. eigenvalues --    0.13041   0.13131   0.13613   0.14938   0.15203
 Alpha virt. eigenvalues --    0.16296   0.16557   0.17717   0.17894   0.18579

 Mulliken charges:
               1
     1  C   -0.164254
     2  C    0.312025
     3  O   -0.538299
     4  C   -0.004428
     5  C   -0.282825
     6  H    0.153475
     7  H    0.158495
     8  H    0.154056
     9  N   -0.290666
    10  H    0.269824
    11  H    0.281425
    12  C   -0.376466
    13  H    0.160323
    14  H    0.154415
    15  H    0.164311
    16  Br  -0.182924
    17  C    0.263704
    18  C   -0.247048
    19  C   -0.151935
    20  C   -0.138362
    21  C   -0.155234
    22  C   -0.252429
    23  H    0.137142
    24  H    0.137864
    25  H    0.141524
    26  H    0.137723
    27  H    0.142928
    28  N   -0.352125
    29  C   -0.264139
    30  H    0.244050
    31  H    0.137497
    32  H    0.130310
    33  H    0.120044
 Sum of Mulliken charges =  -0.00000

 Dipole moment (field-independent basis, Debye):
    X=             -5.4298    Y=             -6.2535    Z=              5.7628  Tot=             10.0896
 Quadrupole moment (field-independent basis, Debye-Ang):
   XX=           -102.1886   YY=           -117.0829   ZZ=            -95.4390
   XY=            -11.0006   XZ=             -7.3252   YZ=             -2.7785

  Exact polarizability: 305.550   8.046 234.965   0.143   3.703 244.345
 Approx polarizability: 234.004   5.320 188.017   2.376   5.272 206.626

 ******    1 imaginary frequencies (negative Signs) ******

                      1                      2                      3
                      A                      A                      A
 Frequencies --   -384.3334                36.9950                44.2052
 Red. masses --      6.3439                 3.7645                 4.2464
 Frc consts  --      0.5521                 0.0030                 0.0049
 IR Inten    --    579.8114                 0.1512                 3.1140

                      4                      5                      6
                      A                      A                      A
 Frequencies --     61.9033                70.3088                80.7119
 Red. masses --      2.6127                 4.7488                 3.9470
 Frc consts  --      0.0059                 0.0138                 0.0151
 IR Inten    --      5.8819                 1.6177                13.1357

                      7                      8                      9
                      A                      A                      A
 Frequencies --     95.1130               128.9189               150.4158
 Red. masses --      2.3184                 3.8272                 1.3389
 Frc consts  --      0.0124                 0.0375                 0.0178
 IR Inten    --      7.9505                 5.2240                 2.9128

                     10                     11                     12
                      A                      A                      A
 Frequencies --    158.2980               181.4831               194.0990
 Red. masses --      2.4583                 1.6849                 3.8070
 Frc consts  --      0.0363                 0.0327                 0.0845
 IR Inten    --      1.7753                 4.6558                14.7390

                     13                     14                     15
                      A                      A                      A
 Frequencies --    207.7920               255.1375               257.9071
 Red. masses --      4.1427                 4.2606                 2.4068
 Frc consts  --      0.1054                 0.1634                 0.0943
 IR Inten    --      3.1758                 9.6504                14.0160

                     16                     17                     18
                      A                      A                      A
 Frequencies --    276.7030               288.0460               308.0755
 Red. masses --      1.3014                 3.8768                 3.4696
 Frc consts  --      0.0587                 0.1895                 0.1940
 IR Inten    --     14.3138                10.3794                28.6985

                     19                     20                     21
                      A                      A                      A
 Frequencies --    315.3717               357.4921               385.0107
 Red. masses --      2.7098                 3.3418                 3.9960
 Frc consts  --      0.1588                 0.2516                 0.3490
 IR Inten    --     25.7142                18.4388                21.9135

                     22                     23                     24
                      A                      A                      A
 Frequencies --    423.8917               440.5367               517.2126
 Red. masses --      2.8744                 4.5782                 2.6432
 Frc consts  --      0.3043                 0.5235                 0.4166
 IR Inten    --      0.1640                71.8270                16.1912

                     25                     26                     27
                      A                      A                      A
 Frequencies --    534.8504               562.0810               621.4255
 Red. masses --      1.6841                 3.9874                 4.9875
 Frc consts  --      0.2838                 0.7422                 1.1348
 IR Inten    --     93.1577               170.4366               146.4852

                     28                     29                     30
                      A                      A                      A
 Frequencies --    640.4161               686.2825               709.9849
 Red. masses --      6.2821                 2.6619                 1.5437
 Frc consts  --      1.5180                 0.7387                 0.4585
 IR Inten    --      4.2433                62.5664                62.4841

                     31                     32                     33
                      A                      A                      A
 Frequencies --    728.2662               794.9736               805.2364
 Red. masses --      1.4740                 3.8385                 4.1204
 Frc consts  --      0.4606                 1.4293                 1.5741
 IR Inten    --    107.6409                45.2981                73.7909

                     34                     35                     36
                      A                      A                      A
 Frequencies --    820.8853               878.7686               941.6987
 Red. masses --      3.1292                 1.2474                 2.3499
 Frc consts  --      1.2424                 0.5676                 1.2278
 IR Inten    --     39.3097                 0.5580                 6.4584

                     37                     38                     39
                      A                      A                      A
 Frequencies --    960.4985              1010.7425              1020.4452
 Red. masses --      1.7714                 1.3744                 1.1978
 Frc consts  --      0.9628                 0.8273                 0.7349
 IR Inten    --      8.8532                 0.1668                13.9031

                     40                     41                     42
                      A                      A                      A
 Frequencies --   1025.4777              1026.3628              1034.5457
 Red. masses --      1.3359                 5.0779                 2.4255
 Frc consts  --      0.8277                 3.1517                 1.5295
 IR Inten    --      9.1988                17.3566               214.3094

                     43                     44                     45
                      A                      A                      A
 Frequencies --   1055.4039              1060.0545              1071.4023
 Red. masses --      1.6276                 2.0072                 1.7073
 Frc consts  --      1.0681                 1.3289                 1.1547
 IR Inten    --     12.2181                25.8706                 6.2317

                     46                     47                     48
                      A                      A                      A
 Frequencies --   1086.9498              1099.6057              1106.2599
 Red. masses --      1.7771                 2.3055                 1.5707
 Frc consts  --      1.2370                 1.6424                 1.1325
 IR Inten    --    163.2813                36.6801                32.0110

                     49                     50                     51
                      A                      A                      A
 Frequencies --   1143.0995              1154.0365              1180.8695
 Red. masses --      1.7300                 1.9771                 1.1366
 Frc consts  --      1.3319                 1.5514                 0.9338
 IR Inten    --     35.1569                14.1735                 0.1200

                     52                     53                     54
                      A                      A                      A
 Frequencies --   1183.5282              1204.0613              1242.6638
 Red. masses --      1.7341                 1.1208                 1.3421
 Frc consts  --      1.4312                 0.9574                 1.2211
 IR Inten    --     25.3644                 0.0780                42.8093

                     55                     56                     57
                      A                      A                      A
 Frequencies --   1260.9701              1306.8044              1338.0386
 Red. masses --      3.1882                 4.3788                 2.4170
 Frc consts  --      2.9868                 4.4058                 2.5496
 IR Inten    --    110.7463                 9.5616               267.4041

                     58                     59                     60
                      A                      A                      A
 Frequencies --   1354.3391              1359.2404              1418.9347
 Red. masses --      1.4818                 1.5954                 1.2699
 Frc consts  --      1.6014                 1.7366                 1.5065
 IR Inten    --      9.0821               133.0564                24.2258

                     61                     62                     63
                      A                      A                      A
 Frequencies --   1447.4668              1455.3840              1462.7493
 Red. masses --      1.5098                 1.2062                 1.6167
 Frc consts  --      1.8637                 1.5053                 2.0380
 IR Inten    --    240.2927                11.7712               309.5281

                     64                     65                     66
                      A                      A                      A
 Frequencies --   1476.8434              1478.4395              1484.5564
 Red. masses --      1.0740                 1.0588                 1.8082
 Frc consts  --      1.3801                 1.3635                 2.3479
 IR Inten    --     27.4746                19.2388                34.1592

                     67                     68                     69
                      A                      A                      A
 Frequencies --   1491.7911              1493.7452              1502.1890
 Red. masses --      1.1703                 1.3374                 1.0798
 Frc consts  --      1.5345                 1.7582                 1.4357
 IR Inten    --     65.2304               125.0035                12.1009

                     70                     71                     72
                      A                      A                      A
 Frequencies --   1505.8818              1541.9210              1558.4506
 Red. masses --      1.0613                 2.4227                 1.6996
 Frc consts  --      1.4180                 3.3937                 2.4321
 IR Inten    --     31.2693                42.1519               408.2103

                     73                     74                     75
                      A                      A                      A
 Frequencies --   1644.4939              1646.5395              1650.5337
 Red. masses --      5.7740                 1.3678                 2.9681
 Frc consts  --      9.2002                 2.1848                 4.7641
 IR Inten    --     36.5255               392.3548               395.1833

                     76                     77                     78
                      A                      A                      A
 Frequencies --   1671.2694              3040.4540              3070.4189
 Red. masses --      5.9699                 1.0440                 1.0369
 Frc consts  --      9.8245                 5.6864                 5.7597
 IR Inten    --     90.8702                95.1322                43.7531

                     79                     80                     81
                      A                      A                      A
 Frequencies --   3075.7153              3117.4517              3149.8934
 Red. masses --      1.0363                 1.0920                 1.1006
 Frc consts  --      5.7762                 6.2529                 6.4337
 IR Inten    --     10.5726                41.6658                11.3285

                     82                     83                     84
                      A                      A                      A
 Frequencies --   3152.7175              3156.2839              3170.0355
 Red. masses --      1.1024                 1.1044                 1.1025
 Frc consts  --      6.4561                 6.4822                 6.5275
 IR Inten    --      8.9907                25.1242                16.8755

                     85                     86                     87
                      A                      A                      A
 Frequencies --   3180.5032              3185.2242              3187.6263
 Red. masses --      1.1056                 1.0860                 1.0883
 Frc consts  --      6.5893                 6.4920                 6.5150
 IR Inten    --     10.7286                 9.9984                 3.4377

                     88                     89                     90
                      A                      A                      A
 Frequencies --   3198.3990              3205.4512              3217.7301
 Red. masses --      1.0911                 1.0950                 1.0987
 Frc consts  --      6.5764                 6.6289                 6.7023
 IR Inten    --     11.6355                52.2897                23.5932

                     91                     92                     93
                      A                      A                      A
 Frequencies --   3502.0725              3584.6379              3619.8011
 Red. masses --      1.0533                 1.0946                 1.0767
 Frc consts  --      7.6112                 8.2872                 8.3119
 IR Inten    --     34.0616                62.0578               138.3974

 - Thermochemistry -
 -------------------
 Temperature   298.150 Kelvin.  Pressure   1.00000 Atm.
 Atom     1 has atomic number  6 and mass  12.00000

 Molecular mass:   284.05242 amu.
 Principal axes and moments of inertia in atomic units:
                           1         2         3
     Eigenvalues --  3179.067756365.809397402.02711
           X            0.99859  -0.04089  -0.03391
           Y            0.03916   0.99797  -0.05013
           Z            0.03589   0.04874   0.99817
 This molecule is an asymmetric top.
 Rotational symmetry number  1.
 Warning -- assumption of classical behavior for rotation
           may cause significant error
 Rotational temperatures (Kelvin)      0.02725     0.01361     0.01170
 Rotational constants (GHZ):           0.56770     0.28351     0.24382
    1 imaginary frequencies ignored.
 Zero-point vibrational energy     723689.9 (Joules/Mol)
                                  172.96604 (Kcal/Mol)
 Warning -- explicit consideration of  25 degrees of freedom as
           vibrations may cause significant error
 Vibrational temperatures:     53.23    63.60    89.07   101.16   116.13
          (Kelvin)            136.85   185.49   216.41   227.76   261.11
                              279.27   298.97   367.09   371.07   398.11
                              414.43   443.25   453.75   514.35   553.94
                              609.89   633.83   744.15   769.53   808.71
                              894.09   921.42   987.41  1021.51  1047.81
                             1143.79  1158.56  1181.07  1264.35  1354.89
                             1381.94  1454.23  1468.19  1475.43  1476.71
                             1488.48  1518.49  1525.18  1541.51  1563.88
                             1582.09  1591.66  1644.67  1660.40  1699.01
                             1702.83  1732.38  1787.92  1814.25  1880.20
                             1925.14  1948.59  1955.64  2041.53  2082.58
                             2093.97  2104.57  2124.85  2127.14  2135.95
                             2146.35  2149.17  2161.31  2166.63  2218.48
                             2242.26  2366.06  2369.00  2374.75  2404.58
                             4374.54  4417.65  4425.27  4485.32  4531.99
                             4536.06  4541.19  4560.97  4576.03  4582.83
                             4586.28  4601.78  4611.93  4629.60  5038.70
                             5157.49  5208.09

 Zero-point correction=                           0.275639 (Hartree/Particle)
 Thermal correction to Energy=                    0.293005
 Thermal correction to Enthalpy=                  0.293949
 Thermal correction to Gibbs Free Energy=         0.229245
 Sum of electronic and zero-point Energies=          -3226.182334
 Sum of electronic and thermal Energies=             -3226.164968
 Sum of electronic and thermal Enthalpies=           -3226.164024
 Sum of electronic and thermal Free Energies=        -3226.228728

                     E (Thermal)             CV                S
                      KCal/Mol        Cal/Mol-Kelvin    Cal/Mol-Kelvin
 Total                  183.863             63.051            136.180
 Electronic               0.000              0.000              0.000
 Translational            0.889              2.981             42.830
 Rotational               0.889              2.981             33.371
 Vibrational            182.086             57.089             59.979
 Vibration     1          0.594              1.982              5.414
 Vibration     2          0.595              1.980              5.061
 Vibration     3          0.597              1.972              4.396
 Vibration     4          0.598              1.968              4.145
 Vibration     5          0.600              1.962              3.873
 Vibration     6          0.603              1.953              3.552
 Vibration     7          0.611              1.924              2.962
 Vibration     8          0.618              1.902              2.667
 Vibration     9          0.621              1.893              2.570
 Vibration    10          0.630              1.865              2.313
 Vibration    11          0.635              1.848              2.188
 Vibration    12          0.641              1.829              2.063
 Vibration    13          0.666              1.754              1.695
 Vibration    14          0.667              1.749              1.676
 Vibration    15          0.678              1.717              1.554
 Vibration    16          0.685              1.696              1.485
 Vibration    17          0.698              1.658              1.373
 Vibration    18          0.703              1.644              1.334
 Vibration    19          0.733              1.560              1.133
 Vibration    20          0.754              1.502              1.019
 Vibration    21          0.786              1.418              0.879
 Vibration    22          0.800              1.382              0.825
 Vibration    23          0.872              1.212              0.616
 Vibration    24          0.890              1.173              0.576
 Vibration    25          0.918              1.113              0.520

 Optimization completed.
    -- Stationary point found.
 Normal termination of Gaussian 16 at Wed Feb 17 15:22:14 2021.
