 Gaussian 16, Revision A.03,
 Gaussian 16:  ES64L-G16RevA.03 25-Dec-2016

 ----------------------------------------------------------------------
 # wB97XD def2tzvp, opt=(ts, noeigen, calcfc, maxcycles=70, maxstep=8),
  freq=noraman, scrf=(iefpcm, solvent=water)
 ----------------------------------------------------------------------

 ------------------------
 1_iteration/TS-523-1.out
 ------------------------
 Symbolic Z-matrix:
 Charge =  0 Multiplicity = 1

 SCF Done:  E(RwB97XD) =  -3187.15359605     A.U. after   15 cycles
 SCF Done:  E(RwB97XD) =  -3187.15294919     A.U. after   13 cycles
 SCF Done:  E(RwB97XD) =  -3187.15299285     A.U. after   13 cycles
 SCF Done:  E(RwB97XD) =  -3187.15358995     A.U. after   12 cycles
 SCF Done:  E(RwB97XD) =  -3187.15508023     A.U. after   13 cycles
 SCF Done:  E(RwB97XD) =  -3187.15665003     A.U. after   12 cycles
 SCF Done:  E(RwB97XD) =  -3187.15771815     A.U. after   13 cycles
 SCF Done:  E(RwB97XD) =  -3187.15817641     A.U. after   12 cycles
 SCF Done:  E(RwB97XD) =  -3187.15816813     A.U. after   12 cycles
 SCF Done:  E(RwB97XD) =  -3187.15822015     A.U. after   12 cycles
 SCF Done:  E(RwB97XD) =  -3187.15820258     A.U. after   12 cycles
 SCF Done:  E(RwB97XD) =  -3187.15821929     A.U. after   11 cycles
 SCF Done:  E(RwB97XD) =  -3187.15822368     A.U. after   10 cycles
 SCF Done:  E(RwB97XD) =  -3187.15822439     A.U. after   10 cycles
 SCF Done:  E(RwB97XD) =  -3187.15819662     A.U. after   11 cycles
 SCF Done:  E(RwB97XD) =  -3187.15822447     A.U. after   11 cycles
 SCF Done:  E(RwB97XD) =  -3187.15822462     A.U. after    9 cycles
 SCF Done:  E(RwB97XD) =  -3187.15822490     A.U. after    8 cycles
 SCF Done:  E(RwB97XD) =  -3187.15822489     A.U. after    6 cycles
 Optimization completed.
    -- Stationary point found.
 Normal termination of Gaussian 16 at Wed Feb 17 05:28:04 2021.

 ---------------------------------------------------------------------
 #N Geom=AllCheck Guess=TCheck SCRF=Check GenChk RwB97XD/def2TZVP Freq
 ---------------------------------------------------------------------

 Structure from the checkpoint file:  "/beegfs/scratch/user/q/tla25/Gau-3639.chk"
 ------------------------
 1_iteration/TS-523-1.out
 ------------------------
 Charge =  0 Multiplicity = 1

                         Standard orientation:
 ---------------------------------------------------------------------
 Center     Atomic      Atomic             Coordinates (Angstroms)
 Number     Number       Type             X           Y           Z
 ---------------------------------------------------------------------
      1          6           0        0.275617    0.455233   -0.058714
      2          6           0       -0.040496    1.863162    0.091702
      3          8           0       -1.144116    2.280665    0.479156
      4          6           0       -0.719464   -0.505262   -0.021807
      5          6           0       -2.681269   -1.123227    2.238281
      6          1           0       -3.013542   -0.801621    3.227700
      7          1           0       -3.502892   -0.999465    1.534861
      8          1           0       -2.412133   -2.177338    2.284723
      9          7           0       -1.537908   -0.347778    1.774813
     10          1           0       -1.728374    0.650341    1.707854
     11          1           0       -0.725227   -0.477194    2.365362
     12          6           0       -0.400659   -1.971254   -0.050537
     13          1           0        0.400070   -2.193720    0.654980
     14          1           0       -1.276084   -2.565193    0.201890
     15          1           0       -0.070704   -2.262127   -1.048138
     16         35           0       -2.378796   -0.184915   -1.052361
     17          6           0        1.702876    0.020835   -0.050292
     18          6           0        2.495577    0.179724    1.088575
     19          6           0        3.825500   -0.213100    1.098008
     20          6           0        4.391120   -0.781651   -0.035002
     21          6           0        3.619175   -0.946056   -1.176129
     22          6           0        2.291826   -0.542144   -1.182759
     23          1           0        2.057726    0.618393    1.977910
     24          1           0        4.419841   -0.080904    1.993674
     25          1           0        5.428288   -1.092420   -0.028886
     26          1           0        4.053262   -1.383126   -2.066883
     27          1           0        1.696642   -0.661108   -2.080354
     28          7           0        0.943164    2.757925   -0.208493
     29          1           0        1.876814    2.451303   -0.412674
     30          1           0        0.811501    3.712291    0.075183
 ---------------------------------------------------------------------

 SCF Done:  E(RwB97XD) =  -3187.15822489     A.U. after    1 cycles

 The electronic state is 1-A.
 Alpha  occ. eigenvalues -- -483.11810 -62.66657 -56.45760 -56.45430 -56.45413
 Alpha  occ. eigenvalues --  -19.20202 -14.46872 -14.43765 -10.39147 -10.37891
 Alpha  occ. eigenvalues --  -10.31267 -10.30029 -10.28946 -10.28916 -10.28850
 Alpha  occ. eigenvalues --  -10.28837 -10.28752 -10.28685 -10.26315  -8.80759
 Alpha  occ. eigenvalues --   -6.62860  -6.61821  -6.61765  -2.73250  -2.72966
 Alpha  occ. eigenvalues --   -2.72923  -2.72080  -2.72080  -1.12596  -1.02615
 Alpha  occ. eigenvalues --   -0.99467  -0.96718  -0.93260  -0.87058  -0.84938
 Alpha  occ. eigenvalues --   -0.83141  -0.80709  -0.78190  -0.70615  -0.69861
 Alpha  occ. eigenvalues --   -0.69639  -0.63808  -0.62500  -0.61526  -0.59431
 Alpha  occ. eigenvalues --   -0.57065  -0.56067  -0.55514  -0.53807  -0.53719
 Alpha  occ. eigenvalues --   -0.52159  -0.51053  -0.50650  -0.49721  -0.48742
 Alpha  occ. eigenvalues --   -0.47650  -0.47049  -0.46317  -0.45419  -0.42879
 Alpha  occ. eigenvalues --   -0.42151  -0.41524  -0.37110  -0.36524  -0.35381
 Alpha  occ. eigenvalues --   -0.34399  -0.33550  -0.32451  -0.27008
 Alpha virt. eigenvalues --    0.03155   0.05171   0.05904   0.06835   0.10153
 Alpha virt. eigenvalues --    0.12986   0.13329   0.13831   0.15176   0.15412
 Alpha virt. eigenvalues --    0.16513   0.17381   0.18082   0.18223   0.19044

 Mulliken charges:
               1
     1  C   -0.195126
     2  C    0.334231
     3  O   -0.552387
     4  C    0.121874
     5  C   -0.280487
     6  H    0.148860
     7  H    0.144961
     8  H    0.149654
     9  N   -0.342876
    10  H    0.273709
    11  H    0.270129
    12  C   -0.387197
    13  H    0.155413
    14  H    0.155429
    15  H    0.159104
    16  Br  -0.163105
    17  C    0.083446
    18  C   -0.214467
    19  C   -0.140581
    20  C   -0.134562
    21  C   -0.153162
    22  C   -0.222999
    23  H    0.140626
    24  H    0.140894
    25  H    0.143833
    26  H    0.139976
    27  H    0.150388
    28  N   -0.467719
    29  H    0.277841
    30  H    0.264300
 Sum of Mulliken charges =  -0.00000

 Dipole moment (field-independent basis, Debye):
    X=              3.2960    Y=             -3.8570    Z=              4.5197  Tot=              6.7946
 Quadrupole moment (field-independent basis, Debye-Ang):
   XX=            -96.9789   YY=           -102.0852   ZZ=            -92.0500
   XY=             10.1498   XZ=             -7.1665   YZ=             -1.3578

  Exact polarizability: 294.428   2.178 210.204  -5.556   4.969 228.937
 Approx polarizability: 222.635  -3.936 172.257  -1.579   6.394 193.305

 ******    1 imaginary frequencies (negative Signs) ******

                      1                      2                      3
                      A                      A                      A
 Frequencies --   -374.8276                38.8694                42.5611
 Red. masses --      6.2695                 4.0173                 4.3736
 Frc consts  --      0.5190                 0.0036                 0.0047
 IR Inten    --    763.5846                 2.7653                 2.2613

                      4                      5                      6
                      A                      A                      A
 Frequencies --     72.2140                82.9696                92.4716
 Red. masses --      3.1611                 2.9453                 4.4914
 Frc consts  --      0.0097                 0.0119                 0.0226
 IR Inten    --      2.1844                 3.4671                 8.2926

                      7                      8                      9
                      A                      A                      A
 Frequencies --    118.9565               144.1165               156.3190
 Red. masses --      3.2422                 4.7450                 2.1386
 Frc consts  --      0.0270                 0.0581                 0.0308
 IR Inten    --     22.8608                 7.9362                 4.6641

                     10                     11                     12
                      A                      A                      A
 Frequencies --    190.8446               207.1107               244.0139
 Red. masses --      2.2751                 4.2321                 1.3519
 Frc consts  --      0.0488                 0.1070                 0.0474
 IR Inten    --      9.6956                31.2599               303.8643

                     13                     14                     15
                      A                      A                      A
 Frequencies --    254.2531               266.9807               279.3374
 Red. masses --      2.3340                 3.5553                 1.4427
 Frc consts  --      0.0889                 0.1493                 0.0663
 IR Inten    --     14.6149                31.4263                 1.7726

                     16                     17                     18
                      A                      A                      A
 Frequencies --    305.6696               315.9139               360.2943
 Red. masses --      2.5126                 3.1075                 3.1193
 Frc consts  --      0.1383                 0.1827                 0.2386
 IR Inten    --      8.9681                24.6719                 4.8202

                     19                     20                     21
                      A                      A                      A
 Frequencies --    397.8337               424.8158               448.7212
 Red. masses --      6.1396                 2.8621                 3.1694
 Frc consts  --      0.5725                 0.3043                 0.3760
 IR Inten    --     22.7556                 0.2004                 8.0336

                     22                     23                     24
                      A                      A                      A
 Frequencies --    500.5240               517.6555               555.4068
 Red. masses --      2.0592                 3.0999                 1.8801
 Frc consts  --      0.3040                 0.4894                 0.3417
 IR Inten    --     49.7691                39.9368                47.3172

                     25                     26                     27
                      A                      A                      A
 Frequencies --    622.4805               639.9369               656.5798
 Red. masses --      2.7525                 4.9033                 5.7619
 Frc consts  --      0.6284                 1.1831                 1.4635
 IR Inten    --    104.9352                12.3550                23.1071

                     28                     29                     30
                      A                      A                      A
 Frequencies --    689.5134               728.8551               756.8016
 Red. masses --      1.4284                 1.5599                 3.2733
 Frc consts  --      0.4001                 0.4882                 1.1046
 IR Inten    --     44.7129                84.0913                68.0012

                     31                     32                     33
                      A                      A                      A
 Frequencies --    799.0552               806.9999               880.3967
 Red. masses --      6.6090                 2.6230                 1.2471
 Frc consts  --      2.4862                 1.0065                 0.5695
 IR Inten    --     70.5545                62.7237                 0.8686

                     34                     35                     36
                      A                      A                      A
 Frequencies --    958.0350              1002.0239              1013.7171
 Red. masses --      1.4537                 2.6983                 1.1055
 Frc consts  --      0.7861                 1.5963                 0.6693
 IR Inten    --      4.1275                 8.3910                65.3250

                     37                     38                     39
                      A                      A                      A
 Frequencies --   1015.1260              1026.2781              1028.4089
 Red. masses --      1.3854                 4.5598                 1.5427
 Frc consts  --      0.8411                 2.8296                 0.9613
 IR Inten    --      1.3095                34.0604                46.3333

                     40                     41                     42
                      A                      A                      A
 Frequencies --   1031.2418              1044.7941              1063.8574
 Red. masses --      1.5831                 1.4491                 1.9710
 Frc consts  --      0.9919                 0.9320                 1.3144
 IR Inten    --    108.3001                13.5469                 5.7065

                     43                     44                     45
                      A                      A                      A
 Frequencies --   1073.0924              1083.3680              1103.7414
 Red. masses --      1.9775                 2.9768                 1.9034
 Frc consts  --      1.3417                 2.0585                 1.3662
 IR Inten    --     51.2900               110.7071                22.0412

                     46                     47                     48
                      A                      A                      A
 Frequencies --   1108.6227              1124.5093              1181.9512
 Red. masses --      1.6208                 2.1398                 1.1334
 Frc consts  --      1.1737                 1.5942                 0.9329
 IR Inten    --     36.4780               138.5426                 0.1102

                     49                     50                     51
                      A                      A                      A
 Frequencies --   1202.2899              1205.7956              1292.3680
 Red. masses --      1.3904                 1.1209                 4.2692
 Frc consts  --      1.1842                 0.9602                 4.2012
 IR Inten    --     33.4643                 0.2122                14.8875

                     52                     53                     54
                      A                      A                      A
 Frequencies --   1307.4594              1341.4035              1355.4703
 Red. masses --      4.4823                 1.3219                 1.4844
 Frc consts  --      4.5145                 1.4015                 1.6069
 IR Inten    --     18.8881                 7.6097                18.0788

                     55                     56                     57
                      A                      A                      A
 Frequencies --   1383.1140              1415.1651              1448.5478
 Red. masses --      4.3358                 1.2892                 1.5316
 Frc consts  --      4.8869                 1.5212                 1.8935
 IR Inten    --    673.6130                15.8026               223.5156

                     58                     59                     60
                      A                      A                      A
 Frequencies --   1465.1368              1476.5204              1485.3063
 Red. masses --      1.5671                 1.1153                 1.8276
 Frc consts  --      1.9820                 1.4326                 2.3755
 IR Inten    --    303.7230                31.8743                 3.7868

                     61                     62                     63
                      A                      A                      A
 Frequencies --   1490.4204              1494.6590              1504.8994
 Red. masses --      1.1323                 1.3291                 1.0781
 Frc consts  --      1.4820                 1.7494                 1.4385
 IR Inten    --     32.3529               123.9413                28.5782

                     64                     65                     66
                      A                      A                      A
 Frequencies --   1541.2718              1611.5714              1642.0791
 Red. masses --      2.4138                 1.3993                 5.2257
 Frc consts  --      3.3784                 2.1412                 8.3020
 IR Inten    --     58.1203               257.3094                68.1418

                     67                     68                     69
                      A                      A                      A
 Frequencies --   1651.5379              1657.8525              1670.4203
 Red. masses --      2.2408                 1.5005                 5.9052
 Frc consts  --      3.6010                 2.4299                 9.7081
 IR Inten    --    547.1241               197.2588                 3.3262

                     70                     71                     72
                      A                      A                      A
 Frequencies --   3056.3082              3071.4647              3132.1922
 Red. masses --      1.0375                 1.0363                 1.0995
 Frc consts  --      5.7097                 5.7601                 6.3557
 IR Inten    --     68.9536                10.9268                18.5523

                     73                     74                     75
                      A                      A                      A
 Frequencies --   3147.1695              3162.1041              3165.7781
 Red. masses --      1.1023                 1.1052                 1.1024
 Frc consts  --      6.4328                 6.5110                 6.5095
 IR Inten    --     10.6956                17.2142                16.7738

                     76                     77                     78
                      A                      A                      A
 Frequencies --   3186.3224              3190.4756              3200.3919
 Red. masses --      1.0872                 1.0876                 1.0911
 Frc consts  --      6.5033                 6.5227                 6.5845
 IR Inten    --      9.2947                 2.6482                 9.5566

                     79                     80                     81
                      A                      A                      A
 Frequencies --   3207.6750              3219.3998              3459.2842
 Red. masses --      1.0950                 1.0988                 1.0598
 Frc consts  --      6.6380                 6.7098                 7.4721
 IR Inten    --     44.1324                21.6858                86.2656

                     82                     83                     84
                      A                      A                      A
 Frequencies --   3585.3629              3624.0790              3749.4059
 Red. masses --      1.0894                 1.0455                 1.1045
 Frc consts  --      8.2513                 8.0902                 9.1487
 IR Inten    --     53.6025                83.2125                84.8931

 - Thermochemistry -
 -------------------
 Temperature   298.150 Kelvin.  Pressure   1.00000 Atm.
 Atom     1 has atomic number  6 and mass  12.00000

 Molecular mass:   270.03677 amu.
 Principal axes and moments of inertia in atomic units:
                           1         2         3
     Eigenvalues --  2404.077506261.481526526.18893
           X            0.99923   0.00028  -0.03927
           Y           -0.00366   0.99628  -0.08614
           Z            0.03910   0.08622   0.99551
 This molecule is an asymmetric top.
 Rotational symmetry number  1.
 Warning -- assumption of classical behavior for rotation
           may cause significant error
 Rotational temperatures (Kelvin)      0.03603     0.01383     0.01327
 Rotational constants (GHZ):           0.75070     0.28823     0.27654
    1 imaginary frequencies ignored.
 Zero-point vibrational energy     647526.3 (Joules/Mol)
                                  154.76250 (Kcal/Mol)
 Warning -- explicit consideration of  23 degrees of freedom as
           vibrations may cause significant error
 Vibrational temperatures:     55.92    61.24   103.90   119.37   133.05
          (Kelvin)            171.15   207.35   224.91   274.58   297.99
                              351.08   365.81   384.13   401.90   439.79
                              454.53   518.38   572.39   611.22   645.61
                              720.14   744.79   799.11   895.61   920.73
                              944.67   992.06  1048.66  1088.87  1149.66
                             1161.09  1266.69  1378.40  1441.69  1458.51
                             1460.54  1476.59  1479.65  1483.73  1503.23
                             1530.65  1543.94  1558.72  1588.04  1595.06
                             1617.92  1700.56  1729.83  1734.87  1859.43
                             1881.14  1929.98  1950.22  1989.99  2036.11
                             2084.14  2108.01  2124.38  2137.02  2144.38
                             2150.48  2165.21  2217.55  2318.69  2362.59
                             2376.19  2385.28  2403.36  4397.35  4419.15
                             4506.53  4528.07  4549.56  4554.85  4584.41
                             4590.38  4604.65  4615.13  4632.00  4977.14
                             5158.54  5214.24  5394.56

 Zero-point correction=                           0.246630 (Hartree/Particle)
 Thermal correction to Energy=                    0.262657
 Thermal correction to Enthalpy=                  0.263602
 Thermal correction to Gibbs Free Energy=         0.202161
 Sum of electronic and zero-point Energies=          -3186.911595
 Sum of electronic and thermal Energies=             -3186.895567
 Sum of electronic and thermal Enthalpies=           -3186.894623
 Sum of electronic and thermal Free Energies=        -3186.956064

                     E (Thermal)             CV                S
                      KCal/Mol        Cal/Mol-Kelvin    Cal/Mol-Kelvin
 Total                  164.820             58.766            129.312
 Electronic               0.000              0.000              0.000
 Translational            0.889              2.981             42.679
 Rotational               0.889              2.981             32.952
 Vibrational            163.043             52.804             53.682
 Vibration     1          0.594              1.981              5.316
 Vibration     2          0.595              1.980              5.136
 Vibration     3          0.598              1.967              4.092
 Vibration     4          0.600              1.961              3.819
 Vibration     5          0.602              1.955              3.607
 Vibration     6          0.609              1.934              3.117
 Vibration     7          0.616              1.909              2.748
 Vibration     8          0.620              1.896              2.594
 Vibration     9          0.634              1.853              2.220
 Vibration    10          0.641              1.830              2.069
 Vibration    11          0.659              1.773              1.773
 Vibration    12          0.665              1.756              1.701
 Vibration    13          0.672              1.734              1.616
 Vibration    14          0.680              1.712              1.538
 Vibration    15          0.696              1.663              1.386
 Vibration    16          0.703              1.643              1.331
 Vibration    17          0.735              1.554              1.121
 Vibration    18          0.764              1.475              0.971
 Vibration    19          0.787              1.416              0.876
 Vibration    20          0.808              1.364              0.800
 Vibration    21          0.856              1.249              0.657
 Vibration    22          0.873              1.211              0.615
 Vibration    23          0.911              1.128              0.533

 Optimization completed.
    -- Stationary point found.
 Normal termination of Gaussian 16 at Wed Feb 17 06:32:54 2021.
