 Gaussian 16, Revision A.03,
 Gaussian 16:  ES64L-G16RevA.03 25-Dec-2016

 ----------------------------------------------------------------------
 # wB97XD def2tzvp, opt=(ts, noeigen, calcfc, maxcycles=70, maxstep=5),
  freq=noraman, scrf=(iefpcm, solvent=water)
 ----------------------------------------------------------------------

 ------------------------
 2_iteration/TS-506-2.out
 ------------------------
 Symbolic Z-matrix:
 Charge =  0 Multiplicity = 1

 SCF Done:  E(RwB97XD) =  -2979.35674256     A.U. after   15 cycles
 Optimization completed.
    -- Stationary point found.
 Normal termination of Gaussian 16 at Wed Feb 17 11:28:42 2021.

 ---------------------------------------------------------------------
 #N Geom=AllCheck Guess=TCheck SCRF=Check GenChk RwB97XD/def2TZVP Freq
 ---------------------------------------------------------------------

 Structure from the checkpoint file:  "/beegfs/scratch/user/q/tla25/Gau-634.chk"
 ------------------------
 2_iteration/TS-506-2.out
 ------------------------
 Charge =  0 Multiplicity = 1

                         Standard orientation:
 ---------------------------------------------------------------------
 Center     Atomic      Atomic             Coordinates (Angstroms)
 Number     Number       Type             X           Y           Z
 ---------------------------------------------------------------------
      1          6           0       -0.388542    0.338596    0.219550
      2          6           0       -1.081527    1.530253   -0.150570
      3          8           0       -2.263687    1.527238   -0.520760
      4          6           0        0.956539    0.110791    0.602380
      5          6           0        3.301172   -0.637699   -1.096020
      6          1           0        3.641003   -0.796238   -2.120380
      7          1           0        3.893139    0.157633   -0.647800
      8          1           0        3.449756   -1.555049   -0.530640
      9          7           0        1.884831   -0.269075   -1.054870
     10          1           0        1.709077    0.568844   -1.597390
     11          1           0        1.306104   -1.001817   -1.451300
     12          6           0        1.291554   -1.165187    1.346290
     13          1           0        0.794764   -1.132059    2.318250
     14          1           0        0.952068   -2.058359    0.829890
     15          1           0        2.363255   -1.240323    1.520750
     16          6           0        1.815974    1.255295    1.102050
     17          1           0        1.391573    1.640803    2.030030
     18          1           0        2.817306    0.891749    1.324890
     19          1           0        1.904581    2.076105    0.399660
     20         35           0       -1.473275   -1.243489   -0.052370
     21          6           0       -0.397652    2.888896   -0.094180
     22          1           0        0.442037    2.950549   -0.787710
     23          1           0       -1.137585    3.631173   -0.384840
     24          1           0       -0.031873    3.129057    0.902750
 ---------------------------------------------------------------------

 SCF Done:  E(RwB97XD) =  -2979.35674256     A.U. after    1 cycles

 The electronic state is 1-A.
 Alpha  occ. eigenvalues -- -483.11040 -62.65886 -56.44977 -56.44665 -56.44646
 Alpha  occ. eigenvalues --  -19.19853 -14.48424 -10.36527 -10.35431 -10.31936
 Alpha  occ. eigenvalues --  -10.30039 -10.28608 -10.28212 -10.27387  -8.80005
 Alpha  occ. eigenvalues --   -6.62078  -6.61081  -6.61026  -2.72479  -2.72198
 Alpha  occ. eigenvalues --   -2.72155  -2.71347  -2.71347  -1.10805  -1.03998
 Alpha  occ. eigenvalues --   -0.93804  -0.87148  -0.83815  -0.79833  -0.79434
 Alpha  occ. eigenvalues --   -0.76687  -0.67888  -0.63057  -0.59904  -0.57217
 Alpha  occ. eigenvalues --   -0.56103  -0.54992  -0.53815  -0.51833  -0.50440
 Alpha  occ. eigenvalues --   -0.49630  -0.49271  -0.48388  -0.47578  -0.46462
 Alpha  occ. eigenvalues --   -0.44355  -0.44187  -0.42201  -0.40854  -0.37804
 Alpha  occ. eigenvalues --   -0.35808  -0.31699  -0.27150
 Alpha virt. eigenvalues --    0.05005   0.08462   0.09325   0.12545   0.13159
 Alpha virt. eigenvalues --    0.13974   0.15193   0.16687   0.17030   0.17284
 Alpha virt. eigenvalues --    0.18655   0.19552   0.20008   0.20215   0.21318

 Mulliken charges:
               1
     1  C   -0.111631
     2  C    0.173817
     3  O   -0.511315
     4  C    0.076408
     5  C   -0.297061
     6  H    0.157402
     7  H    0.157937
     8  H    0.159993
     9  N   -0.323756
    10  H    0.280327
    11  H    0.279755
    12  C   -0.374511
    13  H    0.154288
    14  H    0.151998
    15  H    0.143294
    16  C   -0.407612
    17  H    0.167376
    18  H    0.153726
    19  H    0.152448
    20  Br  -0.201212
    21  C   -0.398115
    22  H    0.141211
    23  H    0.127375
    24  H    0.147859
 Sum of Mulliken charges =  -0.00000

 Dipole moment (field-independent basis, Debye):
    X=             13.0341    Y=             -0.8397    Z=             -0.7289  Tot=             13.0814
 Quadrupole moment (field-independent basis, Debye-Ang):
   XX=            -77.5958   YY=            -74.2354   ZZ=            -69.8022
   XY=              4.5894   XZ=             -7.5381   YZ=              2.7797

  Exact polarizability: 202.516 -11.611 171.034   2.820   0.617 134.453
 Approx polarizability: 156.150  -5.390 134.737   3.086   0.727 116.676

 ******    1 imaginary frequencies (negative Signs) ******

                      1                      2                      3
                      A                      A                      A
 Frequencies --   -347.7809                18.4224                65.0359
 Red. masses --      5.8087                 3.3258                 2.0524
 Frc consts  --      0.4139                 0.0007                 0.0051
 IR Inten    --    879.0962                 1.6721                 3.0322

                      4                      5                      6
                      A                      A                      A
 Frequencies --     78.0848               112.8591               172.4146
 Red. masses --      4.3120                 3.8476                 1.2525
 Frc consts  --      0.0155                 0.0289                 0.0219
 IR Inten    --      5.4398                10.2134                 0.4569

                      7                      8                      9
                      A                      A                      A
 Frequencies --    208.5194               225.2584               241.0938
 Red. masses --      3.3296                 2.3778                 2.4233
 Frc consts  --      0.0853                 0.0711                 0.0830
 IR Inten    --      7.8147                 1.8912                 6.1225

                     10                     11                     12
                      A                      A                      A
 Frequencies --    254.9053               269.5117               289.2334
 Red. masses --      1.6519                 1.3651                 1.2810
 Frc consts  --      0.0632                 0.0584                 0.0631
 IR Inten    --      1.1382                 1.2713                 1.6588

                     13                     14                     15
                      A                      A                      A
 Frequencies --    299.2367               354.3934               362.8905
 Red. masses --      1.8621                 2.4699                 3.0678
 Frc consts  --      0.0982                 0.1828                 0.2380
 IR Inten    --      1.4308                 6.0955                13.9088

                     16                     17                     18
                      A                      A                      A
 Frequencies --    399.2993               439.0806               479.6638
 Red. masses --      3.2858                 2.6449                 3.4606
 Frc consts  --      0.3087                 0.3004                 0.4691
 IR Inten    --      8.4384                 9.1482               120.2400

                     19                     20                     21
                      A                      A                      A
 Frequencies --    578.1222               628.4106               629.1796
 Red. masses --      3.7866                 2.9781                 2.9729
 Frc consts  --      0.7457                 0.6929                 0.6934
 IR Inten    --     40.5925                65.6738                26.6772

                     22                     23                     24
                      A                      A                      A
 Frequencies --    670.3938               843.9207               916.6598
 Red. masses --      1.2774                 4.6829                 3.0444
 Frc consts  --      0.3383                 1.9650                 1.5072
 IR Inten    --     19.4571                64.1354                22.9463

                     25                     26                     27
                      A                      A                      A
 Frequencies --    961.8044              1003.6848              1014.4379
 Red. masses --      1.3277                 1.5274                 1.1665
 Frc consts  --      0.7236                 0.9065                 0.7073
 IR Inten    --      3.2483               169.8087                 8.6416

                     28                     29                     30
                      A                      A                      A
 Frequencies --   1038.3646              1047.6423              1051.8207
 Red. masses --      1.5505                 1.3687                 1.3769
 Frc consts  --      0.9850                 0.8851                 0.8975
 IR Inten    --      8.6059                57.5837                18.5484

                     31                     32                     33
                      A                      A                      A
 Frequencies --   1060.8240              1090.0008              1122.7839
 Red. masses --      2.1877                 1.7611                 2.0479
 Frc consts  --      1.4505                 1.2328                 1.5211
 IR Inten    --    229.9996                41.2681                13.6685

                     34                     35                     36
                      A                      A                      A
 Frequencies --   1227.4810              1238.7720              1330.5734
 Red. masses --      3.3126                 1.4132                 3.5302
 Frc consts  --      2.9407                 1.2777                 3.6824
 IR Inten    --      6.3435                35.7560                58.3847

                     37                     38                     39
                      A                      A                      A
 Frequencies --   1351.7496              1384.6465              1409.8957
 Red. masses --      1.3306                 1.4163                 1.6471
 Frc consts  --      1.4324                 1.5998                 1.9291
 IR Inten    --      0.8703               101.3781               325.6744

                     40                     41                     42
                      A                      A                      A
 Frequencies --   1415.3760              1427.5589              1464.8376
 Red. masses --      1.9318                 1.2455                 1.1471
 Frc consts  --      2.2801                 1.4955                 1.4503
 IR Inten    --    592.4771                71.6326                46.6414

                     43                     44                     45
                      A                      A                      A
 Frequencies --   1469.8698              1477.0460              1486.9141
 Red. masses --      1.1586                 1.0497                 1.0591
 Frc consts  --      1.4749                 1.3493                 1.3796
 IR Inten    --     10.0249                 9.3267                23.4018

                     46                     47                     48
                      A                      A                      A
 Frequencies --   1490.6656              1495.5864              1510.6755
 Red. masses --      1.0682                 1.0429                 1.0625
 Frc consts  --      1.3985                 1.3745                 1.4286
 IR Inten    --      4.0765                24.5534                34.6521

                     49                     50                     51
                      A                      A                      A
 Frequencies --   1514.0578              1528.2520              1620.6143
 Red. masses --      1.0838                 1.0747                 7.3488
 Frc consts  --      1.4638                 1.4788                11.3718
 IR Inten    --     74.5009                10.8562               737.9920

                     52                     53                     54
                      A                      A                      A
 Frequencies --   1646.2698              3069.1804              3069.8945
 Red. masses --      1.0914                 1.0375                 1.0364
 Frc consts  --      1.7427                 5.7580                 5.7549
 IR Inten    --     30.2820                13.6253                41.7507

                     55                     56                     57
                      A                      A                      A
 Frequencies --   3071.4593              3082.9256              3142.6203
 Red. masses --      1.0399                 1.0417                 1.0998
 Frc consts  --      5.7799                 5.8332                 6.3993
 IR Inten    --     17.5767                20.7048                11.6221

                     58                     59                     60
                      A                      A                      A
 Frequencies --   3147.1876              3147.2723              3151.6769
 Red. masses --      1.1016                 1.0995                 1.0994
 Frc consts  --      6.4285                 6.4164                 6.4341
 IR Inten    --     18.5635                18.0087                42.4862

                     61                     62                     63
                      A                      A                      A
 Frequencies --   3167.2437              3175.0587              3180.9813
 Red. masses --      1.1038                 1.1055                 1.1020
 Frc consts  --      6.5237                 6.5663                 6.5697
 IR Inten    --     22.9467                20.1114                11.9259

                     64                     65                     66
                      A                      A                      A
 Frequencies --   3203.2395              3519.4157              3597.3758
 Red. masses --      1.0980                 1.0516                 1.0956
 Frc consts  --      6.6378                 7.6746                 8.3539
 IR Inten    --     11.2389                15.8957                38.1887

 - Thermochemistry -
 -------------------
 Temperature   298.150 Kelvin.  Pressure   1.00000 Atm.
 Atom     1 has atomic number  6 and mass  12.00000

 Molecular mass:   207.02588 amu.
 Principal axes and moments of inertia in atomic units:
                           1         2         3
     Eigenvalues --  1713.988302455.547753439.69450
           X            0.99479  -0.10172  -0.00710
           Y            0.10174   0.99480   0.00337
           Z            0.00672  -0.00408   0.99997
 This molecule is an asymmetric top.
 Rotational symmetry number  1.
 Warning -- assumption of classical behavior for rotation
           may cause significant error
 Rotational temperatures (Kelvin)      0.05053     0.03527     0.02518
 Rotational constants (GHZ):           1.05295     0.73496     0.52468
    1 imaginary frequencies ignored.
 Zero-point vibrational energy     539182.8 (Joules/Mol)
                                  128.86779 (Kcal/Mol)
 Warning -- explicit consideration of  18 degrees of freedom as
           vibrations may cause significant error
 Vibrational temperatures:     26.51    93.57   112.35   162.38   248.07
          (Kelvin)            300.01   324.10   346.88   366.75   387.77
                              416.14   430.53   509.89   522.12   574.50
                              631.74   690.13   831.79   904.14   905.25
                              964.55  1214.21  1318.87  1383.82  1444.08
                             1459.55  1493.98  1507.32  1513.34  1526.29
                             1568.27  1615.44  1766.07  1782.32  1914.40
                             1944.87  1992.20  2028.53  2036.41  2053.94
                             2107.57  2114.81  2125.14  2139.34  2144.74
                             2151.82  2173.53  2178.39  2198.81  2331.70
                             2368.62  4415.87  4416.89  4419.14  4435.64
                             4521.53  4528.10  4528.22  4534.56  4556.96
                             4568.20  4576.72  4608.75  5063.65  5175.82

 Zero-point correction=                           0.205364 (Hartree/Particle)
 Thermal correction to Energy=                    0.218002
 Thermal correction to Enthalpy=                  0.218947
 Thermal correction to Gibbs Free Energy=         0.165117
 Sum of electronic and zero-point Energies=          -2979.151379
 Sum of electronic and thermal Energies=             -2979.138740
 Sum of electronic and thermal Enthalpies=           -2979.137796
 Sum of electronic and thermal Free Energies=        -2979.191625

                     E (Thermal)             CV                S
                      KCal/Mol        Cal/Mol-Kelvin    Cal/Mol-Kelvin
 Total                  136.799             45.026            113.294
 Electronic               0.000              0.000              0.000
 Translational            0.889              2.981             41.887
 Rotational               0.889              2.981             31.049
 Vibrational            135.021             39.064             40.358
 Vibration     1          0.593              1.986              6.797
 Vibration     2          0.597              1.971              4.298
 Vibration     3          0.599              1.964              3.938
 Vibration     4          0.607              1.939              3.219
 Vibration     5          0.626              1.876              2.409
 Vibration     6          0.642              1.828              2.057
 Vibration     7          0.650              1.803              1.916
 Vibration     8          0.658              1.777              1.795
 Vibration     9          0.665              1.755              1.696
 Vibration    10          0.674              1.729              1.599
 Vibration    11          0.686              1.694              1.478
 Vibration    12          0.692              1.675              1.421
 Vibration    13          0.730              1.566              1.147
 Vibration    14          0.737              1.549              1.110
 Vibration    15          0.765              1.472              0.965
 Vibration    16          0.799              1.385              0.829
 Vibration    17          0.836              1.295              0.711
 Vibration    18          0.935              1.079              0.489

 Optimization completed.
    -- Stationary point found.
 Normal termination of Gaussian 16 at Wed Feb 17 11:52:07 2021.
