 Gaussian 16, Revision A.03,
 Gaussian 16:  ES64L-G16RevA.03 25-Dec-2016

 ----------------------------------------------------------------------
 # wB97XD def2tzvp, opt=(ts, noeigen, calcfc, maxcycles=70, maxstep=1),
  freq=noraman, scrf=(iefpcm, solvent=water)
 ----------------------------------------------------------------------

 ------------------------
 0_iteration/TS-595-0.out
 ------------------------
 Symbolic Z-matrix:
 Charge =  0 Multiplicity = 1

 SCF Done:  E(RwB97XD) =  -1301.70417912     A.U. after   15 cycles
 SCF Done:  E(RwB97XD) =  -1301.70410070     A.U. after   10 cycles
 SCF Done:  E(RwB97XD) =  -1301.70403373     A.U. after   10 cycles
 SCF Done:  E(RwB97XD) =  -1301.70399108     A.U. after   11 cycles
 SCF Done:  E(RwB97XD) =  -1301.70393090     A.U. after   10 cycles
 SCF Done:  E(RwB97XD) =  -1301.70388389     A.U. after   11 cycles
 SCF Done:  E(RwB97XD) =  -1301.70383776     A.U. after   11 cycles
 SCF Done:  E(RwB97XD) =  -1301.70379593     A.U. after   10 cycles
 SCF Done:  E(RwB97XD) =  -1301.70376367     A.U. after   11 cycles
 SCF Done:  E(RwB97XD) =  -1301.70374327     A.U. after   11 cycles
 SCF Done:  E(RwB97XD) =  -1301.70899580     A.U. after   10 cycles
 SCF Done:  E(RwB97XD) =  -1301.70903327     A.U. after   10 cycles
 SCF Done:  E(RwB97XD) =  -1301.70905603     A.U. after   10 cycles
 SCF Done:  E(RwB97XD) =  -1301.70906486     A.U. after   10 cycles
 SCF Done:  E(RwB97XD) =  -1301.70906536     A.U. after    9 cycles
 SCF Done:  E(RwB97XD) =  -1301.70906553     A.U. after    9 cycles
 SCF Done:  E(RwB97XD) =  -1301.70906562     A.U. after    9 cycles
 SCF Done:  E(RwB97XD) =  -1301.70906559     A.U. after    8 cycles
 SCF Done:  E(RwB97XD) =  -1301.70906561     A.U. after    7 cycles
 Optimization completed.
    -- Stationary point found.
 Normal termination of Gaussian 16 at Mon Feb 15 21:08:10 2021.

 ---------------------------------------------------------------------
 #N Geom=AllCheck Guess=TCheck SCRF=Check GenChk RwB97XD/def2TZVP Freq
 ---------------------------------------------------------------------

 Structure from the checkpoint file:  "/beegfs/scratch/user/q/tla25/Gau-40856.chk"
 ------------------------
 0_iteration/TS-595-0.out
 ------------------------
 Charge =  0 Multiplicity = 1

                         Standard orientation:
 ---------------------------------------------------------------------
 Center     Atomic      Atomic             Coordinates (Angstroms)
 Number     Number       Type             X           Y           Z
 ---------------------------------------------------------------------
      1          6           0       -0.831015    0.203717   -0.138207
      2          6           0       -1.373351   -1.114070    0.122224
      3          8           0       -0.636002   -2.097271    0.286299
      4          6           0        0.514544    0.449833   -0.365919
      5          6           0        2.907316   -0.119762    1.392074
      6          1           0        3.262771    0.908904    1.368388
      7          1           0        3.234945   -0.584136    2.324233
      8          1           0        3.341853   -0.663998    0.555585
      9          7           0        1.454561   -0.135393    1.265154
     10          1           0        1.065990   -1.075235    1.291607
     11          1           0        1.004523    0.414489    1.987292
     12          6           0        1.044359    1.845119   -0.506731
     13          1           0        0.638694    2.299241   -1.411792
     14          1           0        0.749979    2.453549    0.346645
     15          1           0        2.128800    1.832286   -0.584636
     16         17           0        1.359753   -0.654896   -1.492424
     17         17           0       -1.866940    1.590883    0.196307
     18          7           0       -2.720733   -1.251883    0.192537
     19          1           0       -3.338005   -0.463258    0.139465
     20          1           0       -3.087265   -2.133542    0.502334
 ---------------------------------------------------------------------

 SCF Done:  E(RwB97XD) =  -1301.70906561     A.U. after    1 cycles

 The electronic state is 1-A.
 Alpha  occ. eigenvalues -- -101.69461-101.69429 -19.20658 -14.47424 -14.44243
 Alpha  occ. eigenvalues --  -10.40505 -10.38841 -10.31489 -10.31258 -10.29220
 Alpha  occ. eigenvalues --   -9.58022  -9.57986  -7.32663  -7.32615  -7.31813
 Alpha  occ. eigenvalues --   -7.31790  -7.31762  -7.31749  -1.13302  -1.03462
 Alpha  occ. eigenvalues --   -1.00335  -0.98131  -0.94470  -0.85544  -0.81005
 Alpha  occ. eigenvalues --   -0.78336  -0.71433  -0.64544  -0.62624  -0.61106
 Alpha  occ. eigenvalues --   -0.58030  -0.56481  -0.55865  -0.54069  -0.51963
 Alpha  occ. eigenvalues --   -0.50190  -0.49975  -0.48345  -0.47524  -0.46688
 Alpha  occ. eigenvalues --   -0.44136  -0.42467  -0.41082  -0.39727  -0.38282
 Alpha  occ. eigenvalues --   -0.35305  -0.34161  -0.27448
 Alpha virt. eigenvalues --    0.03763   0.07955   0.10533   0.12060   0.13538
 Alpha virt. eigenvalues --    0.14575   0.15664   0.16380   0.18121   0.18261
 Alpha virt. eigenvalues --    0.19325   0.20070   0.20295   0.21511   0.22066

 Mulliken charges:
               1
     1  C   -0.193210
     2  C    0.334573
     3  O   -0.545863
     4  C    0.177616
     5  C   -0.281464
     6  H    0.153329
     7  H    0.150719
     8  H    0.144802
     9  N   -0.355619
    10  H    0.276607
    11  H    0.277594
    12  C   -0.382803
    13  H    0.161240
    14  H    0.148468
    15  H    0.155328
    16  Cl  -0.123983
    17  Cl  -0.168924
    18  N   -0.468427
    19  H    0.268719
    20  H    0.271298
 Sum of Mulliken charges =  -0.00000

 Dipole moment (field-independent basis, Debye):
    X=              2.3789    Y=              3.2523    Z=              4.1204  Tot=              5.7632
 Quadrupole moment (field-independent basis, Debye-Ang):
   XX=            -58.4767   YY=            -79.8955   ZZ=            -71.0045
   XY=              5.6013   XZ=              4.4186   YZ=             -1.4486

  Exact polarizability: 188.896  -2.670 144.196   4.142   2.004 123.701
 Approx polarizability: 143.408  -6.974 124.079   1.604   2.453 107.714

 ******    1 imaginary frequencies (negative Signs) ******

                      1                      2                      3
                      A                      A                      A
 Frequencies --   -360.3835                68.0772                80.7193
 Red. masses --      6.2496                 3.9947                 4.7094
 Frc consts  --      0.4782                 0.0109                 0.0181
 IR Inten    --    783.5971                13.1358                12.5604

                      4                      5                      6
                      A                      A                      A
 Frequencies --    105.8649               125.8090               162.0740
 Red. masses --      2.5894                 2.8154                 1.2779
 Frc consts  --      0.0171                 0.0263                 0.0198
 IR Inten    --      1.2842                42.7329               289.4190

                      7                      8                      9
                      A                      A                      A
 Frequencies --    179.0825               188.3076               216.2398
 Red. masses --      1.6358                 6.0838                 3.6541
 Frc consts  --      0.0309                 0.1271                 0.1007
 IR Inten    --      0.5018                 0.7377                20.3573

                     10                     11                     12
                      A                      A                      A
 Frequencies --    249.1310               263.2586               277.4807
 Red. masses --      2.8515                 3.1014                 1.5493
 Frc consts  --      0.1043                 0.1266                 0.0703
 IR Inten    --      3.3720                14.9932                 1.8952

                     13                     14                     15
                      A                      A                      A
 Frequencies --    324.0272               340.4295               375.0237
 Red. masses --      4.8034                 2.3872                 4.0300
 Frc consts  --      0.2971                 0.1630                 0.3339
 IR Inten    --     13.6961                 6.2582                11.3466

                     16                     17                     18
                      A                      A                      A
 Frequencies --    428.3700               479.1760               495.1789
 Red. masses --      6.5684                 3.5346                 4.1158
 Frc consts  --      0.7102                 0.4782                 0.5946
 IR Inten    --     48.2060                43.6510                90.2712

                     19                     20                     21
                      A                      A                      A
 Frequencies --    548.7458               628.9506               684.4126
 Red. masses --      1.2267                 2.6364                 1.5249
 Frc consts  --      0.2176                 0.6145                 0.4209
 IR Inten    --     15.1645                52.6743                 7.1123

                     22                     23                     24
                      A                      A                      A
 Frequencies --    752.0051               781.9420              1010.3234
 Red. masses --      3.7605                 9.3211                 2.4137
 Frc consts  --      1.2530                 3.3579                 1.4516
 IR Inten    --    168.3639                70.5021                52.7656

                     25                     26                     27
                      A                      A                      A
 Frequencies --   1018.7629              1030.8511              1046.3944
 Red. masses --      1.0944                 1.5751                 1.5355
 Frc consts  --      0.6692                 0.9862                 0.9906
 IR Inten    --     44.2033               185.9874                13.0829

                     28                     29                     30
                      A                      A                      A
 Frequencies --   1076.8077              1078.2639              1099.4296
 Red. masses --      2.1373                 2.1145                 2.4899
 Frc consts  --      1.4601                 1.4484                 1.7732
 IR Inten    --     47.6967                44.1458                76.8467

                     31                     32                     33
                      A                      A                      A
 Frequencies --   1149.8739              1209.3099              1344.7943
 Red. masses --      3.0944                 1.3914                 1.3157
 Frc consts  --      2.4106                 1.1989                 1.4019
 IR Inten    --     49.1744                34.8604                 5.3225

                     34                     35                     36
                      A                      A                      A
 Frequencies --   1394.7998              1415.2847              1445.9060
 Red. masses --      4.0361                 1.3180                 1.9193
 Frc consts  --      4.6264                 1.5555                 2.3641
 IR Inten    --    553.9028                76.1132               426.9270

                     37                     38                     39
                      A                      A                      A
 Frequencies --   1465.1241              1479.8405              1489.1024
 Red. masses --      1.4380                 1.0837                 1.1618
 Frc consts  --      1.8187                 1.3982                 1.5178
 IR Inten    --    227.5197                11.1563                81.3227

                     40                     41                     42
                      A                      A                      A
 Frequencies --   1494.6669              1505.5775              1596.8751
 Red. masses --      1.1125                 1.0451                 1.4249
 Frc consts  --      1.4644                 1.3957                 2.1408
 IR Inten    --     63.0006                17.3188               267.5674

                     43                     44                     45
                      A                      A                      A
 Frequencies --   1653.7268              1658.6838              3061.4932
 Red. masses --      1.3910                 2.4823                 1.0371
 Frc consts  --      2.2413                 4.0238                 5.7269
 IR Inten    --    269.8900               366.7465                61.2677

                     46                     47                     48
                      A                      A                      A
 Frequencies --   3075.9797              3138.1315              3153.3449
 Red. masses --      1.0367                 1.1002                 1.1010
 Frc consts  --      5.7792                 6.3838                 6.4501
 IR Inten    --      6.5931                17.4341                 9.0095

                     49                     50                     51
                      A                      A                      A
 Frequencies --   3167.7602              3175.0873              3489.2816
 Red. masses --      1.1053                 1.1039                 1.0554
 Frc consts  --      6.5348                 6.5569                 7.5707
 IR Inten    --     15.7780                 9.4943                50.8644

                     52                     53                     54
                      A                      A                      A
 Frequencies --   3590.6173              3632.0828              3759.4309
 Red. masses --      1.0925                 1.0453                 1.1054
 Frc consts  --      8.2984                 8.1249                 9.2044
 IR Inten    --     60.5171               100.4541                94.9012

 - Thermochemistry -
 -------------------
 Temperature   298.150 Kelvin.  Pressure   1.00000 Atm.
 Atom     1 has atomic number  6 and mass  12.00000

 Molecular mass:   184.01702 amu.
 Principal axes and moments of inertia in atomic units:
                           1         2         3
     Eigenvalues --  1511.107102442.419022906.32480
           X            0.99687   0.06891   0.03880
           Y           -0.06709   0.99666  -0.04658
           Z           -0.04188   0.04383   0.99816
 This molecule is an asymmetric top.
 Rotational symmetry number  1.
 Warning -- assumption of classical behavior for rotation
           may cause significant error
 Rotational temperatures (Kelvin)      0.05732     0.03546     0.02980
 Rotational constants (GHZ):           1.19432     0.73892     0.62097
    1 imaginary frequencies ignored.
 Zero-point vibrational energy     410689.4 (Joules/Mol)
                                   98.15713 (Kcal/Mol)
 Warning -- explicit consideration of  18 degrees of freedom as
           vibrations may cause significant error
 Vibrational temperatures:     97.95   116.14   152.32   181.01   233.19
          (Kelvin)            257.66   270.93   311.12   358.44   378.77
                              399.23   466.20   489.80   539.58   616.33
                              689.43   712.45   789.52   904.92   984.72
                             1081.97  1125.04  1453.63  1465.77  1483.16
                             1505.53  1549.29  1551.38  1581.83  1654.41
                             1739.93  1934.86  2006.81  2036.28  2080.34
                             2107.99  2129.16  2142.49  2150.49  2166.19
                             2297.55  2379.34  2386.48  4404.81  4425.65
                             4515.07  4536.96  4557.70  4568.24  5020.30
                             5166.10  5225.76  5408.98

 Zero-point correction=                           0.156423 (Hartree/Particle)
 Thermal correction to Energy=                    0.168765
 Thermal correction to Enthalpy=                  0.169709
 Thermal correction to Gibbs Free Energy=         0.117883
 Sum of electronic and zero-point Energies=          -1301.552642
 Sum of electronic and thermal Energies=             -1301.540300
 Sum of electronic and thermal Enthalpies=           -1301.539356
 Sum of electronic and thermal Free Energies=        -1301.591183

                     E (Thermal)             CV                S
                      KCal/Mol        Cal/Mol-Kelvin    Cal/Mol-Kelvin
 Total                  105.902             43.186            109.079
 Electronic               0.000              0.000              0.000
 Translational            0.889              2.981             41.536
 Rotational               0.889              2.981             30.751
 Vibrational            104.124             37.224             36.792
 Vibration     1          0.598              1.969              4.208
 Vibration     2          0.600              1.962              3.873
 Vibration     3          0.605              1.945              3.343
 Vibration     4          0.611              1.927              3.009
 Vibration     5          0.622              1.889              2.525
 Vibration     6          0.629              1.868              2.338
 Vibration     7          0.633              1.856              2.244
 Vibration     8          0.645              1.816              1.990
 Vibration     9          0.662              1.764              1.737
 Vibration    10          0.670              1.740              1.640
 Vibration    11          0.678              1.715              1.549
 Vibration    12          0.709              1.627              1.290
 Vibration    13          0.720              1.595              1.210
 Vibration    14          0.746              1.523              1.059
 Vibration    15          0.790              1.408              0.864
 Vibration    16          0.836              1.296              0.712
 Vibration    17          0.851              1.261              0.670
 Vibration    18          0.904              1.142              0.547

 Optimization completed.
    -- Stationary point found.
 Normal termination of Gaussian 16 at Mon Feb 15 21:21:05 2021.
