 Gaussian 16, Revision A.03,
 Gaussian 16:  ES64L-G16RevA.03 25-Dec-2016

 ----------------------------------------------------------------------
 # wB97XD def2tzvp, opt=(ts, noeigen, calcfc, maxcycles=70, maxstep=1),
  freq=noraman, scrf=(iefpcm, solvent=water)
 ----------------------------------------------------------------------

 ------------------------
 0_iteration/TS-531-0.out
 ------------------------
 Symbolic Z-matrix:
 Charge =  0 Multiplicity = 1

 SCF Done:  E(RwB97XD) =  -2956.10225165     A.U. after   15 cycles
 SCF Done:  E(RwB97XD) =  -2956.10232085     A.U. after   10 cycles
 SCF Done:  E(RwB97XD) =  -2956.10239074     A.U. after   10 cycles
 SCF Done:  E(RwB97XD) =  -2956.10245839     A.U. after   10 cycles
 SCF Done:  E(RwB97XD) =  -2956.10252355     A.U. after   10 cycles
 SCF Done:  E(RwB97XD) =  -2956.10258596     A.U. after   10 cycles
 SCF Done:  E(RwB97XD) =  -2956.10264534     A.U. after   10 cycles
 SCF Done:  E(RwB97XD) =  -2956.10270149     A.U. after   10 cycles
 SCF Done:  E(RwB97XD) =  -2956.10275425     A.U. after   10 cycles
 SCF Done:  E(RwB97XD) =  -2956.10280350     A.U. after   10 cycles
 SCF Done:  E(RwB97XD) =  -2956.10261299     A.U. after   10 cycles
 SCF Done:  E(RwB97XD) =  -2956.10260064     A.U. after   10 cycles
 SCF Done:  E(RwB97XD) =  -2956.10259332     A.U. after   10 cycles
 SCF Done:  E(RwB97XD) =  -2956.10259246     A.U. after   10 cycles
 SCF Done:  E(RwB97XD) =  -2956.10259296     A.U. after    8 cycles
 SCF Done:  E(RwB97XD) =  -2956.10259203     A.U. after   10 cycles
 SCF Done:  E(RwB97XD) =  -2956.10259284     A.U. after    9 cycles
 SCF Done:  E(RwB97XD) =  -2956.10259287     A.U. after    7 cycles
 SCF Done:  E(RwB97XD) =  -2956.10259292     A.U. after    6 cycles
 Optimization completed.
    -- Stationary point found.
 Normal termination of Gaussian 16 at Mon Feb 15 22:03:22 2021.

 ---------------------------------------------------------------------
 #N Geom=AllCheck Guess=TCheck SCRF=Check GenChk RwB97XD/def2TZVP Freq
 ---------------------------------------------------------------------

 Structure from the checkpoint file:  "/beegfs/scratch/user/q/tla25/Gau-88481.chk"
 ------------------------
 0_iteration/TS-531-0.out
 ------------------------
 Charge =  0 Multiplicity = 1

                         Standard orientation:
 ---------------------------------------------------------------------
 Center     Atomic      Atomic             Coordinates (Angstroms)
 Number     Number       Type             X           Y           Z
 ---------------------------------------------------------------------
      1          6           0        1.214815    0.521756    0.856755
      2          6           0        2.287745    0.155186   -0.028064
      3          8           0        3.466119    0.441311    0.226400
      4          6           0       -0.154831    0.411445    0.710952
      5          6           0       -2.063561    1.701309   -1.210194
      6          1           0       -2.117826    2.373685   -2.067314
      7          1           0       -2.448438    0.725367   -1.498009
      8          1           0       -2.674525    2.105198   -0.405975
      9          7           0       -0.684242    1.553513   -0.744221
     10          1           0       -0.072584    1.232393   -1.488117
     11          1           0       -0.307497    2.434735   -0.412160
     12          6           0       -1.037482    0.924737    1.814759
     13          1           0       -0.711023    1.922722    2.109443
     14          1           0       -2.083106    0.964253    1.518296
     15          1           0       -0.954890    0.262675    2.676703
     16         35           0       -0.929949   -1.278957    0.000046
     17          1           0        1.530687    1.132845    1.693792
     18          7           0        2.000594   -0.461946   -1.226447
     19          1           0        1.160328   -1.011113   -1.306179
     20          1           0        2.803572   -0.837333   -1.703851
 ---------------------------------------------------------------------

 SCF Done:  E(RwB97XD) =  -2956.10259292     A.U. after    1 cycles

 The electronic state is 1-A.
 Alpha  occ. eigenvalues -- -483.12925 -62.67781 -56.46875 -56.46553 -56.46543
 Alpha  occ. eigenvalues --  -19.19510 -14.48986 -14.43385 -10.40013 -10.37542
 Alpha  occ. eigenvalues --  -10.31982 -10.29230 -10.25184  -8.81887  -6.63965
 Alpha  occ. eigenvalues --   -6.62948  -6.62915  -2.74357  -2.74076  -2.74049
 Alpha  occ. eigenvalues --   -2.73228  -2.73227  -1.11957  -1.04400  -0.98837
 Alpha  occ. eigenvalues --   -0.93503  -0.85206  -0.81336  -0.79095  -0.69337
 Alpha  occ. eigenvalues --   -0.64337  -0.63553  -0.60848  -0.58315  -0.55831
 Alpha  occ. eigenvalues --   -0.55122  -0.52449  -0.50253  -0.50139  -0.48788
 Alpha  occ. eigenvalues --   -0.48405  -0.47026  -0.43801  -0.43146  -0.37805
 Alpha  occ. eigenvalues --   -0.37458  -0.35237  -0.33427  -0.27876
 Alpha virt. eigenvalues --    0.04088   0.06027   0.09810   0.13580   0.14103
 Alpha virt. eigenvalues --    0.14800   0.16054   0.17488   0.17853   0.18689
 Alpha virt. eigenvalues --    0.19293   0.19813   0.20691   0.21115   0.22084

 Mulliken charges:
               1
     1  C   -0.421955
     2  C    0.322245
     3  O   -0.547085
     4  C    0.137046
     5  C   -0.281833
     6  H    0.158947
     7  H    0.152266
     8  H    0.156131
     9  N   -0.313471
    10  H    0.275881
    11  H    0.283856
    12  C   -0.381045
    13  H    0.153251
    14  H    0.153654
    15  H    0.159769
    16  Br  -0.164061
    17  H    0.129564
    18  N   -0.482628
    19  H    0.252168
    20  H    0.257302
 Sum of Mulliken charges =   0.00000

 Dipole moment (field-independent basis, Debye):
    X=             -9.1192    Y=              3.3454    Z=             -3.1692  Tot=             10.2174
 Quadrupole moment (field-independent basis, Debye-Ang):
   XX=            -91.5576   YY=            -59.1450   ZZ=            -61.6176
   XY=            -11.5325   XZ=             -4.7506   YZ=              0.7486

  Exact polarizability: 182.905   0.314 137.876  10.007   4.778 131.148
 Approx polarizability: 138.422   3.010 114.121   7.952   5.079 109.901

 ******    1 imaginary frequencies (negative Signs) ******

                      1                      2                      3
                      A                      A                      A
 Frequencies --   -393.4202                50.2433                81.2877
 Red. masses --      5.4286                 2.2339                 5.0911
 Frc consts  --      0.4950                 0.0033                 0.0198
 IR Inten    --    616.8249                 3.8569                17.7178

                      4                      5                      6
                      A                      A                      A
 Frequencies --    101.7116               157.6394               173.5015
 Red. masses --      2.9053                 6.0456                 1.6534
 Frc consts  --      0.0177                 0.0885                 0.0293
 IR Inten    --      5.2023                10.5040                 2.1500

                      7                      8                      9
                      A                      A                      A
 Frequencies --    201.1844               239.6952               268.5633
 Red. masses --      1.9884                 1.3067                 2.1841
 Frc consts  --      0.0474                 0.0442                 0.0928
 IR Inten    --      6.2873                 2.1451                 9.5902

                     10                     11                     12
                      A                      A                      A
 Frequencies --    291.2913               292.4464               362.6306
 Red. masses --      4.5600                 3.2157                 3.5629
 Frc consts  --      0.2280                 0.1620                 0.2760
 IR Inten    --     12.2698                 8.9049                 9.1941

                     13                     14                     15
                      A                      A                      A
 Frequencies --    402.1345               447.5666               496.0691
 Red. masses --      3.3728                 2.3445                 1.2130
 Frc consts  --      0.3214                 0.2767                 0.1759
 IR Inten    --     49.9714                67.0507               370.7263

                     16                     17                     18
                      A                      A                      A
 Frequencies --    527.9241               573.5769               621.2707
 Red. masses --      1.2468                 3.3966                 3.1537
 Frc consts  --      0.2047                 0.6584                 0.7172
 IR Inten    --     57.2811                88.0012                17.3570

                     19                     20                     21
                      A                      A                      A
 Frequencies --    663.1985               701.8127               801.0679
 Red. masses --      1.3970                 1.3640                 6.6897
 Frc consts  --      0.3620                 0.3958                 2.5293
 IR Inten    --     62.4184                48.9343               120.2627

                     22                     23                     24
                      A                      A                      A
 Frequencies --    915.9830              1016.3721              1030.6726
 Red. masses --      3.2405                 1.2565                 1.8652
 Frc consts  --      1.6019                 0.7647                 1.1674
 IR Inten    --     21.9308                32.3537               265.8493

                     25                     26                     27
                      A                      A                      A
 Frequencies --   1051.3673              1061.6428              1081.4150
 Red. masses --      1.5556                 1.4570                 1.6753
 Frc consts  --      1.0131                 0.9675                 1.1543
 IR Inten    --     10.4417                25.0371                94.0430

                     28                     29                     30
                      A                      A                      A
 Frequencies --   1097.6082              1139.5106              1239.2507
 Red. masses --      2.1269                 2.0834                 1.3705
 Frc consts  --      1.5097                 1.5939                 1.2401
 IR Inten    --     37.4879                60.9793                45.9734

                     31                     32                     33
                      A                      A                      A
 Frequencies --   1274.4234              1344.3748              1385.0421
 Red. masses --      1.3704                 1.3285                 3.7082
 Frc consts  --      1.3114                 1.4146                 4.1912
 IR Inten    --    406.3521                17.0229               336.1864

                     34                     35                     36
                      A                      A                      A
 Frequencies --   1416.1918              1457.8399              1475.2766
 Red. masses --      1.2367                 1.1965                 1.1157
 Frc consts  --      1.4614                 1.4982                 1.4307
 IR Inten    --     13.6617                28.0510                41.9742

                     37                     38                     39
                      A                      A                      A
 Frequencies --   1482.7540              1492.5729              1503.6476
 Red. masses --      1.0999                 1.0569                 1.6251
 Frc consts  --      1.4248                 1.3872                 2.1648
 IR Inten    --     43.8666                23.9079               303.2640

                     40                     41                     42
                      A                      A                      A
 Frequencies --   1509.7865              1618.4397              1643.7063
 Red. masses --      1.4595                 1.4771                 1.1938
 Frc consts  --      1.9601                 2.2795                 1.9003
 IR Inten    --    229.7064               505.2408               321.6879

                     43                     44                     45
                      A                      A                      A
 Frequencies --   1656.6756              3071.1058              3071.9233
 Red. masses --      2.6573                 1.0362                 1.0360
 Frc consts  --      4.2970                 5.7582                 5.7599
 IR Inten    --    691.4742                15.0531                36.1786

                     46                     47                     48
                      A                      A                      A
 Frequencies --   3148.9266              3150.7878              3167.1883
 Red. masses --      1.1028                 1.1020                 1.1024
 Frc consts  --      6.4427                 6.4455                 6.5154
 IR Inten    --      8.9354                13.3130                12.5359

                     49                     50                     51
                      A                      A                      A
 Frequencies --   3177.6837              3190.6985              3510.3628
 Red. masses --      1.1057                 1.0871                 1.0520
 Frc consts  --      6.5785                 6.5204                 7.6380
 IR Inten    --     11.3861                 5.1656                25.5403

                     52                     53                     54
                      A                      A                      A
 Frequencies --   3584.2530              3589.9094              3699.4879
 Red. masses --      1.0488                 1.0942                 1.1009
 Frc consts  --      7.9384                 8.3083                 8.8775
 IR Inten    --     54.6766                40.5480               114.9113

 - Thermochemistry -
 -------------------
 Temperature   298.150 Kelvin.  Pressure   1.00000 Atm.
 Atom     1 has atomic number  6 and mass  12.00000

 Molecular mass:   194.00547 amu.
 Principal axes and moments of inertia in atomic units:
                           1         2         3
     Eigenvalues --  1328.534082280.385292664.04233
           X            0.99405  -0.10878  -0.00503
           Y            0.10884   0.99400   0.01122
           Z            0.00378  -0.01170   0.99992
 This molecule is an asymmetric top.
 Rotational symmetry number  1.
 Warning -- assumption of classical behavior for rotation
           may cause significant error
 Rotational temperatures (Kelvin)      0.06520     0.03798     0.03251
 Rotational constants (GHZ):           1.35845     0.79142     0.67744
    1 imaginary frequencies ignored.
 Zero-point vibrational energy     434912.5 (Joules/Mol)
                                  103.94659 (Kcal/Mol)
 Warning -- explicit consideration of  16 degrees of freedom as
           vibrations may cause significant error
 Vibrational temperatures:     72.29   116.95   146.34   226.81   249.63
          (Kelvin)            289.46   344.87   386.40   419.10   420.77
                              521.74   578.58   643.95   713.73   759.56
                              825.25   893.87   954.19  1009.75  1152.56
                             1317.90  1462.33  1482.91  1512.68  1527.47
                             1555.92  1579.21  1639.50  1783.01  1833.61
                             1934.26  1992.77  2037.58  2097.51  2122.59
                             2133.35  2147.48  2163.41  2172.25  2328.57
                             2364.93  2383.59  4418.64  4419.81  4530.60
                             4533.28  4556.88  4571.98  4590.70  5050.63
                             5156.94  5165.08  5322.74

 Zero-point correction=                           0.165649 (Hartree/Particle)
 Thermal correction to Energy=                    0.176769
 Thermal correction to Enthalpy=                  0.177713
 Thermal correction to Gibbs Free Energy=         0.128090
 Sum of electronic and zero-point Energies=          -2955.936943
 Sum of electronic and thermal Energies=             -2955.925824
 Sum of electronic and thermal Enthalpies=           -2955.924880
 Sum of electronic and thermal Free Energies=        -2955.974502

                     E (Thermal)             CV                S
                      KCal/Mol        Cal/Mol-Kelvin    Cal/Mol-Kelvin
 Total                  110.924             39.562            104.440
 Electronic               0.000              0.000              0.000
 Translational            0.889              2.981             41.693
 Rotational               0.889              2.981             30.468
 Vibrational            109.147             33.600             32.278
 Vibration     1          0.595              1.977              4.808
 Vibration     2          0.600              1.962              3.860
 Vibration     3          0.604              1.948              3.421
 Vibration     4          0.621              1.894              2.578
 Vibration     5          0.627              1.875              2.397
 Vibration     6          0.638              1.838              2.122
 Vibration     7          0.657              1.780              1.805
 Vibration     8          0.673              1.731              1.605
 Vibration     9          0.687              1.690              1.466
 Vibration    10          0.688              1.688              1.460
 Vibration    11          0.736              1.549              1.111
 Vibration    12          0.768              1.466              0.955
 Vibration    13          0.807              1.366              0.803
 Vibration    14          0.852              1.259              0.668
 Vibration    15          0.883              1.188              0.592
 Vibration    16          0.930              1.088              0.497

 Optimization completed.
    -- Stationary point found.
 Normal termination of Gaussian 16 at Mon Feb 15 22:14:53 2021.
