 Gaussian 16, Revision A.03,
 Gaussian 16:  ES64L-G16RevA.03 25-Dec-2016

 ----------------------------------------------------------------------
 # wB97XD def2tzvp, opt=(ts, noeigen, calcfc, maxcycles=70, maxstep=1),
  freq=noraman, scrf=(iefpcm, solvent=water)
 ----------------------------------------------------------------------

 ------------------------
 0_iteration/TS-510-0.out
 ------------------------
 Symbolic Z-matrix:
 Charge =  0 Multiplicity = 1

 SCF Done:  E(RwB97XD) =  -3074.02477346     A.U. after   16 cycles
 SCF Done:  E(RwB97XD) =  -3074.02467259     A.U. after   10 cycles
 SCF Done:  E(RwB97XD) =  -3074.02457794     A.U. after   11 cycles
 SCF Done:  E(RwB97XD) =  -3074.02448924     A.U. after   11 cycles
 SCF Done:  E(RwB97XD) =  -3074.02440659     A.U. after   11 cycles
 SCF Done:  E(RwB97XD) =  -3074.02432913     A.U. after   11 cycles
 SCF Done:  E(RwB97XD) =  -3074.02425545     A.U. after   11 cycles
 SCF Done:  E(RwB97XD) =  -3074.02418523     A.U. after   11 cycles
 SCF Done:  E(RwB97XD) =  -3074.02411856     A.U. after   11 cycles
 SCF Done:  E(RwB97XD) =  -3074.02405556     A.U. after   11 cycles
 SCF Done:  E(RwB97XD) =  -3074.02371315     A.U. after   10 cycles
 SCF Done:  E(RwB97XD) =  -3074.02371240     A.U. after   11 cycles
 SCF Done:  E(RwB97XD) =  -3074.02371324     A.U. after   11 cycles
 SCF Done:  E(RwB97XD) =  -3074.02371444     A.U. after    9 cycles
 SCF Done:  E(RwB97XD) =  -3074.02371409     A.U. after   10 cycles
 SCF Done:  E(RwB97XD) =  -3074.02371495     A.U. after   10 cycles
 SCF Done:  E(RwB97XD) =  -3074.02371489     A.U. after   10 cycles
 SCF Done:  E(RwB97XD) =  -3074.02371508     A.U. after    9 cycles
 SCF Done:  E(RwB97XD) =  -3074.02371503     A.U. after    7 cycles
 Optimization completed.
    -- Stationary point found.
 Normal termination of Gaussian 16 at Tue Feb 16 02:09:05 2021.

 ---------------------------------------------------------------------
 #N Geom=AllCheck Guess=TCheck SCRF=Check GenChk RwB97XD/def2TZVP Freq
 ---------------------------------------------------------------------

 Structure from the checkpoint file:  "/beegfs/scratch/user/q/tla25/Gau-22740.chk"
 ------------------------
 0_iteration/TS-510-0.out
 ------------------------
 Charge =  0 Multiplicity = 1

                         Standard orientation:
 ---------------------------------------------------------------------
 Center     Atomic      Atomic             Coordinates (Angstroms)
 Number     Number       Type             X           Y           Z
 ---------------------------------------------------------------------
      1          6           0        0.016027    0.348131    0.485876
      2          6           0        1.160703    0.224463   -0.462474
      3          8           0        1.022500    0.267552   -1.696863
      4          6           0       -0.727724   -0.869474    0.680487
      5          6           0       -1.817740   -2.726976   -1.166420
      6          1           0       -2.278787   -2.793657   -2.151623
      7          1           0       -0.958031   -3.390602   -1.131191
      8          1           0       -2.541643   -3.034387   -0.414680
      9          7           0       -1.383610   -1.351756   -0.898695
     10          1           0       -0.640876   -1.057922   -1.536360
     11          1           0       -2.150353   -0.702856   -1.045915
     12          6           0       -1.979737   -0.809722    1.532666
     13          1           0       -1.684559   -0.616926    2.564525
     14          1           0       -2.652362   -0.013908    1.218114
     15          1           0       -2.517966   -1.758015    1.510115
     16          6           0        0.137078   -2.062179    1.062482
     17          1           0        0.580961   -1.874151    2.039150
     18          1           0       -0.465651   -2.966244    1.140805
     19          1           0        0.942423   -2.240693    0.350737
     20         35           0       -1.100623    1.874992   -0.076761
     21          7           0        2.383999   -0.005898    0.073179
     22          6           0        2.699218    0.074551    1.483129
     23          6           0        3.505558   -0.324386   -0.785927
     24          1           0        1.838384    0.460163    2.020441
     25          1           0        2.958903   -0.911796    1.878095
     26          1           0        3.557056    0.736721    1.627861
     27          1           0        3.144406   -0.607702   -1.769409
     28          1           0        4.175289    0.534568   -0.888064
     29          1           0        4.071608   -1.150613   -0.351375
 ---------------------------------------------------------------------

 SCF Done:  E(RwB97XD) =  -3074.02371503     A.U. after    1 cycles

 The electronic state is 1-A.
 Alpha  occ. eigenvalues -- -483.10260 -62.65100 -56.44175 -56.43887 -56.43873
 Alpha  occ. eigenvalues --  -19.20514 -14.49609 -14.46201 -10.37794 -10.35366
 Alpha  occ. eigenvalues --  -10.32285 -10.30352 -10.30267 -10.28131 -10.27745
 Alpha  occ. eigenvalues --  -10.27648  -8.79209  -6.61222  -6.60311  -6.60268
 Alpha  occ. eigenvalues --   -2.71627  -2.71375  -2.71340  -2.70602  -2.70601
 Alpha  occ. eigenvalues --   -1.13221  -1.05335  -1.03172  -0.92514  -0.86202
 Alpha  occ. eigenvalues --   -0.82162  -0.80440  -0.80130  -0.79187  -0.74518
 Alpha  occ. eigenvalues --   -0.65773  -0.63724  -0.61591  -0.59866  -0.57118
 Alpha  occ. eigenvalues --   -0.56341  -0.55743  -0.54675  -0.52148  -0.51471
 Alpha  occ. eigenvalues --   -0.49985  -0.48553  -0.48338  -0.48095  -0.47305
 Alpha  occ. eigenvalues --   -0.46655  -0.46052  -0.45621  -0.44350  -0.42813
 Alpha  occ. eigenvalues --   -0.41366  -0.38097  -0.35272  -0.33885  -0.32110
 Alpha  occ. eigenvalues --   -0.24723
 Alpha virt. eigenvalues --    0.06369   0.09706   0.11340   0.12129   0.12768
 Alpha virt. eigenvalues --    0.13988   0.14954   0.16098   0.16193   0.16556
 Alpha virt. eigenvalues --    0.18173   0.18827   0.19087   0.19235   0.19724

 Mulliken charges:
               1
     1  C   -0.187448
     2  C    0.189198
     3  O   -0.546200
     4  C    0.038541
     5  C   -0.312183
     6  H    0.162570
     7  H    0.168982
     8  H    0.159131
     9  N   -0.235938
    10  H    0.267769
    11  H    0.281662
    12  C   -0.338582
    13  H    0.139761
    14  H    0.139218
    15  H    0.130368
    16  C   -0.435779
    17  H    0.155113
    18  H    0.157190
    19  H    0.162579
    20  Br  -0.283135
    21  N   -0.093654
    22  C   -0.303142
    23  C   -0.278659
    24  H    0.162547
    25  H    0.144134
    26  H    0.138338
    27  H    0.144209
    28  H    0.139185
    29  H    0.134228
 Sum of Mulliken charges =  -0.00000

 Dipole moment (field-independent basis, Debye):
    X=             -1.2218    Y=             -8.9422    Z=              1.1352  Tot=              9.0964
 Quadrupole moment (field-independent basis, Debye-Ang):
   XX=            -71.9243   YY=            -83.9224   ZZ=            -90.5446
   XY=              7.9304   XZ=              7.5237   YZ=              3.9782

  Exact polarizability: 203.734  -1.438 194.445  12.490  -0.171 175.829
 Approx polarizability: 158.164  -2.386 154.452  10.387  -0.565 150.687

 ******    1 imaginary frequencies (negative Signs) ******

                      1                      2                      3
                      A                      A                      A
 Frequencies --   -331.3025                31.0493                52.4160
 Red. masses --      5.8221                 6.0894                 3.1672
 Frc consts  --      0.3765                 0.0035                 0.0051
 IR Inten    --    557.4884                18.3468                 3.3776

                      4                      5                      6
                      A                      A                      A
 Frequencies --     64.0810                86.7213               106.1435
 Red. masses --      1.1520                 2.6777                 2.4189
 Frc consts  --      0.0028                 0.0119                 0.0161
 IR Inten    --      0.1773                 3.5995                 3.3193

                      7                      8                      9
                      A                      A                      A
 Frequencies --    133.5725               175.7301               186.5825
 Red. masses --      3.2243                 3.0433                 3.1105
 Frc consts  --      0.0339                 0.0554                 0.0638
 IR Inten    --     28.5102                16.6211                 5.1325

                     10                     11                     12
                      A                      A                      A
 Frequencies --    206.4541               210.8855               223.7163
 Red. masses --      1.3143                 1.6278                 1.6209
 Frc consts  --      0.0330                 0.0427                 0.0478
 IR Inten    --      1.3333                 3.5785                 4.0378

                     13                     14                     15
                      A                      A                      A
 Frequencies --    244.0633               259.8623               272.7935
 Red. masses --      1.2652                 2.7328                 1.7075
 Frc consts  --      0.0444                 0.1087                 0.0749
 IR Inten    --      0.4978                18.4117                15.2325

                     16                     17                     18
                      A                      A                      A
 Frequencies --    299.6169               306.3933               362.0664
 Red. masses --      2.1538                 1.9326                 2.6461
 Frc consts  --      0.1139                 0.1069                 0.2044
 IR Inten    --     10.6564                11.1836                29.3320

                     19                     20                     21
                      A                      A                      A
 Frequencies --    386.6808               405.8912               420.9595
 Red. masses --      2.9970                 2.6580                 2.7083
 Frc consts  --      0.2640                 0.2580                 0.2828
 IR Inten    --     15.8891                 7.6934                 8.0598

                     22                     23                     24
                      A                      A                      A
 Frequencies --    457.0338               507.3882               620.6433
 Red. masses --      2.9451                 3.3329                 6.2737
 Frc consts  --      0.3624                 0.5055                 1.4238
 IR Inten    --     46.2109                11.6712                63.2280

                     25                     26                     27
                      A                      A                      A
 Frequencies --    674.1108               733.8037               771.7479
 Red. masses --      7.0609                 6.2590                 1.2352
 Frc consts  --      1.8905                 1.9857                 0.4335
 IR Inten    --     78.5967                 4.6682                33.3260

                     28                     29                     30
                      A                      A                      A
 Frequencies --    849.7081               883.5334               962.6323
 Red. masses --      6.1016                 4.1239                 1.3763
 Frc consts  --      2.5956                 1.8967                 0.7514
 IR Inten    --     24.6561                76.1622                 2.5946

                     31                     32                     33
                      A                      A                      A
 Frequencies --    996.5484              1018.6598              1054.1257
 Red. masses --      2.1655                 1.3120                 2.5481
 Frc consts  --      1.2671                 0.8021                 1.6682
 IR Inten    --     26.7353                18.1797                28.3435

                     34                     35                     36
                      A                      A                      A
 Frequencies --   1060.5819              1070.4792              1076.5194
 Red. masses --      1.3157                 1.4420                 1.5401
 Frc consts  --      0.8720                 0.9736                 1.0516
 IR Inten    --     24.8446                27.8622                 7.5836

                     37                     38                     39
                      A                      A                      A
 Frequencies --   1110.1169              1130.7954              1132.1940
 Red. masses --      1.3710                 1.5952                 1.3614
 Frc consts  --      0.9955                 1.2018                 1.0282
 IR Inten    --    208.2681                32.1121                 9.4861

                     40                     41                     42
                      A                      A                      A
 Frequencies --   1178.0999              1192.0919              1254.2443
 Red. masses --      1.5385                 2.3208                 3.2156
 Frc consts  --      1.2581                 1.9432                 2.9804
 IR Inten    --     31.8701               205.2585                 3.1188

                     43                     44                     45
                      A                      A                      A
 Frequencies --   1303.3777              1313.0686              1344.2948
 Red. masses --      2.0271                 2.6800                 1.8001
 Frc consts  --      2.0290                 2.7224                 1.9166
 IR Inten    --     64.1487                78.3367               160.9305

                     46                     47                     48
                      A                      A                      A
 Frequencies --   1367.6494              1411.2380              1423.1798
 Red. masses --      1.6700                 1.2998                 1.2914
 Frc consts  --      1.8404                 1.5252                 1.5411
 IR Inten    --    212.8077                31.0943                21.4987

                     49                     50                     51
                      A                      A                      A
 Frequencies --   1424.1485              1433.9616              1457.5617
 Red. masses --      1.2874                 1.4272                 1.4045
 Frc consts  --      1.5384                 1.7290                 1.7580
 IR Inten    --     43.4529                96.3254                85.2606

                     52                     53                     54
                      A                      A                      A
 Frequencies --   1464.8977              1478.2459              1483.9148
 Red. masses --      1.1883                 1.0459                 1.0554
 Frc consts  --      1.5024                 1.3466                 1.3693
 IR Inten    --     16.9967                 1.3813                16.9948

                     55                     56                     57
                      A                      A                      A
 Frequencies --   1486.6751              1490.4162              1496.4213
 Red. masses --      1.0561                 1.0524                 1.0551
 Frc consts  --      1.3753                 1.3774                 1.3920
 IR Inten    --      7.8549                14.7364                36.9148

                     58                     59                     60
                      A                      A                      A
 Frequencies --   1499.6723              1504.0722              1510.2191
 Red. masses --      1.0415                 1.0557                 1.0702
 Frc consts  --      1.3801                 1.4071                 1.4381
 IR Inten    --      6.0394                 8.8217                 8.4107

                     61                     62                     63
                      A                      A                      A
 Frequencies --   1513.5206              1539.7175              1619.0390
 Red. masses --      1.0522                 1.6114                 6.2091
 Frc consts  --      1.4201                 2.2507                 9.5894
 IR Inten    --     14.2446               144.1817               632.6399

                     64                     65                     66
                      A                      A                      A
 Frequencies --   1657.0837              3033.6638              3042.1958
 Red. masses --      1.0858                 1.0376                 1.0408
 Frc consts  --      1.7567                 5.6260                 5.6754
 IR Inten    --     85.0716                81.1101               116.9094

                     67                     68                     69
                      A                      A                      A
 Frequencies --   3067.7243              3073.2816              3079.2355
 Red. masses --      1.0363                 1.0361                 1.0346
 Frc consts  --      5.7458                 5.7656                 5.7799
 IR Inten    --     19.2847                25.3888                47.6838

                     70                     71                     72
                      A                      A                      A
 Frequencies --   3088.5987              3102.8216              3140.9928
 Red. masses --      1.1037                 1.1013                 1.1020
 Frc consts  --      6.2032                 6.2472                 6.4057
 IR Inten    --     68.2623                26.8516                21.8662

                     73                     74                     75
                      A                      A                      A
 Frequencies --   3151.2125              3155.9181              3158.0539
 Red. masses --      1.1027                 1.1028                 1.1034
 Frc consts  --      6.4515                 6.4714                 6.4839
 IR Inten    --     30.9075                19.5723                 3.8888

                     76                     77                     78
                      A                      A                      A
 Frequencies --   3159.3353              3177.3895              3183.6309
 Red. masses --      1.1028                 1.0983                 1.1062
 Frc consts  --      6.4857                 6.5330                 6.6059
 IR Inten    --     29.0795                 0.6150                11.5500

                     79                     80                     81
                      A                      A                      A
 Frequencies --   3185.1635              3420.8686              3552.6271
 Red. masses --      1.0985                 1.0656                 1.0831
 Frc consts  --      6.5664                 7.3468                 8.0542
 IR Inten    --      5.8750               140.6536                60.7700

 - Thermochemistry -
 -------------------
 Temperature   298.150 Kelvin.  Pressure   1.00000 Atm.
 Atom     1 has atomic number  6 and mass  12.00000

 Molecular mass:   236.05242 amu.
 Principal axes and moments of inertia in atomic units:
                           1         2         3
     Eigenvalues --  2522.771683125.539894215.60483
           X            0.97667   0.21456   0.00902
           Y           -0.21465   0.97663   0.01055
           Z           -0.00654  -0.01224   0.99990
 This molecule is an asymmetric top.
 Rotational symmetry number  1.
 Warning -- assumption of classical behavior for rotation
           may cause significant error
 Rotational temperatures (Kelvin)      0.03433     0.02771     0.02055
 Rotational constants (GHZ):           0.71538     0.57742     0.42811
    1 imaginary frequencies ignored.
 Zero-point vibrational energy     658938.0 (Joules/Mol)
                                  157.48996 (Kcal/Mol)
 Warning -- explicit consideration of  23 degrees of freedom as
           vibrations may cause significant error
 Vibrational temperatures:     44.67    75.41    92.20   124.77   152.72
          (Kelvin)            192.18   252.84   268.45   297.04   303.42
                              321.88   351.15   373.88   392.49   431.08
                              440.83   520.93   556.35   583.99   605.67
                              657.57   730.02   892.97   969.90  1055.78
                             1110.37  1222.54  1271.21  1385.01  1433.81
                             1465.62  1516.65  1525.94  1540.18  1548.87
                             1597.21  1626.96  1628.97  1695.02  1715.15
                             1804.58  1875.27  1889.21  1934.14  1967.74
                             2030.46  2047.64  2049.03  2063.15  2097.11
                             2107.66  2126.87  2135.02  2138.99  2144.38
                             2153.02  2157.69  2164.02  2172.87  2177.62
                             2215.31  2329.44  2384.17  4364.77  4377.04
                             4413.77  4421.77  4430.33  4443.80  4464.27
                             4519.19  4533.89  4540.66  4543.74  4545.58
                             4571.55  4580.53  4582.74  4921.87  5111.44

 Zero-point correction=                           0.250976 (Hartree/Particle)
 Thermal correction to Energy=                    0.266332
 Thermal correction to Enthalpy=                  0.267277
 Thermal correction to Gibbs Free Energy=         0.207623
 Sum of electronic and zero-point Energies=          -3073.772739
 Sum of electronic and thermal Energies=             -3073.757383
 Sum of electronic and thermal Enthalpies=           -3073.756438
 Sum of electronic and thermal Free Energies=        -3073.816092

                     E (Thermal)             CV                S
                      KCal/Mol        Cal/Mol-Kelvin    Cal/Mol-Kelvin
 Total                  167.126             54.145            125.552
 Electronic               0.000              0.000              0.000
 Translational            0.889              2.981             42.278
 Rotational               0.889              2.981             31.875
 Vibrational            165.349             48.184             51.399
 Vibration     1          0.594              1.983              5.761
 Vibration     2          0.596              1.977              4.724
 Vibration     3          0.597              1.971              4.327
 Vibration     4          0.601              1.958              3.733
 Vibration     5          0.605              1.944              3.338
 Vibration     6          0.613              1.920              2.894
 Vibration     7          0.628              1.872              2.373
 Vibration     8          0.632              1.858              2.262
 Vibration     9          0.641              1.831              2.075
 Vibration    10          0.643              1.824              2.036
 Vibration    11          0.649              1.805              1.929
 Vibration    12          0.659              1.773              1.773
 Vibration    13          0.668              1.746              1.663
 Vibration    14          0.676              1.723              1.578
 Vibration    15          0.692              1.674              1.419
 Vibration    16          0.697              1.662              1.382
 Vibration    17          0.736              1.550              1.113
 Vibration    18          0.755              1.499              1.013
 Vibration    19          0.771              1.457              0.941
 Vibration    20          0.783              1.425              0.889
 Vibration    21          0.815              1.345              0.775
 Vibration    22          0.863              1.234              0.640
 Vibration    23          0.981              0.988              0.415

 Optimization completed.
    -- Stationary point found.
 Normal termination of Gaussian 16 at Tue Feb 16 02:48:59 2021.
