 Gaussian 16, Revision A.03,
 Gaussian 16:  ES64L-G16RevA.03 25-Dec-2016

 ----------------------------------------------------------------------
 # wB97XD def2tzvp, opt=(ts, noeigen, calcfc, maxcycles=70, maxstep=8),
  freq=noraman, scrf=(iefpcm, solvent=water)
 ----------------------------------------------------------------------

 ------------------------
 1_iteration/TS-596-1.out
 ------------------------
 Symbolic Z-matrix:
 Charge =  0 Multiplicity = 1

 SCF Done:  E(RwB97XD) =  -1360.87601857     A.U. after   14 cycles
 SCF Done:  E(RwB97XD) =  -1360.87832063     A.U. after   13 cycles
 SCF Done:  E(RwB97XD) =  -1360.88016939     A.U. after   13 cycles
 SCF Done:  E(RwB97XD) =  -1360.88060423     A.U. after   13 cycles
 SCF Done:  E(RwB97XD) =  -1360.88064495     A.U. after   11 cycles
 SCF Done:  E(RwB97XD) =  -1360.88064071     A.U. after   10 cycles
 SCF Done:  E(RwB97XD) =  -1360.88057861     A.U. after   11 cycles
 SCF Done:  E(RwB97XD) =  -1360.88064832     A.U. after   11 cycles
 SCF Done:  E(RwB97XD) =  -1360.88065016     A.U. after    9 cycles
 SCF Done:  E(RwB97XD) =  -1360.88064834     A.U. after   10 cycles
 SCF Done:  E(RwB97XD) =  -1360.88065032     A.U. after   10 cycles
 Optimization completed.
    -- Stationary point found.
 Normal termination of Gaussian 16 at Tue Feb 16 15:26:19 2021.

 ---------------------------------------------------------------------
 #N Geom=AllCheck Guess=TCheck SCRF=Check GenChk RwB97XD/def2TZVP Freq
 ---------------------------------------------------------------------

 Structure from the checkpoint file:  "/beegfs/scratch/user/q/tla25/Gau-39369.chk"
 ------------------------
 1_iteration/TS-596-1.out
 ------------------------
 Charge =  0 Multiplicity = 1

                         Standard orientation:
 ---------------------------------------------------------------------
 Center     Atomic      Atomic             Coordinates (Angstroms)
 Number     Number       Type             X           Y           Z
 ---------------------------------------------------------------------
      1          6           0        0.025428    0.714327   -0.327146
      2          6           0       -1.393226    0.551588   -0.127084
      3          8           0       -2.226981    1.436032   -0.173999
      4          6           0        0.985015   -0.283449   -0.412096
      5          6           0        1.205329   -0.278915    2.443906
      6          1           0        0.527182    0.557423    2.266559
      7          1           0        0.956255   -0.735436    3.402212
      8          1           0        2.226561    0.094455    2.482115
      9          7           0        1.070380   -1.220013    1.342456
     10          1           0        0.165599   -1.676811    1.353667
     11          1           0        1.792579   -1.930464    1.343799
     12          6           0        2.436158    0.059689   -0.583006
     13          1           0        2.583941    0.526795   -1.557656
     14          1           0        2.755825    0.763808    0.182716
     15          1           0        3.048251   -0.837413   -0.531837
     16         17           0        0.580745   -1.753191   -1.346504
     17         17           0        0.569672    2.381273   -0.270266
     18          8           0       -1.724395   -0.720457    0.179473
     19          6           0       -3.112879   -0.994355    0.334519
     20          1           0       -3.181813   -2.060383    0.533892
     21          1           0       -3.527886   -0.429655    1.169081
     22          1           0       -3.660169   -0.747534   -0.574995
 ---------------------------------------------------------------------

 SCF Done:  E(RwB97XD) =  -1360.88065032     A.U. after    1 cycles

 The electronic state is 1-A.
 Alpha  occ. eigenvalues -- -101.69836-101.69145 -19.29201 -19.22282 -14.47891
 Alpha  occ. eigenvalues --  -10.41022 -10.40876 -10.33093 -10.31960 -10.31630
 Alpha  occ. eigenvalues --  -10.29369  -9.58432  -9.57664  -7.33079  -7.32315
 Alpha  occ. eigenvalues --   -7.32218  -7.32170  -7.31442  -7.31429  -1.20713
 Alpha  occ. eigenvalues --   -1.11127  -1.03969  -0.98871  -0.94885  -0.85816
 Alpha  occ. eigenvalues --   -0.84813  -0.78742  -0.78344  -0.69768  -0.64226
 Alpha  occ. eigenvalues --   -0.63018  -0.59927  -0.58352  -0.57345  -0.56965
 Alpha  occ. eigenvalues --   -0.55034  -0.53109  -0.52361  -0.50254  -0.49093
 Alpha  occ. eigenvalues --   -0.48635  -0.48114  -0.46739  -0.44749  -0.44192
 Alpha  occ. eigenvalues --   -0.42502  -0.40874  -0.39183  -0.38380  -0.37990
 Alpha  occ. eigenvalues --   -0.36362  -0.28209
 Alpha virt. eigenvalues --    0.03105   0.07455   0.10189   0.11869   0.13265
 Alpha virt. eigenvalues --    0.14556   0.15572   0.15739   0.16773   0.17790
 Alpha virt. eigenvalues --    0.18966   0.19722   0.20177   0.20646   0.20815

 Mulliken charges:
               1
     1  C   -0.240121
     2  C    0.398793
     3  O   -0.473403
     4  C    0.213748
     5  C   -0.299184
     6  H    0.152852
     7  H    0.156044
     8  H    0.158944
     9  N   -0.364820
    10  H    0.281286
    11  H    0.285217
    12  C   -0.378966
    13  H    0.162816
    14  H    0.151068
    15  H    0.151887
    16  Cl  -0.110013
    17  Cl  -0.152822
    18  O   -0.304793
    19  C   -0.196300
    20  H    0.142073
    21  H    0.132117
    22  H    0.133578
 Sum of Mulliken charges =  -0.00000

 Dipole moment (field-independent basis, Debye):
    X=              4.6830    Y=             -6.8448    Z=              5.0579  Tot=              9.7142
 Quadrupole moment (field-independent basis, Debye-Ang):
   XX=            -72.3798   YY=            -85.5016   ZZ=            -73.5897
   XY=              6.4529   XZ=              2.1349   YZ=             -4.4545

  Exact polarizability: 168.570 -11.964 173.705   5.541  -3.522 139.626
 Approx polarizability: 133.713  -8.803 146.469   3.915  -1.740 117.451

 ******    1 imaginary frequencies (negative Signs) ******

                      1                      2                      3
                      A                      A                      A
 Frequencies --   -358.4543                55.5099                72.3228
 Red. masses --      5.6566                 3.2299                 5.1155
 Frc consts  --      0.4282                 0.0059                 0.0158
 IR Inten    --    695.2506                 0.6119                 2.9091

                      4                      5                      6
                      A                      A                      A
 Frequencies --     88.5610               108.2651               133.0981
 Red. masses --      2.9048                 4.5699                 2.5954
 Frc consts  --      0.0134                 0.0316                 0.0271
 IR Inten    --      4.1057                 6.6623                 3.8880

                      7                      8                      9
                      A                      A                      A
 Frequencies --    150.7232               174.2902               189.2924
 Red. masses --      1.2858                 1.5922                 2.1356
 Frc consts  --      0.0172                 0.0285                 0.0451
 IR Inten    --      2.4680                 4.1742                 1.2613

                     10                     11                     12
                      A                      A                      A
 Frequencies --    203.3445               237.9356               266.7650
 Red. masses --      4.9774                 4.6419                 2.4612
 Frc consts  --      0.1213                 0.1548                 0.1032
 IR Inten    --     12.2591                 0.1027                 1.9886

                     13                     14                     15
                      A                      A                      A
 Frequencies --    281.4720               301.8016               318.9807
 Red. masses --      1.6590                 3.2810                 3.1052
 Frc consts  --      0.0774                 0.1761                 0.1861
 IR Inten    --      2.8391                38.9826                 9.4904

                     16                     17                     18
                      A                      A                      A
 Frequencies --    345.8111               359.9925               412.2526
 Red. masses --      5.2565                 3.7400                 7.1012
 Frc consts  --      0.3704                 0.2856                 0.7111
 IR Inten    --      8.0215                16.2551                10.0025

                     19                     20                     21
                      A                      A                      A
 Frequencies --    492.9409               532.8430               651.8703
 Red. masses --      4.7862                 5.2256                 1.4371
 Frc consts  --      0.6852                 0.8741                 0.3598
 IR Inten    --     29.6046                74.3167                33.8540

                     22                     23                     24
                      A                      A                      A
 Frequencies --    734.0325               787.6371               797.3683
 Red. masses --      3.7883                 9.6256                 6.2592
 Frc consts  --      1.2026                 3.5183                 2.3447
 IR Inten    --    141.2947                61.2428                73.4315

                     25                     26                     27
                      A                      A                      A
 Frequencies --    939.3873               990.1943              1023.4507
 Red. masses --      5.3259                 1.0941                 1.1634
 Frc consts  --      2.7691                 0.6320                 0.7180
 IR Inten    --     53.7447                44.6552                83.3183

                     28                     29                     30
                      A                      A                      A
 Frequencies --   1053.3858              1067.1616              1088.6940
 Red. masses --      1.5832                 1.9036                 3.8664
 Frc consts  --      1.0351                 1.2773                 2.7001
 IR Inten    --     84.3520                29.3843                 6.4681

                     31                     32                     33
                      A                      A                      A
 Frequencies --   1104.8047              1139.9184              1182.1050
 Red. masses --      4.0355                 4.7458                 1.2816
 Frc consts  --      2.9021                 3.6333                 1.0551
 IR Inten    --     87.3712               219.5571                 1.5583

                     34                     35                     36
                      A                      A                      A
 Frequencies --   1204.6302              1218.1444              1311.3822
 Red. masses --      1.4164                 1.5539                 6.1219
 Frc consts  --      1.2110                 1.3586                 6.2029
 IR Inten    --     30.3785                70.8577               572.1479

                     37                     38                     39
                      A                      A                      A
 Frequencies --   1344.1463              1417.1432              1444.1757
 Red. masses --      1.3301                 1.2802                 1.8245
 Frc consts  --      1.4159                 1.5148                 2.2419
 IR Inten    --      1.1332                59.7155               386.9419

                     40                     41                     42
                      A                      A                      A
 Frequencies --   1462.0853              1476.8476              1480.1439
 Red. masses --      1.3867                 1.0785                 1.1340
 Frc consts  --      1.7466                 1.3859                 1.4638
 IR Inten    --    132.5085                16.7405                55.0108

                     43                     44                     45
                      A                      A                      A
 Frequencies --   1482.7573              1490.9860              1494.2156
 Red. masses --      1.0674                 1.0971                 1.1048
 Frc consts  --      1.3827                 1.4370                 1.4533
 IR Inten    --     20.2772                24.3990                 8.8341

                     46                     47                     48
                      A                      A                      A
 Frequencies --   1498.2545              1503.9608              1642.5132
 Red. masses --      1.3150                 1.0352                 1.0941
 Frc consts  --      1.7392                 1.3796                 1.7390
 IR Inten    --    179.8598                 9.9312                79.9340

                     49                     50                     51
                      A                      A                      A
 Frequencies --   1719.4829              3061.9211              3067.0647
 Red. masses --     11.2898                 1.0338                 1.0305
 Frc consts  --     19.6667                 5.7104                 5.7117
 IR Inten    --    967.1702                36.3136                54.2139

                     52                     53                     54
                      A                      A                      A
 Frequencies --   3076.5009              3133.5277              3145.2162
 Red. masses --      1.0367                 1.1044                 1.1071
 Frc consts  --      5.7813                 6.3890                 6.4524
 IR Inten    --      5.6962                13.6123                32.7631

                     55                     56                     57
                      A                      A                      A
 Frequencies --   3153.4203              3163.2437              3176.2431
 Red. masses --      1.1007                 1.1045                 1.1045
 Frc consts  --      6.4486                 6.5118                 6.5649
 IR Inten    --      8.1282                18.1716                10.6035

                     58                     59                     60
                      A                      A                      A
 Frequencies --   3178.1420              3526.2037              3613.4531
 Red. masses --      1.1058                 1.0502                 1.0971
 Frc consts  --      6.5809                 7.6935                 8.4399
 IR Inten    --     20.2251                42.8496                68.0112

 - Thermochemistry -
 -------------------
 Temperature   298.150 Kelvin.  Pressure   1.00000 Atm.
 Atom     1 has atomic number  6 and mass  12.00000

 Molecular mass:   199.01668 amu.
 Principal axes and moments of inertia in atomic units:
                           1         2         3
     Eigenvalues --  2171.319232426.041163146.70842
           X            0.99425   0.10586   0.01627
           Y           -0.10503   0.99344  -0.04530
           Z           -0.02096   0.04333   0.99884
 This molecule is an asymmetric top.
 Rotational symmetry number  1.
 Warning -- assumption of classical behavior for rotation
           may cause significant error
 Rotational temperatures (Kelvin)      0.03989     0.03570     0.02753
 Rotational constants (GHZ):           0.83117     0.74390     0.57353
    1 imaginary frequencies ignored.
 Zero-point vibrational energy     453217.3 (Joules/Mol)
                                  108.32154 (Kcal/Mol)
 Warning -- explicit consideration of  19 degrees of freedom as
           vibrations may cause significant error
 Vibrational temperatures:     79.87   104.06   127.42   155.77   191.50
          (Kelvin)            216.86   250.76   272.35   292.57   342.34
                              383.82   404.98   434.23   458.94   497.55
                              517.95   593.14   709.23   766.64   937.90
                             1056.11  1133.23  1147.24  1351.57  1424.67
                             1472.52  1515.59  1535.41  1566.39  1589.57
                             1640.09  1700.79  1733.19  1752.64  1886.79
                             1933.93  2038.95  2077.85  2103.61  2124.85
                             2129.60  2133.36  2145.20  2149.84  2155.65
                             2163.86  2363.21  2473.95  4405.42  4412.82
                             4426.40  4508.45  4525.26  4537.07  4551.20
                             4569.91  4572.64  5073.42  5198.95

 Zero-point correction=                           0.172621 (Hartree/Particle)
 Thermal correction to Energy=                    0.186035
 Thermal correction to Enthalpy=                  0.186979
 Thermal correction to Gibbs Free Energy=         0.132289
 Sum of electronic and zero-point Energies=          -1360.708029
 Sum of electronic and thermal Energies=             -1360.694615
 Sum of electronic and thermal Enthalpies=           -1360.693671
 Sum of electronic and thermal Free Energies=        -1360.748362

                     E (Thermal)             CV                S
                      KCal/Mol        Cal/Mol-Kelvin    Cal/Mol-Kelvin
 Total                  116.739             46.180            115.106
 Electronic               0.000              0.000              0.000
 Translational            0.889              2.981             41.769
 Rotational               0.889              2.981             31.184
 Vibrational            114.961             40.218             42.153
 Vibration     1          0.596              1.975              4.611
 Vibration     2          0.598              1.967              4.089
 Vibration     3          0.601              1.957              3.692
 Vibration     4          0.606              1.943              3.300
 Vibration     5          0.613              1.920              2.901
 Vibration     6          0.618              1.902              2.663
 Vibration     7          0.627              1.874              2.389
 Vibration     8          0.633              1.855              2.235
 Vibration     9          0.639              1.835              2.103
 Vibration    10          0.656              1.783              1.818
 Vibration    11          0.672              1.734              1.617
 Vibration    12          0.681              1.708              1.525
 Vibration    13          0.694              1.670              1.407
 Vibration    14          0.705              1.637              1.315
 Vibration    15          0.724              1.584              1.185
 Vibration    16          0.734              1.555              1.122
 Vibration    17          0.776              1.444              0.919
 Vibration    18          0.849              1.266              0.676
 Vibration    19          0.888              1.177              0.581

 Optimization completed.
    -- Stationary point found.
 Normal termination of Gaussian 16 at Tue Feb 16 15:48:08 2021.
