 Gaussian 16, Revision A.03,
 Gaussian 16:  ES64L-G16RevA.03 25-Dec-2016

 ----------------------------------------------------------------------
 # wB97XD def2tzvp, opt=(ts, noeigen, calcfc, maxcycles=70, maxstep=1),
  freq=noraman, scrf=(iefpcm, solvent=water)
 ----------------------------------------------------------------------

 ------------------------
 0_iteration/TS-598-0.out
 ------------------------
 Symbolic Z-matrix:
 Charge =  0 Multiplicity = 1

 SCF Done:  E(RwB97XD) =  -1380.30480850     A.U. after   14 cycles
 SCF Done:  E(RwB97XD) =  -1380.30482237     A.U. after   11 cycles
 SCF Done:  E(RwB97XD) =  -1380.30484798     A.U. after   11 cycles
 SCF Done:  E(RwB97XD) =  -1380.30489654     A.U. after   10 cycles
 SCF Done:  E(RwB97XD) =  -1380.30494500     A.U. after   10 cycles
 SCF Done:  E(RwB97XD) =  -1380.30499301     A.U. after   10 cycles
 SCF Done:  E(RwB97XD) =  -1380.30503642     A.U. after   10 cycles
 SCF Done:  E(RwB97XD) =  -1380.30508425     A.U. after   10 cycles
 SCF Done:  E(RwB97XD) =  -1380.30512830     A.U. after   10 cycles
 SCF Done:  E(RwB97XD) =  -1380.30516677     A.U. after   10 cycles
 SCF Done:  E(RwB97XD) =  -1380.30573309     A.U. after    9 cycles
 SCF Done:  E(RwB97XD) =  -1380.30573296     A.U. after    9 cycles
 SCF Done:  E(RwB97XD) =  -1380.30573305     A.U. after    7 cycles
 SCF Done:  E(RwB97XD) =  -1380.30573176     A.U. after   10 cycles
 SCF Done:  E(RwB97XD) =  -1380.30573198     A.U. after   10 cycles
 SCF Done:  E(RwB97XD) =  -1380.30573302     A.U. after   10 cycles
 SCF Done:  E(RwB97XD) =  -1380.30573300     A.U. after    7 cycles
 SCF Done:  E(RwB97XD) =  -1380.30573223     A.U. after    9 cycles
 SCF Done:  E(RwB97XD) =  -1380.30573301     A.U. after    9 cycles
 Optimization completed.
    -- Stationary point found.
 Normal termination of Gaussian 16 at Tue Feb 16 12:49:38 2021.

 ---------------------------------------------------------------------
 #N Geom=AllCheck Guess=TCheck SCRF=Check GenChk RwB97XD/def2TZVP Freq
 ---------------------------------------------------------------------

 Structure from the checkpoint file:  "/beegfs/scratch/user/q/tla25/Gau-52884.chk"
 ------------------------
 0_iteration/TS-598-0.out
 ------------------------
 Charge =  0 Multiplicity = 1

                         Standard orientation:
 ---------------------------------------------------------------------
 Center     Atomic      Atomic             Coordinates (Angstroms)
 Number     Number       Type             X           Y           Z
 ---------------------------------------------------------------------
      1          6           0        0.195769    0.463403   -0.593968
      2          6           0       -1.047656    0.828929    0.101577
      3          8           0       -1.160396    1.874973    0.749242
      4          6           0        1.028914   -0.609090   -0.218312
      5          6           0        1.922112    0.683355    2.003942
      6          1           0        1.258292    1.478385    1.671898
      7          1           0        1.980914    0.681793    3.090899
      8          1           0        2.915751    0.830879    1.589338
      9          7           0        1.379922   -0.595156    1.528048
     10          1           0        1.988487   -1.373668    1.764968
     11          1           0        0.480846   -0.780707    1.962488
     12          6           0        2.406144   -0.727267   -0.826972
     13          1           0        2.997225    0.164148   -0.628719
     14          1           0        2.926328   -1.598605   -0.433829
     15          1           0        2.309992   -0.836837   -1.906027
     16         17           0        0.265141   -2.272903   -0.216367
     17         17           0        1.036539    1.892437   -1.243371
     18          7           0       -2.090833   -0.056032    0.049320
     19          6           0       -3.223397    0.181163    0.919725
     20          6           0       -2.400147   -0.841329   -1.129794
     21          1           0       -2.883268    0.552232    1.882998
     22          1           0       -3.919706    0.912018    0.493488
     23          1           0       -3.756341   -0.759309    1.064734
     24          1           0       -1.564835   -0.812750   -1.822287
     25          1           0       -2.606454   -1.879494   -0.864652
     26          1           0       -3.286692   -0.426622   -1.622442
 ---------------------------------------------------------------------

 SCF Done:  E(RwB97XD) =  -1380.30573301     A.U. after    1 cycles

 The electronic state is 1-A.
 Alpha  occ. eigenvalues -- -101.69203-101.67755 -19.20412 -14.51315 -14.45423
 Alpha  occ. eigenvalues --  -10.41176 -10.37918 -10.32335 -10.30278 -10.30222
 Alpha  occ. eigenvalues --  -10.29670 -10.29126  -9.57824  -9.56272  -7.32437
 Alpha  occ. eigenvalues --   -7.31619  -7.31582  -7.30894  -7.30078  -7.30046
 Alpha  occ. eigenvalues --   -1.13211  -1.06989  -1.02751  -0.97326  -0.93422
 Alpha  occ. eigenvalues --   -0.85294  -0.82377  -0.80577  -0.80063  -0.76466
 Alpha  occ. eigenvalues --   -0.67770  -0.65020  -0.61687  -0.60491  -0.58963
 Alpha  occ. eigenvalues --   -0.56656  -0.55831  -0.55185  -0.52379  -0.51759
 Alpha  occ. eigenvalues --   -0.50308  -0.49473  -0.48292  -0.48068  -0.47483
 Alpha  occ. eigenvalues --   -0.46785  -0.45968  -0.45267  -0.44492  -0.41502
 Alpha  occ. eigenvalues --   -0.39856  -0.39568  -0.37835  -0.34431  -0.31698
 Alpha  occ. eigenvalues --   -0.25953
 Alpha virt. eigenvalues --    0.05651   0.07759   0.09460   0.12245   0.12733
 Alpha virt. eigenvalues --    0.13631   0.14503   0.15163   0.16724   0.16830
 Alpha virt. eigenvalues --    0.17591   0.18803   0.18930   0.19439   0.19887

 Mulliken charges:
               1
     1  C   -0.195367
     2  C    0.206730
     3  O   -0.507475
     4  C    0.114993
     5  C   -0.314279
     6  H    0.162852
     7  H    0.166974
     8  H    0.164463
     9  N   -0.239721
    10  H    0.295918
    11  H    0.294919
    12  C   -0.376353
    13  H    0.148743
    14  H    0.149113
    15  H    0.159222
    16  Cl  -0.149043
    17  Cl  -0.210299
    18  N   -0.128369
    19  C   -0.286532
    20  C   -0.286493
    21  H    0.138086
    22  H    0.129428
    23  H    0.135524
    24  H    0.158933
    25  H    0.139949
    26  H    0.128083
 Sum of Mulliken charges =  -0.00000

 Dipole moment (field-independent basis, Debye):
    X=              3.5994    Y=             -6.4384    Z=              4.8407  Tot=              8.8227
 Quadrupole moment (field-independent basis, Debye-Ang):
   XX=            -71.2587   YY=           -101.2280   ZZ=            -79.4108
   XY=              1.3629   XZ=              9.6284   YZ=             -2.8188

  Exact polarizability: 189.586   5.452 192.163   4.002  -0.789 160.823
 Approx polarizability: 147.977   5.970 161.930   2.019  -0.630 137.800

 ******    1 imaginary frequencies (negative Signs) ******

                      1                      2                      3
                      A                      A                      A
 Frequencies --   -325.4758                42.0847                65.0430
 Red. masses --      5.8885                 4.7659                 6.1469
 Frc consts  --      0.3675                 0.0050                 0.0153
 IR Inten    --    571.4473                 5.6386                18.3541

                      4                      5                      6
                      A                      A                      A
 Frequencies --     86.7348               114.8772               121.5748
 Red. masses --      3.2678                 2.5257                 4.0741
 Frc consts  --      0.0145                 0.0196                 0.0355
 IR Inten    --      3.5195                 2.7216                13.0174

                      7                      8                      9
                      A                      A                      A
 Frequencies --    161.3958               184.6303               201.3800
 Red. masses --      1.5967                 2.2198                 1.9811
 Frc consts  --      0.0245                 0.0446                 0.0473
 IR Inten    --      4.5994                 1.3614                13.4299

                     10                     11                     12
                      A                      A                      A
 Frequencies --    213.0977               221.1481               227.3057
 Red. masses --      1.4010                 2.1437                 4.1298
 Frc consts  --      0.0375                 0.0618                 0.1257
 IR Inten    --      2.3269                 1.7092                21.1203

                     13                     14                     15
                      A                      A                      A
 Frequencies --    247.2954               275.8777               284.9165
 Red. masses --      1.9354                 1.5750                 1.7582
 Frc consts  --      0.0697                 0.0706                 0.0841
 IR Inten    --      7.8022                 9.5216                 0.5212

                     16                     17                     18
                      A                      A                      A
 Frequencies --    329.8510               339.5723               358.9403
 Red. masses --      3.9645                 3.0588                 3.4954
 Frc consts  --      0.2541                 0.2078                 0.2653
 IR Inten    --     45.5079                 3.4076                 6.4325

                     19                     20                     21
                      A                      A                      A
 Frequencies --    369.3516               402.9188               434.7909
 Red. masses --      3.4750                 3.0277                 3.8506
 Frc consts  --      0.2793                 0.2896                 0.4289
 IR Inten    --     30.6976                 5.5262                27.5343

                     22                     23                     24
                      A                      A                      A
 Frequencies --    469.4286               591.6306               653.1143
 Red. masses --      3.7074                 5.9451                 3.8963
 Frc consts  --      0.4813                 1.2261                 0.9792
 IR Inten    --     42.6836                87.5801               154.8975

                     25                     26                     27
                      A                      A                      A
 Frequencies --    695.0252               759.8941               807.0081
 Red. masses --      5.6447                 1.7825                 3.8408
 Frc consts  --      1.6065                 0.6064                 1.4738
 IR Inten    --     75.0042                78.3091                19.8936

                     28                     29                     30
                      A                      A                      A
 Frequencies --    866.9244              1007.6487              1021.5623
 Red. masses --      5.8704                 1.9022                 1.7211
 Frc consts  --      2.5994                 1.1380                 1.0583
 IR Inten    --     33.5539                49.3058                36.2454

                     31                     32                     33
                      A                      A                      A
 Frequencies --   1050.9748              1066.8641              1079.1817
 Red. masses --      1.8161                 1.7444                 1.4956
 Frc consts  --      1.1819                 1.1698                 1.0263
 IR Inten    --     21.5985                80.9444                63.2884

                     34                     35                     36
                      A                      A                      A
 Frequencies --   1080.7348              1086.9314              1130.7062
 Red. masses --      1.9236                 1.4828                 1.2788
 Frc consts  --      1.3237                 1.0322                 0.9632
 IR Inten    --     10.1692                62.0246                 4.8824

                     37                     38                     39
                      A                      A                      A
 Frequencies --   1132.9902              1172.8539              1220.0745
 Red. masses --      1.7948                 1.3934                 3.2761
 Frc consts  --      1.3574                 1.1293                 2.8733
 IR Inten    --     90.0813                22.4436               170.4684

                     40                     41                     42
                      A                      A                      A
 Frequencies --   1283.7155              1303.3624              1344.0337
 Red. masses --      1.3565                 4.9015                 1.3832
 Frc consts  --      1.3171                 4.9058                 1.4721
 IR Inten    --     69.0921                34.4008                50.1002

                     43                     44                     45
                      A                      A                      A
 Frequencies --   1382.4399              1417.9907              1424.6178
 Red. masses --      3.3436                 2.3936                 1.3688
 Frc consts  --      3.7649                 2.8357                 1.6367
 IR Inten    --    546.1372               235.1051                69.6403

                     46                     47                     48
                      A                      A                      A
 Frequencies --   1441.8085              1465.3617              1467.7133
 Red. masses --      1.1711                 1.1958                 1.1803
 Frc consts  --      1.4343                 1.5129                 1.4981
 IR Inten    --     11.2666                16.2635                32.9755

                     49                     50                     51
                      A                      A                      A
 Frequencies --   1479.2969              1479.6960              1484.8769
 Red. masses --      1.0677                 1.0516                 1.0437
 Frc consts  --      1.3766                 1.3566                 1.3558
 IR Inten    --      5.8069                 8.9228                27.7281

                     52                     53                     54
                      A                      A                      A
 Frequencies --   1492.9701              1497.7880              1500.2706
 Red. masses --      1.0854                 1.0398                 1.0580
 Frc consts  --      1.4254                 1.3744                 1.4031
 IR Inten    --      1.8881                19.6055                22.5973

                     55                     56                     57
                      A                      A                      A
 Frequencies --   1511.2096              1529.2377              1637.1626
 Red. masses --      1.0315                 1.3574                 4.5188
 Frc consts  --      1.3880                 1.8703                 7.1361
 IR Inten    --     24.2027               165.7888               534.9809

                     58                     59                     60
                      A                      A                      A
 Frequencies --   1641.7934              3022.5783              3025.9037
 Red. masses --      1.2239                 1.0459                 1.0487
 Frc consts  --      1.9437                 5.6297                 5.6574
 IR Inten    --    232.6180                71.6139               142.3665

                     61                     62                     63
                      A                      A                      A
 Frequencies --   3082.7942              3087.5973              3096.8627
 Red. masses --      1.0356                 1.0329                 1.0931
 Frc consts  --      5.7986                 5.8017                 6.1765
 IR Inten    --      7.8767                27.1995                68.1530

                     64                     65                     66
                      A                      A                      A
 Frequencies --   3105.8444              3164.9387              3167.8307
 Red. masses --      1.0915                 1.1040                 1.1010
 Frc consts  --      6.2032                 6.5153                 6.5097
 IR Inten    --     27.7215                12.3192                15.7990

                     67                     68                     69
                      A                      A                      A
 Frequencies --   3171.6469              3174.9023              3180.5861
 Red. masses --      1.1041                 1.1045                 1.0987
 Frc consts  --      6.5437                 6.5594                 6.5483
 IR Inten    --      8.9569                 7.7814                 8.1120

                     70                     71                     72
                      A                      A                      A
 Frequencies --   3191.2825              3500.1171              3577.2285
 Red. masses --      1.1069                 1.0517                 1.0962
 Frc consts  --      6.6420                 7.5909                 8.2647
 IR Inten    --      2.8430                46.7293                57.6979

 - Thermochemistry -
 -------------------
 Temperature   298.150 Kelvin.  Pressure   1.00000 Atm.
 Atom     1 has atomic number  6 and mass  12.00000

 Molecular mass:   212.04832 amu.
 Principal axes and moments of inertia in atomic units:
                           1         2         3
     Eigenvalues --  2285.961572872.673763579.52580
           X            0.99962  -0.00092   0.02755
           Y           -0.00051   0.99866   0.05179
           Z           -0.02756  -0.05178   0.99828
 This molecule is an asymmetric top.
 Rotational symmetry number  1.
 Warning -- assumption of classical behavior for rotation
           may cause significant error
 Rotational temperatures (Kelvin)      0.03789     0.03015     0.02420
 Rotational constants (GHZ):           0.78949     0.62824     0.50418
    1 imaginary frequencies ignored.
 Zero-point vibrational energy     561717.3 (Joules/Mol)
                                  134.25365 (Kcal/Mol)
 Warning -- explicit consideration of  22 degrees of freedom as
           vibrations may cause significant error
 Vibrational temperatures:     60.55    93.58   124.79   165.28   174.92
          (Kelvin)            232.21   265.64   289.74   306.60   318.18
                              327.04   355.80   396.93   409.93   474.58
                              488.57   516.44   531.41   579.71   625.57
                              675.40   851.22   939.69   999.99  1093.32
                             1161.10  1247.31  1449.78  1469.80  1512.12
                             1534.98  1552.70  1554.94  1563.85  1626.83
                             1630.12  1687.48  1755.42  1846.98  1875.25
                             1933.76  1989.02  2040.17  2049.71  2074.44
                             2108.33  2111.71  2128.38  2128.95  2136.41
                             2148.05  2154.98  2158.55  2174.29  2200.23
                             2355.51  2362.17  4348.82  4353.60  4435.45
                             4442.36  4455.69  4468.62  4553.64  4557.80
                             4563.29  4567.98  4576.15  4591.54  5035.89
                             5146.83

 Zero-point correction=                           0.213947 (Hartree/Particle)
 Thermal correction to Energy=                    0.228656
 Thermal correction to Enthalpy=                  0.229601
 Thermal correction to Gibbs Free Energy=         0.172339
 Sum of electronic and zero-point Energies=          -1380.091786
 Sum of electronic and thermal Energies=             -1380.077077
 Sum of electronic and thermal Enthalpies=           -1380.076132
 Sum of electronic and thermal Free Energies=        -1380.133394

                     E (Thermal)             CV                S
                      KCal/Mol        Cal/Mol-Kelvin    Cal/Mol-Kelvin
 Total                  143.484             52.006            120.518
 Electronic               0.000              0.000              0.000
 Translational            0.889              2.981             41.959
 Rotational               0.889              2.981             31.531
 Vibrational            141.707             46.044             47.029
 Vibration     1          0.595              1.980              5.158
 Vibration     2          0.597              1.971              4.298
 Vibration     3          0.601              1.958              3.732
 Vibration     4          0.608              1.937              3.185
 Vibration     5          0.609              1.931              3.075
 Vibration     6          0.622              1.890              2.533
 Vibration     7          0.631              1.861              2.281
 Vibration     8          0.638              1.838              2.120
 Vibration     9          0.644              1.821              2.017
 Vibration    10          0.648              1.809              1.950
 Vibration    11          0.651              1.799              1.900
 Vibration    12          0.661              1.767              1.750
 Vibration    13          0.678              1.718              1.559
 Vibration    14          0.683              1.702              1.504
 Vibration    15          0.713              1.616              1.261
 Vibration    16          0.719              1.596              1.214
 Vibration    17          0.734              1.557              1.127
 Vibration    18          0.742              1.535              1.082
 Vibration    19          0.768              1.464              0.952
 Vibration    20          0.795              1.394              0.843
 Vibration    21          0.827              1.318              0.739
 Vibration    22          0.949              1.050              0.464

 Optimization completed.
    -- Stationary point found.
 Normal termination of Gaussian 16 at Tue Feb 16 13:23:22 2021.
