 Gaussian 16, Revision A.03,
 Gaussian 16:  ES64L-G16RevA.03 25-Dec-2016

 ----------------------------------------------------------------------
 # wB97XD def2tzvp, opt=(ts, noeigen, calcfc, maxcycles=70, maxstep=5),
  freq=noraman, scrf=(iefpcm, solvent=water)
 ----------------------------------------------------------------------

 ------------------------
 2_iteration/TS-520-2.out
 ------------------------
 Symbolic Z-matrix:
 Charge =  0 Multiplicity = 1

 SCF Done:  E(RwB97XD) =  -1057.08785477     A.U. after   15 cycles
 SCF Done:  E(RwB97XD) =  -1057.08795524     A.U. after   12 cycles
 SCF Done:  E(RwB97XD) =  -1057.08795776     A.U. after   10 cycles
 SCF Done:  E(RwB97XD) =  -1057.08795773     A.U. after    8 cycles
 Optimization completed.
    -- Stationary point found.
 Normal termination of Gaussian 16 at Wed Feb 17 13:31:54 2021.

 ---------------------------------------------------------------------
 #N Geom=AllCheck Guess=TCheck SCRF=Check GenChk RwB97XD/def2TZVP Freq
 ---------------------------------------------------------------------

 Structure from the checkpoint file:  "/beegfs/scratch/user/q/tla25/Gau-11535.chk"
 ------------------------
 2_iteration/TS-520-2.out
 ------------------------
 Charge =  0 Multiplicity = 1

                         Standard orientation:
 ---------------------------------------------------------------------
 Center     Atomic      Atomic             Coordinates (Angstroms)
 Number     Number       Type             X           Y           Z
 ---------------------------------------------------------------------
      1          6           0        1.012936   -0.847225    0.114437
      2          6           0       -0.235904   -1.398663   -0.276951
      3          8           0       -0.371791   -2.536589   -0.746286
      4          6           0        1.336874    0.407227    0.679334
      5          6           0        2.278914    2.908723   -0.747194
      6          1           0        2.342490    3.422840   -1.707619
      7          1           0        1.683069    3.512298   -0.064786
      8          1           0        3.282082    2.800711   -0.340099
      9          7           0        1.668374    1.586465   -0.881761
     10          1           0        0.745770    1.650091   -1.296379
     11          1           0        2.223476    0.984593   -1.479194
     12          6           0        2.684995    0.554667    1.345580
     13          1           0        2.698268   -0.083953    2.231757
     14          1           0        3.506653    0.248818    0.704043
     15          1           0        2.844624    1.581229    1.669412
     16          6           0        0.289534    1.253767    1.369528
     17          1           0       -0.030730    0.741466    2.278123
     18          1           0        0.725746    2.207604    1.661276
     19          1           0       -0.590428    1.445215    0.766154
     20         17           0        2.378825   -1.904614   -0.291778
     21          6           0       -1.499018   -0.591044   -0.144530
     22          6           0       -2.322578   -0.748262    0.963461
     23          6           0       -3.510419   -0.039229    1.055649
     24          6           0       -3.889152    0.823377    0.035523
     25          6           0       -3.080995    0.963826   -1.083706
     26          6           0       -1.891312    0.255483   -1.174902
     27          1           0       -2.022355   -1.412498    1.764955
     28          1           0       -4.141572   -0.157369    1.927506
     29          1           0       -4.814665    1.379857    0.110373
     30          1           0       -3.376280    1.626061   -1.887764
     31          1           0       -1.263704    0.363042   -2.052307
 ---------------------------------------------------------------------

 SCF Done:  E(RwB97XD) =  -1057.08795773     A.U. after    1 cycles

 The electronic state is 1-A.
 Alpha  occ. eigenvalues -- -101.67997 -19.20769 -14.47859 -10.36585 -10.35934
 Alpha  occ. eigenvalues --  -10.31771 -10.31061 -10.30032 -10.29425 -10.29357
 Alpha  occ. eigenvalues --  -10.29329 -10.29240 -10.29147 -10.28415 -10.28307
 Alpha  occ. eigenvalues --   -9.56544  -7.31152  -7.30353  -7.30322  -1.11668
 Alpha  occ. eigenvalues --   -1.03511  -0.97027  -0.96131  -0.90188  -0.86689
 Alpha  occ. eigenvalues --   -0.85467  -0.80680  -0.79466  -0.78583  -0.72070
 Alpha  occ. eigenvalues --   -0.70802  -0.67979  -0.63166  -0.62701  -0.59498
 Alpha  occ. eigenvalues --   -0.57585  -0.56448  -0.55760  -0.54992  -0.54279
 Alpha  occ. eigenvalues --   -0.53265  -0.51324  -0.50744  -0.50099  -0.48839
 Alpha  occ. eigenvalues --   -0.48334  -0.48033  -0.47293  -0.46742  -0.45985
 Alpha  occ. eigenvalues --   -0.43993  -0.43700  -0.43082  -0.41134  -0.39877
 Alpha  occ. eigenvalues --   -0.38297  -0.34463  -0.34181  -0.31715  -0.27736
 Alpha virt. eigenvalues --    0.03597   0.04782   0.05014   0.09652   0.11540
 Alpha virt. eigenvalues --    0.12676   0.13255   0.14221   0.14808   0.15192
 Alpha virt. eigenvalues --    0.16184   0.16501   0.17542   0.18099   0.18530

 Mulliken charges:
               1
     1  C   -0.082783
     2  C    0.154953
     3  O   -0.494403
     4  C    0.083314
     5  C   -0.296983
     6  H    0.154983
     7  H    0.154761
     8  H    0.160908
     9  N   -0.345402
    10  H    0.267374
    11  H    0.280579
    12  C   -0.380450
    13  H    0.156116
    14  H    0.151195
    15  H    0.146354
    16  C   -0.372731
    17  H    0.155555
    18  H    0.148677
    19  H    0.162294
    20  Cl  -0.196467
    21  C    0.184639
    22  C   -0.248885
    23  C   -0.122220
    24  C   -0.161255
    25  C   -0.125398
    26  C   -0.280704
    27  H    0.146708
    28  H    0.145059
    29  H    0.145645
    30  H    0.145596
    31  H    0.162973
 Sum of Mulliken charges =  -0.00000

 Dipole moment (field-independent basis, Debye):
    X=              2.1229    Y=             12.5483    Z=              0.9422  Tot=             12.7614
 Quadrupole moment (field-independent basis, Debye-Ang):
   XX=            -87.5388   YY=           -107.6763   ZZ=            -89.3800
   XY=              7.2553   XZ=             -4.4133   YZ=            -11.3779

  Exact polarizability: 255.768  -0.953 245.032  -8.053  -8.711 203.429
 Approx polarizability: 195.413  -5.162 198.898  -7.551  -7.205 177.350

 ******    1 imaginary frequencies (negative Signs) ******

                      1                      2                      3
                      A                      A                      A
 Frequencies --   -325.6778                33.0339                54.0559
 Red. masses --      5.7912                 4.4053                 4.9952
 Frc consts  --      0.3619                 0.0028                 0.0086
 IR Inten    --    865.4303                 2.7356                 2.0201

                      4                      5                      6
                      A                      A                      A
 Frequencies --     71.7645                75.8198                87.1953
 Red. masses --      3.4835                 4.0958                 2.4010
 Frc consts  --      0.0106                 0.0139                 0.0108
 IR Inten    --      2.1192                 0.5293                 4.7107

                      7                      8                      9
                      A                      A                      A
 Frequencies --    115.4955               180.2099               200.5748
 Red. masses --      3.7354                 1.2357                 3.9251
 Frc consts  --      0.0294                 0.0236                 0.0930
 IR Inten    --     10.6854                 0.0242                 0.3069

                     10                     11                     12
                      A                      A                      A
 Frequencies --    226.2625               233.7400               258.6186
 Red. masses --      2.2642                 3.1167                 2.4259
 Frc consts  --      0.0683                 0.1003                 0.0956
 IR Inten    --      2.9088                12.8587                 6.1243

                     13                     14                     15
                      A                      A                      A
 Frequencies --    271.7501               280.6113               298.5605
 Red. masses --      2.8352                 1.5653                 2.4357
 Frc consts  --      0.1234                 0.0726                 0.1279
 IR Inten    --      4.5839                 0.3352                10.1632

                     16                     17                     18
                      A                      A                      A
 Frequencies --    314.6244               355.5407               372.1992
 Red. masses --      2.0073                 4.8224                 4.0305
 Frc consts  --      0.1171                 0.3592                 0.3290
 IR Inten    --      0.8241                11.8907                16.5518

                     19                     20                     21
                      A                      A                      A
 Frequencies --    416.5428               419.6974               449.8590
 Red. masses --      2.9374                 2.9402                 2.9484
 Frc consts  --      0.3003                 0.3051                 0.3515
 IR Inten    --      0.9370                 3.4583                12.4076

                     22                     23                     24
                      A                      A                      A
 Frequencies --    505.0293               557.1114               609.4486
 Red. masses --      4.2514                 3.6202                 4.1039
 Frc consts  --      0.6389                 0.6620                 0.8981
 IR Inten    --    131.4505                21.3593                39.1884

                     25                     26                     27
                      A                      A                      A
 Frequencies --    634.6818               647.2443               672.2753
 Red. masses --      6.4222                 1.2808                 4.6416
 Frc consts  --      1.5242                 0.3161                 1.2360
 IR Inten    --      0.3300                40.6033                59.3304

                     28                     29                     30
                      A                      A                      A
 Frequencies --    730.9522               780.7564               796.7774
 Red. masses --      1.5181                 9.0688                 3.0641
 Frc consts  --      0.4779                 3.2571                 1.1461
 IR Inten    --     90.5907                24.5412                85.4915

                     31                     32                     33
                      A                      A                      A
 Frequencies --    843.3296               882.4026               902.5512
 Red. masses --      4.1836                 1.2530                 3.1276
 Frc consts  --      1.7530                 0.5748                 1.5011
 IR Inten    --     92.7026                 0.6329                25.7665

                     34                     35                     36
                      A                      A                      A
 Frequencies --    959.4583               961.6188              1012.5510
 Red. masses --      1.4081                 1.3948                 1.3361
 Frc consts  --      0.7637                 0.7599                 0.8071
 IR Inten    --     12.1142                16.0677                 0.2680

                     37                     38                     39
                      A                      A                      A
 Frequencies --   1018.3938              1025.9190              1032.3848
 Red. masses --      1.1801                 5.1317                 1.3248
 Frc consts  --      0.7211                 3.1823                 0.8319
 IR Inten    --      2.5386                 1.1874                10.7427

                     40                     41                     42
                      A                      A                      A
 Frequencies --   1040.1356              1041.7438              1057.5107
 Red. masses --      1.2041                 1.2608                 2.2539
 Frc consts  --      0.7675                 0.8061                 1.4851
 IR Inten    --     56.7015               227.8747                16.6589

                     43                     44                     45
                      A                      A                      A
 Frequencies --   1059.9874              1080.5343              1110.6404
 Red. masses --      2.9781                 1.8885                 1.6957
 Frc consts  --      1.9714                 1.2991                 1.2324
 IR Inten    --    137.9980                10.3328                 3.2156

                     46                     47                     48
                      A                      A                      A
 Frequencies --   1110.9384              1175.9774              1183.3828
 Red. masses --      1.7268                 3.1017                 1.1433
 Frc consts  --      1.2557                 2.5272                 0.9433
 IR Inten    --     46.1656                 4.7920                 0.0555

                     49                     50                     51
                      A                      A                      A
 Frequencies --   1206.8045              1227.7836              1244.9451
 Red. masses --      1.1229                 1.3980                 3.6876
 Frc consts  --      0.9635                 1.2416                 3.3674
 IR Inten    --      0.5043                32.0404                 3.8540

                     52                     53                     54
                      A                      A                      A
 Frequencies --   1317.5628              1353.7904              1358.7223
 Red. masses --      4.3054                 1.3585                 1.4870
 Frc consts  --      4.4036                 1.4669                 1.6175
 IR Inten    --      1.1519                 3.7455                 2.6710

                     55                     56                     57
                      A                      A                      A
 Frequencies --   1368.5488              1411.9150              1417.1116
 Red. masses --      3.9163                 1.4131                 2.1264
 Frc consts  --      4.3216                 1.6597                 2.5159
 IR Inten    --     64.3381               170.8083               783.6940

                     58                     59                     60
                      A                      A                      A
 Frequencies --   1429.7916              1468.5421              1479.1137
 Red. masses --      1.3480                 1.2548                 1.0588
 Frc consts  --      1.6236                 1.5944                 1.3648
 IR Inten    --    214.3663                79.6739                 8.1238

                     61                     62                     63
                      A                      A                      A
 Frequencies --   1487.9770              1490.6536              1494.1942
 Red. masses --      2.1307                 1.0560                 1.0792
 Frc consts  --      2.7795                 1.3825                 1.4196
 IR Inten    --      4.8994                 3.4722                51.2746

                     64                     65                     66
                      A                      A                      A
 Frequencies --   1508.1407              1514.0453              1519.4709
 Red. masses --      1.1509                 1.0422                 1.0631
 Frc consts  --      1.5423                 1.4076                 1.4462
 IR Inten    --    107.3076                35.3374                15.8702

                     67                     68                     69
                      A                      A                      A
 Frequencies --   1542.1675              1615.5722              1645.4895
 Red. masses --      2.3791                10.7635                 1.1376
 Frc consts  --      3.3337                16.5523                 1.8147
 IR Inten    --     14.2697               808.1878                25.6696

                     70                     71                     72
                      A                      A                      A
 Frequencies --   1649.2465              1674.8591              3065.3549
 Red. masses --      4.8004                 5.8931                 1.0365
 Frc consts  --      7.6931                 9.7398                 5.7383
 IR Inten    --      0.3900                 0.9219                52.9770

                     73                     74                     75
                      A                      A                      A
 Frequencies --   3069.8062              3079.7708              3141.7767
 Red. masses --      1.0409                 1.0411                 1.1013
 Frc consts  --      5.7794                 5.8179                 6.4049
 IR Inten    --      8.7610                21.6640                16.2695

                     76                     77                     78
                      A                      A                      A
 Frequencies --   3142.8965              3148.9025              3170.1335
 Red. masses --      1.0984                 1.0985                 1.1055
 Frc consts  --      6.3924                 6.4177                 6.5456
 IR Inten    --      3.4734                48.0155                19.6484

                     79                     80                     81
                      A                      A                      A
 Frequencies --   3180.7566              3187.5158              3193.9834
 Red. masses --      1.1028                 1.0881                 1.0874
 Frc consts  --      6.5738                 6.5135                 6.5357
 IR Inten    --     13.1177                 8.7327                 2.2476

                     82                     83                     84
                      A                      A                      A
 Frequencies --   3198.7731              3203.0438              3211.7827
 Red. masses --      1.0989                 1.0908                 1.0949
 Frc consts  --      6.6249                 6.5936                 6.6545
 IR Inten    --      5.3565                 6.2582                36.6220

                     85                     86                     87
                      A                      A                      A
 Frequencies --   3222.4507              3526.1994              3606.3910
 Red. masses --      1.0988                 1.0511                 1.0956
 Frc consts  --      6.7227                 7.7003                 8.3959
 IR Inten    --     19.1888                11.0042                47.4966

 - Thermochemistry -
 -------------------
 Temperature   298.150 Kelvin.  Pressure   1.00000 Atm.
 Atom     1 has atomic number  6 and mass  12.00000

 Molecular mass:   225.09204 amu.
 Principal axes and moments of inertia in atomic units:
                           1         2         3
     Eigenvalues --  2420.562134599.598105776.76651
           X            0.99896   0.04547   0.00144
           Y           -0.04542   0.99868  -0.02408
           Z           -0.00254   0.02399   0.99971
 This molecule is an asymmetric top.
 Rotational symmetry number  1.
 Warning -- assumption of classical behavior for rotation
           may cause significant error
 Rotational temperatures (Kelvin)      0.03578     0.01883     0.01499
 Rotational constants (GHZ):           0.74559     0.39237     0.31241
    1 imaginary frequencies ignored.
 Zero-point vibrational energy     681428.1 (Joules/Mol)
                                  162.86522 (Kcal/Mol)
 Warning -- explicit consideration of  23 degrees of freedom as
           vibrations may cause significant error
 Vibrational temperatures:     47.53    77.77   103.25   109.09   125.45
          (Kelvin)            166.17   259.28   288.58   325.54   336.30
                              372.09   390.99   403.74   429.56   452.67
                              511.54   535.51   599.31   603.85   647.25
                              726.62   801.56   876.86   913.17   931.24
                              967.25  1051.68  1123.33  1146.39  1213.36
                             1269.58  1298.57  1380.45  1383.56  1456.83
                             1465.24  1476.07  1485.37  1496.52  1498.84
                             1521.52  1525.09  1554.65  1597.96  1598.39
                             1691.97  1702.62  1736.32  1766.51  1791.20
                             1895.68  1947.80  1954.90  1969.04  2031.43
                             2038.91  2057.15  2112.90  2128.11  2140.87
                             2144.72  2149.81  2169.88  2178.37  2186.18
                             2218.84  2324.45  2367.49  2372.90  2409.75
                             4410.36  4416.77  4431.10  4520.32  4521.93
                             4530.57  4561.12  4576.40  4586.12  4595.43
                             4602.32  4608.47  4621.04  4636.39  5073.41
                             5188.79

 Zero-point correction=                           0.259542 (Hartree/Particle)
 Thermal correction to Energy=                    0.275048
 Thermal correction to Enthalpy=                  0.275993
 Thermal correction to Gibbs Free Energy=         0.216152
 Sum of electronic and zero-point Energies=          -1056.828415
 Sum of electronic and thermal Energies=             -1056.812909
 Sum of electronic and thermal Enthalpies=           -1056.811965
 Sum of electronic and thermal Free Energies=        -1056.871805

                     E (Thermal)             CV                S
                      KCal/Mol        Cal/Mol-Kelvin    Cal/Mol-Kelvin
 Total                  172.596             57.787            125.945
 Electronic               0.000              0.000              0.000
 Translational            0.889              2.981             42.136
 Rotational               0.889              2.981             32.531
 Vibrational            170.818             51.825             51.277
 Vibration     1          0.594              1.983              5.638
 Vibration     2          0.596              1.976              4.663
 Vibration     3          0.598              1.967              4.104
 Vibration     4          0.599              1.965              3.996
 Vibration     5          0.601              1.958              3.722
 Vibration     6          0.608              1.937              3.174
 Vibration     7          0.629              1.867              2.326
 Vibration     8          0.638              1.839              2.128
 Vibration     9          0.650              1.801              1.908
 Vibration    10          0.654              1.789              1.850
 Vibration    11          0.667              1.748              1.671
 Vibration    12          0.675              1.725              1.585
 Vibration    13          0.680              1.709              1.530
 Vibration    14          0.692              1.676              1.425
 Vibration    15          0.702              1.646              1.338
 Vibration    16          0.731              1.564              1.142
 Vibration    17          0.744              1.529              1.071
 Vibration    18          0.780              1.434              0.904
 Vibration    19          0.782              1.427              0.893
 Vibration    20          0.809              1.361              0.796
 Vibration    21          0.860              1.239              0.646
 Vibration    22          0.913              1.124              0.530
 Vibration    23          0.968              1.012              0.434

 Optimization completed.
    -- Stationary point found.
 Normal termination of Gaussian 16 at Wed Feb 17 14:39:12 2021.
