 Gaussian 16, Revision A.03,
 Gaussian 16:  ES64L-G16RevA.03 25-Dec-2016

 ----------------------------------------------------------------------
 # wB97XD def2tzvp, opt=(ts, noeigen, calcfc, maxcycles=70, maxstep=5),
  freq=noraman, scrf=(iefpcm, solvent=water)
 ----------------------------------------------------------------------

 ------------------------
 2_iteration/TS-504-2.out
 ------------------------
 Symbolic Z-matrix:
 Charge =  0 Multiplicity = 1

 SCF Done:  E(RwB97XD) =  -636.789120574     A.U. after   15 cycles
 SCF Done:  E(RwB97XD) =  -636.789128729     A.U. after   10 cycles
 SCF Done:  E(RwB97XD) =  -636.789128709     A.U. after    8 cycles
 Optimization completed.
    -- Stationary point found.
 Normal termination of Gaussian 16 at Wed Feb 17 17:00:58 2021.

 ---------------------------------------------------------------------
 #N Geom=AllCheck Guess=TCheck SCRF=Check GenChk RwB97XD/def2TZVP Freq
 ---------------------------------------------------------------------

 Structure from the checkpoint file:  "/beegfs/scratch/user/q/tla25/Gau-25647.chk"
 ------------------------
 2_iteration/TS-504-2.out
 ------------------------
 Charge =  0 Multiplicity = 1

                         Standard orientation:
 ---------------------------------------------------------------------
 Center     Atomic      Atomic             Coordinates (Angstroms)
 Number     Number       Type             X           Y           Z
 ---------------------------------------------------------------------
      1          6           0       -1.130337    1.157401   -0.024533
      2          6           0        0.197915    1.518947   -0.341979
      3          8           0        0.523846    2.630119   -0.821626
      4          6           0       -1.551160   -0.055887    0.604981
      5          6           0       -2.515902   -2.583114   -0.653563
      6          1           0       -2.532576   -3.163297   -1.577228
      7          1           0       -1.995899   -3.154980    0.112566
      8          1           0       -3.539392   -2.404957   -0.331177
      9          7           0       -1.837814   -1.299088   -0.839916
     10          1           0       -0.890820   -1.431640   -1.176284
     11          1           0       -2.317478   -0.725660   -1.524187
     12          6           0       -2.952336   -0.039804    1.180904
     13          1           0       -2.968870    0.656596    2.022491
     14          1           0       -3.700029    0.292058    0.463589
     15          1           0       -3.237857   -1.020889    1.556957
     16          6           0       -0.637055   -0.909012    1.461685
     17          1           0       -0.320532   -0.322723    2.325714
     18          1           0       -1.176709   -1.779980    1.832415
     19          1           0        0.256358   -1.250848    0.950364
     20          6           0       -2.198602    2.142968   -0.447306
     21          1           0       -2.761129    2.553546    0.396781
     22          1           0       -1.731184    2.975899   -0.967564
     23          1           0       -2.933787    1.699130   -1.128549
     24          6           0        1.357767    0.573472   -0.162165
     25          6           0        2.208091    0.694071    0.931564
     26          6           0        3.301207   -0.147316    1.068403
     27          6           0        3.567394   -1.109808    0.102640
     28          6           0        2.741573   -1.214732   -1.007136
     29          6           0        1.644981   -0.373608   -1.139054
     30          1           0        1.997378    1.437013    1.691739
     31          1           0        3.947168   -0.055211    1.932849
     32          1           0        4.419004   -1.769303    0.211728
     33          1           0        2.950388   -1.952016   -1.772347
     34          1           0        1.008681   -0.451550   -2.014084
 ---------------------------------------------------------------------

 SCF Done:  E(RwB97XD) =  -636.789128709     A.U. after    1 cycles

 The electronic state is 1-A.
 Alpha  occ. eigenvalues --  -19.18836 -14.48198 -10.35174 -10.33737 -10.31807
 Alpha  occ. eigenvalues --  -10.29303 -10.29089 -10.29011 -10.28945 -10.28809
 Alpha  occ. eigenvalues --  -10.28741 -10.27768 -10.27626 -10.25876 -10.25051
 Alpha  occ. eigenvalues --   -1.09235  -1.03771  -0.96458  -0.92227  -0.85951
 Alpha  occ. eigenvalues --   -0.85069  -0.83436  -0.79831  -0.78965  -0.75015
 Alpha  occ. eigenvalues --   -0.70617  -0.70361  -0.66500  -0.62932  -0.62201
 Alpha  occ. eigenvalues --   -0.59087  -0.56861  -0.56020  -0.55466  -0.54533
 Alpha  occ. eigenvalues --   -0.52917  -0.52675  -0.50933  -0.50142  -0.49434
 Alpha  occ. eigenvalues --   -0.48366  -0.48264  -0.47431  -0.47051  -0.46211
 Alpha  occ. eigenvalues --   -0.45975  -0.43981  -0.43597  -0.42487  -0.41869
 Alpha  occ. eigenvalues --   -0.41548  -0.40328  -0.33861  -0.33598  -0.30350
 Alpha  occ. eigenvalues --   -0.26064
 Alpha virt. eigenvalues --    0.04763   0.05362   0.05940   0.09537   0.12737
 Alpha virt. eigenvalues --    0.12943   0.13648   0.14890   0.15476   0.15836
 Alpha virt. eigenvalues --    0.16272   0.17165   0.17955   0.18110   0.18582

 Mulliken charges:
               1
     1  C   -0.193501
     2  C    0.213822
     3  O   -0.565422
     4  C    0.096071
     5  C   -0.300718
     6  H    0.156253
     7  H    0.156653
     8  H    0.161356
     9  N   -0.302609
    10  H    0.257866
    11  H    0.279765
    12  C   -0.386128
    13  H    0.155278
    14  H    0.151921
    15  H    0.145697
    16  C   -0.380311
    17  H    0.145557
    18  H    0.144311
    19  H    0.159290
    20  C   -0.426886
    21  H    0.122784
    22  H    0.126256
    23  H    0.115475
    24  C    0.221206
    25  C   -0.258763
    26  C   -0.128390
    27  C   -0.165811
    28  C   -0.127776
    29  C   -0.306291
    30  H    0.141660
    31  H    0.141736
    32  H    0.143133
    33  H    0.142595
    34  H    0.163922
 Sum of Mulliken charges =   0.00000

 Dipole moment (field-independent basis, Debye):
    X=             -5.6807    Y=            -10.9645    Z=              0.7518  Tot=             12.3716
 Quadrupole moment (field-independent basis, Debye-Ang):
   XX=            -79.1444   YY=           -104.1266   ZZ=            -86.2965
   XY=              0.9469   XZ=              6.6821   YZ=             11.7528

  Exact polarizability: 255.874   3.439 245.512   7.653   9.260 204.818
 Approx polarizability: 192.501   0.624 197.991   7.067   8.488 176.408

 ******    1 imaginary frequencies (negative Signs) ******

                      1                      2                      3
                      A                      A                      A
 Frequencies --   -360.9887                34.0291                47.1781
 Red. masses --      5.8966                 3.8694                 2.7663
 Frc consts  --      0.4527                 0.0026                 0.0036
 IR Inten    --    947.0087                 2.5131                 2.8363

                      4                      5                      6
                      A                      A                      A
 Frequencies --     69.1581                78.1692                87.3407
 Red. masses --      2.7801                 3.5675                 3.3529
 Frc consts  --      0.0078                 0.0128                 0.0151
 IR Inten    --      7.4293                 2.8755                 2.2955

                      7                      8                      9
                      A                      A                      A
 Frequencies --    141.8797               175.6101               187.2044
 Red. masses --      2.4170                 1.2378                 1.7123
 Frc consts  --      0.0287                 0.0225                 0.0354
 IR Inten    --      2.5451                 1.5091                 0.3340

                     10                     11                     12
                      A                      A                      A
 Frequencies --    211.9530               221.0914               255.7052
 Red. masses --      1.6538                 1.7240                 2.4465
 Frc consts  --      0.0438                 0.0497                 0.0942
 IR Inten    --      1.1204                 0.7864                 3.7748

                     13                     14                     15
                      A                      A                      A
 Frequencies --    264.9658               291.7033               300.0496
 Red. masses --      2.3581                 1.2916                 1.8969
 Frc consts  --      0.0975                 0.0648                 0.1006
 IR Inten    --     20.5490                 0.3047                 4.3491

                     16                     17                     18
                      A                      A                      A
 Frequencies --    318.1902               350.2506               379.0450
 Red. masses --      3.1132                 2.9735                 3.5847
 Frc consts  --      0.1857                 0.2149                 0.3034
 IR Inten    --      6.7374                 4.6697                18.9436

                     19                     20                     21
                      A                      A                      A
 Frequencies --    393.8351               419.3292               442.9964
 Red. masses --      3.3989                 2.8985                 2.4232
 Frc consts  --      0.3106                 0.3003                 0.2802
 IR Inten    --     16.7315                 1.0263                12.3477

                     22                     23                     24
                      A                      A                      A
 Frequencies --    481.8862               508.6897               592.3841
 Red. masses --      3.1669                 3.3742                 3.1404
 Frc consts  --      0.4333                 0.5144                 0.6493
 IR Inten    --     11.1654               144.3490                49.4950

                     25                     26                     27
                      A                      A                      A
 Frequencies --    612.3281               634.1610               670.5923
 Red. masses --      3.7844                 6.3908                 1.2923
 Frc consts  --      0.8360                 1.5143                 0.3424
 IR Inten    --     14.6286                 0.3151                20.3470

                     28                     29                     30
                      A                      A                      A
 Frequencies --    696.3882               732.5142               780.2577
 Red. masses --      4.9080                 1.5142                 6.5303
 Frc consts  --      1.4024                 0.4787                 2.3424
 IR Inten    --     16.9764                88.0231                29.2278

                     31                     32                     33
                      A                      A                      A
 Frequencies --    809.1769               856.7250               883.0397
 Red. masses --      2.5470                 2.8092                 1.2532
 Frc consts  --      0.9826                 1.2148                 0.5758
 IR Inten    --     79.0973                27.4792                 0.2136

                     34                     35                     36
                      A                      A                      A
 Frequencies --    945.0448               954.6399               969.9953
 Red. masses --      1.7325                 1.3458                 1.9157
 Frc consts  --      0.9116                 0.7226                 1.0620
 IR Inten    --     34.8034                 8.4010                20.3513

                     37                     38                     39
                      A                      A                      A
 Frequencies --   1009.4473              1013.0477              1024.8846
 Red. masses --      1.2425                 1.3634                 4.2761
 Frc consts  --      0.7460                 0.8244                 2.6463
 IR Inten    --     11.6138                14.0098                 2.1111

                     40                     41                     42
                      A                      A                      A
 Frequencies --   1027.5215              1031.1498              1041.1299
 Red. masses --      1.5487                 1.5117                 1.2958
 Frc consts  --      0.9634                 0.9470                 0.8276
 IR Inten    --    101.9583                74.1261                15.5122

                     43                     44                     45
                      A                      A                      A
 Frequencies --   1050.7322              1054.7936              1061.8758
 Red. masses --      1.1859                 2.6203                 1.7967
 Frc consts  --      0.7714                 1.7177                 1.1937
 IR Inten    --     72.6346               233.6646                 4.4926

                     46                     47                     48
                      A                      A                      A
 Frequencies --   1065.6347              1106.5592              1108.5248
 Red. masses --      1.5158                 1.8251                 1.5510
 Frc consts  --      1.0141                 1.3167                 1.1229
 IR Inten    --     23.2039                45.2233                10.7444

                     49                     50                     51
                      A                      A                      A
 Frequencies --   1164.5178              1182.4090              1193.8147
 Red. masses --      2.6295                 1.1423                 3.0704
 Frc consts  --      2.1010                 0.9410                 2.5782
 IR Inten    --     21.8430                 0.1480                20.0435

                     52                     53                     54
                      A                      A                      A
 Frequencies --   1205.6546              1234.2655              1256.2321
 Red. masses --      1.1231                 1.3937                 3.4844
 Frc consts  --      0.9619                 1.2510                 3.2398
 IR Inten    --      0.5660                40.5258                 5.2609

                     55                     56                     57
                      A                      A                      A
 Frequencies --   1316.4239              1350.2384              1357.4870
 Red. masses --      4.2106                 1.3132                 1.4669
 Frc consts  --      4.2992                 1.4106                 1.5927
 IR Inten    --      1.1010                 0.5353                 0.4647

                     58                     59                     60
                      A                      A                      A
 Frequencies --   1394.2084              1405.4641              1411.4237
 Red. masses --      1.4468                 2.1344                 1.2888
 Frc consts  --      1.6570                 2.4841                 1.5127
 IR Inten    --    239.9722               309.2523                31.4925

                     61                     62                     63
                      A                      A                      A
 Frequencies --   1429.4813              1435.7751              1461.5303
 Red. masses --      1.4165                 2.7492                 1.2439
 Frc consts  --      1.7054                 3.3391                 1.5655
 IR Inten    --     69.6269               403.9926                45.1351

                     64                     65                     66
                      A                      A                      A
 Frequencies --   1481.1913              1486.0487              1488.8841
 Red. masses --      1.0608                 1.9722                 1.1432
 Frc consts  --      1.3713                 2.5661                 1.4931
 IR Inten    --      3.2184                18.8022                16.0527

                     67                     68                     69
                      A                      A                      A
 Frequencies --   1492.3953              1495.8072              1499.9796
 Red. masses --      1.0792                 1.1266                 1.0904
 Frc consts  --      1.4162                 1.4851                 1.4454
 IR Inten    --     37.1412               102.3220                14.1263

                     70                     71                     72
                      A                      A                      A
 Frequencies --   1506.6640              1513.5285              1519.0152
 Red. masses --      1.0437                 1.1183                 1.0909
 Frc consts  --      1.3959                 1.5094                 1.4831
 IR Inten    --     20.6552               165.9742                21.0556

                     73                     74                     75
                      A                      A                      A
 Frequencies --   1541.4151              1558.8172              1641.3783
 Red. masses --      2.4876                 5.9738                 1.1431
 Frc consts  --      3.4824                 8.5525                 1.8144
 IR Inten    --      2.1455               882.6897                36.4469

                     76                     77                     78
                      A                      A                      A
 Frequencies --   1646.8519              1673.9429              3015.1050
 Red. masses --      4.5701                 5.9115                 1.0456
 Frc consts  --      7.3026                 9.7596                 5.6005
 IR Inten    --      0.8848                 3.4675               108.9930

                     79                     80                     81
                      A                      A                      A
 Frequencies --   3061.0453              3064.9372              3068.4760
 Red. masses --      1.0969                 1.0397                 1.0359
 Frc consts  --      6.0554                 5.7545                 5.7467
 IR Inten    --     65.9228                17.4921                48.4885

                     82                     83                     84
                      A                      A                      A
 Frequencies --   3075.4114              3135.1725              3140.0300
 Red. masses --      1.0409                 1.0996                 1.0997
 Frc consts  --      5.8006                 6.3679                 6.3884
 IR Inten    --     31.4215                 1.8154                59.2392

                     85                     86                     87
                      A                      A                      A
 Frequencies --   3146.0359              3152.3814              3163.8090
 Red. masses --      1.1018                 1.0937                 1.1031
 Frc consts  --      6.4253                 6.4036                 6.5056
 IR Inten    --     12.8789                17.4294                30.3914

                     88                     89                     90
                      A                      A                      A
 Frequencies --   3172.9543              3179.9967              3190.8764
 Red. masses --      1.1059                 1.0884                 1.0869
 Frc consts  --      6.5598                 6.4850                 6.5201
 IR Inten    --     11.4814                14.0301                 3.9627

                     91                     92                     93
                      A                      A                      A
 Frequencies --   3192.6534              3200.7371              3208.7447
 Red. masses --      1.0975                 1.0903                 1.0947
 Frc consts  --      6.5908                 6.5809                 6.6405
 IR Inten    --      8.9922                 5.4927                43.4143

                     94                     95                     96
                      A                      A                      A
 Frequencies --   3220.8261              3524.4419              3603.5393
 Red. masses --      1.0986                 1.0513                 1.0957
 Frc consts  --      6.7146                 7.6943                 8.3831
 IR Inten    --     22.0990                14.9041                58.5199

 - Thermochemistry -
 -------------------
 Temperature   298.150 Kelvin.  Pressure   1.00000 Atm.
 Atom     1 has atomic number  6 and mass  12.00000

 Molecular mass:   205.14666 amu.
 Principal axes and moments of inertia in atomic units:
                           1         2         3
     Eigenvalues --  2133.361104020.602824955.89811
           X            1.00000   0.00010   0.00307
           Y           -0.00016   0.99980   0.01997
           Z           -0.00307  -0.01997   0.99980
 This molecule is an asymmetric top.
 Rotational symmetry number  1.
 Warning -- assumption of classical behavior for rotation
           may cause significant error
 Rotational temperatures (Kelvin)      0.04060     0.02154     0.01748
 Rotational constants (GHZ):           0.84596     0.44887     0.36416
    1 imaginary frequencies ignored.
 Zero-point vibrational energy     779096.9 (Joules/Mol)
                                  186.20862 (Kcal/Mol)
 Warning -- explicit consideration of  24 degrees of freedom as
           vibrations may cause significant error
 Vibrational temperatures:     48.96    67.88    99.50   112.47   125.66
          (Kelvin)            204.13   252.66   269.35   304.95   318.10
                              367.90   381.23   419.70   431.70   457.80
                              503.93   545.36   566.64   603.32   637.37
                              693.33   731.89   852.31   881.00   912.42
                              964.83  1001.95  1053.92  1122.62  1164.23
                             1232.64  1270.50  1359.71  1373.51  1395.61
                             1452.37  1457.55  1474.58  1478.37  1483.59
                             1497.95  1511.77  1517.61  1527.80  1533.21
                             1592.09  1594.92  1675.48  1701.22  1717.63
                             1734.67  1775.83  1807.44  1894.04  1942.69
                             1953.12  2005.95  2022.15  2030.72  2056.70
                             2065.76  2102.82  2131.10  2138.09  2142.17
                             2147.22  2152.13  2158.14  2167.75  2177.63
                             2185.52  2217.75  2242.79  2361.58  2369.45
                             2408.43  4338.06  4404.16  4409.76  4414.85
                             4424.83  4510.81  4517.80  4526.44  4535.57
                             4552.02  4565.17  4575.31  4590.96  4593.52
                             4605.15  4616.67  4634.05  5070.89  5184.69

 Zero-point correction=                           0.296742 (Hartree/Particle)
 Thermal correction to Energy=                    0.312548
 Thermal correction to Enthalpy=                  0.313492
 Thermal correction to Gibbs Free Energy=         0.253512
 Sum of electronic and zero-point Energies=           -636.492386
 Sum of electronic and thermal Energies=              -636.476581
 Sum of electronic and thermal Enthalpies=            -636.475637
 Sum of electronic and thermal Free Energies=         -636.535617

                     E (Thermal)             CV                S
                      KCal/Mol        Cal/Mol-Kelvin    Cal/Mol-Kelvin
 Total                  196.127             59.718            126.239
 Electronic               0.000              0.000              0.000
 Translational            0.889              2.981             41.860
 Rotational               0.889              2.981             32.119
 Vibrational            194.349             53.756             52.260
 Vibration     1          0.594              1.983              5.579
 Vibration     2          0.595              1.979              4.932
 Vibration     3          0.598              1.969              4.177
 Vibration     4          0.599              1.964              3.936
 Vibration     5          0.601              1.958              3.719
 Vibration     6          0.615              1.911              2.778
 Vibration     7          0.628              1.872              2.375
 Vibration     8          0.632              1.857              2.255
 Vibration     9          0.643              1.823              2.027
 Vibration    10          0.648              1.809              1.950
 Vibration    11          0.666              1.753              1.691
 Vibration    12          0.671              1.737              1.629
 Vibration    13          0.687              1.689              1.464
 Vibration    14          0.693              1.674              1.417
 Vibration    15          0.705              1.639              1.319
 Vibration    16          0.727              1.575              1.165
 Vibration    17          0.749              1.515              1.043
 Vibration    18          0.761              1.483              0.986
 Vibration    19          0.782              1.428              0.894
 Vibration    20          0.803              1.376              0.817
 Vibration    21          0.838              1.290              0.705
 Vibration    22          0.864              1.231              0.637
 Vibration    23          0.950              1.048              0.463
 Vibration    24          0.972              1.006              0.429

 Optimization completed.
    -- Stationary point found.
 Normal termination of Gaussian 16 at Wed Feb 17 18:18:15 2021.
