 Gaussian 16, Revision A.03,
 Gaussian 16:  ES64L-G16RevA.03 25-Dec-2016

 ----------------------------------------------------------------------
 # wB97XD def2tzvp, opt=(ts, noeigen, calcfc, maxcycles=70, maxstep=8),
  freq=noraman, scrf=(iefpcm, solvent=water)
 ----------------------------------------------------------------------

 ------------------------
 1_iteration/TS-538-1.out
 ------------------------
 Symbolic Z-matrix:
 Charge =  0 Multiplicity = 1

 SCF Done:  E(RwB97XD) =  -2979.34764557     A.U. after   15 cycles
 SCF Done:  E(RwB97XD) =  -2979.34764558     A.U. after    6 cycles
 Optimization completed.
    -- Stationary point found.
 Normal termination of Gaussian 16 at Wed Feb 17 09:24:50 2021.

 ---------------------------------------------------------------------
 #N Geom=AllCheck Guess=TCheck SCRF=Check GenChk RwB97XD/def2TZVP Freq
 ---------------------------------------------------------------------

 Structure from the checkpoint file:  "/beegfs/scratch/user/q/tla25/Gau-113052.chk"
 ------------------------
 1_iteration/TS-538-1.out
 ------------------------
 Charge =  0 Multiplicity = 1

                         Standard orientation:
 ---------------------------------------------------------------------
 Center     Atomic      Atomic             Coordinates (Angstroms)
 Number     Number       Type             X           Y           Z
 ---------------------------------------------------------------------
      1          6           0       -1.038988    0.046987   -0.640817
      2          6           0       -1.718604   -0.999541    0.074658
      3          8           0       -2.832113   -1.414190   -0.276941
      4          6           0        0.253995    0.512319   -0.411339
      5          6           0       -0.756264    2.219288    1.585075
      6          1           0       -0.854342    2.479350    2.638485
      7          1           0       -0.652380    3.129583    0.998804
      8          1           0       -1.652645    1.688005    1.260585
      9          7           0        0.392769    1.354938    1.349009
     10          1           0        1.272611    1.853579    1.418974
     11          1           0        0.419379    0.590153    2.012676
     12          6           0        0.789798    1.640401   -1.250917
     13          1           0        0.100447    2.484320   -1.238401
     14          1           0        1.765488    1.971869   -0.904082
     15          1           0        0.893187    1.305401   -2.283867
     16         35           0        1.747948   -0.776163   -0.132799
     17          6           0       -1.857145    0.772780   -1.692526
     18          1           0       -1.362989    0.803759   -2.666501
     19          1           0       -2.799834    0.244438   -1.813132
     20          1           0       -2.087620    1.805263   -1.411980
     21          6           0       -1.182448   -1.565291    1.377237
     22          1           0       -1.637192   -0.996192    2.193573
     23          1           0       -1.512480   -2.598406    1.474906
     24          1           0       -0.104365   -1.528147    1.492146
 ---------------------------------------------------------------------

 SCF Done:  E(RwB97XD) =  -2979.34764558     A.U. after    1 cycles

 The electronic state is 1-A.
 Alpha  occ. eigenvalues -- -483.12462 -62.67322 -56.46420 -56.46092 -56.46078
 Alpha  occ. eigenvalues --  -19.20093 -14.48825 -10.39664 -10.35140 -10.31824
 Alpha  occ. eigenvalues --  -10.29117 -10.27125 -10.26568 -10.26294  -8.81430
 Alpha  occ. eigenvalues --   -6.63524  -6.62489  -6.62445  -2.73913  -2.73630
 Alpha  occ. eigenvalues --   -2.73596  -2.72758  -2.72757  -1.10859  -1.04327
 Alpha  occ. eigenvalues --   -0.94042  -0.86304  -0.83876  -0.81383  -0.79042
 Alpha  occ. eigenvalues --   -0.75077  -0.67727  -0.63559  -0.58945  -0.57650
 Alpha  occ. eigenvalues --   -0.56624  -0.55000  -0.53260  -0.51608  -0.50421
 Alpha  occ. eigenvalues --   -0.49849  -0.48380  -0.47782  -0.47370  -0.46772
 Alpha  occ. eigenvalues --   -0.44396  -0.43338  -0.42615  -0.41656  -0.37041
 Alpha  occ. eigenvalues --   -0.36598  -0.31931  -0.27167
 Alpha virt. eigenvalues --    0.03622   0.04734   0.09762   0.12573   0.13358
 Alpha virt. eigenvalues --    0.14657   0.15484   0.16327   0.16960   0.18001
 Alpha virt. eigenvalues --    0.19035   0.19899   0.20101   0.21282   0.21953

 Mulliken charges:
               1
     1  C   -0.231370
     2  C    0.239579
     3  O   -0.524916
     4  C    0.163841
     5  C   -0.307817
     6  H    0.162069
     7  H    0.164013
     8  H    0.158301
     9  N   -0.325818
    10  H    0.288901
    11  H    0.281155
    12  C   -0.387017
    13  H    0.148068
    14  H    0.156224
    15  H    0.166260
    16  Br  -0.149685
    17  C   -0.389564
    18  H    0.121047
    19  H    0.133652
    20  H    0.127826
    21  C   -0.402777
    22  H    0.151621
    23  H    0.134748
    24  H    0.121661
 Sum of Mulliken charges =  -0.00000

 Dipole moment (field-independent basis, Debye):
    X=              5.5834    Y=              7.8070    Z=              4.6197  Tot=             10.6520
 Quadrupole moment (field-independent basis, Debye-Ang):
   XX=            -94.5151   YY=            -70.3724   ZZ=            -67.2603
   XY=             -6.4103   XZ=             -2.6009   YZ=              1.7849

  Exact polarizability: 196.898  13.793 170.444   7.962   0.951 153.267
 Approx polarizability: 155.534   9.082 137.244   7.128   1.790 126.097

 ******    1 imaginary frequencies (negative Signs) ******

                      1                      2                      3
                      A                      A                      A
 Frequencies --   -385.9647                65.3084                69.4049
 Red. masses --      5.4638                 2.1551                 2.9546
 Frc consts  --      0.4796                 0.0054                 0.0084
 IR Inten    --    706.3210                 7.6153                 9.8795

                      4                      5                      6
                      A                      A                      A
 Frequencies --     91.4376               124.8923               143.0557
 Red. masses --      2.0626                 1.8542                 2.8034
 Frc consts  --      0.0102                 0.0170                 0.0338
 IR Inten    --      5.8916                 1.2003                 3.0427

                      7                      8                      9
                      A                      A                      A
 Frequencies --    147.2262               185.6966               189.7746
 Red. masses --      1.1182                 3.3685                 1.2072
 Frc consts  --      0.0143                 0.0684                 0.0256
 IR Inten    --      1.8646                 4.8089                 1.4998

                     10                     11                     12
                      A                      A                      A
 Frequencies --    222.6271               264.8081               274.3404
 Red. masses --      2.7330                 4.5496                 2.2017
 Frc consts  --      0.0798                 0.1880                 0.0976
 IR Inten    --      5.5305                22.8420                 1.6172

                     13                     14                     15
                      A                      A                      A
 Frequencies --    318.6604               332.3076               341.4223
 Red. masses --      2.1524                 2.6451                 1.6820
 Frc consts  --      0.1288                 0.1721                 0.1155
 IR Inten    --     16.2169                19.7652                16.8069

                     16                     17                     18
                      A                      A                      A
 Frequencies --    372.4510               415.4717               520.8326
 Red. masses --      2.4225                 3.6591                 3.7004
 Frc consts  --      0.1980                 0.3721                 0.5914
 IR Inten    --      2.4120                62.7662                11.2941

                     19                     20                     21
                      A                      A                      A
 Frequencies --    524.8380               611.9651               644.4565
 Red. masses --      3.2588                 3.0986                 2.4976
 Frc consts  --      0.5289                 0.6837                 0.6112
 IR Inten    --     57.5085                71.9630                40.0893

                     22                     23                     24
                      A                      A                      A
 Frequencies --    664.5164               754.8178               946.9418
 Red. masses --      1.5282                 3.0483                 2.0967
 Frc consts  --      0.3976                 1.0233                 1.1078
 IR Inten    --     30.1506               146.2927               117.7373

                     25                     26                     27
                      A                      A                      A
 Frequencies --    981.5913               995.5835              1024.9856
 Red. masses --      1.6629                 1.1115                 1.1389
 Frc consts  --      0.9440                 0.6491                 0.7050
 IR Inten    --    104.8107                57.0048                96.9926

                     28                     29                     30
                      A                      A                      A
 Frequencies --   1039.4992              1052.3595              1065.9493
 Red. masses --      1.5763                 1.5338                 1.5379
 Frc consts  --      1.0036                 1.0008                 1.0296
 IR Inten    --     37.6801                33.8379                15.6714

                     31                     32                     33
                      A                      A                      A
 Frequencies --   1081.0307              1082.3004              1112.8321
 Red. masses --      1.9176                 3.1885                 1.8863
 Frc consts  --      1.3203                 2.2005                 1.3763
 IR Inten    --     37.7596                90.4677                61.4601

                     34                     35                     36
                      A                      A                      A
 Frequencies --   1140.3283              1214.9279              1339.2655
 Red. masses --      3.4139                 1.3992                 1.3506
 Frc consts  --      2.6155                 1.2169                 1.4273
 IR Inten    --     30.1600                27.1546                16.4388

                     37                     38                     39
                      A                      A                      A
 Frequencies --   1355.2784              1389.8497              1392.5743
 Red. masses --      2.7955                 1.3440                 1.4246
 Frc consts  --      3.0253                 1.5296                 1.6277
 IR Inten    --    175.7932                22.7860               126.1686

                     40                     41                     42
                      A                      A                      A
 Frequencies --   1415.3401              1433.4729              1457.7749
 Red. masses --      1.5305                 1.9120                 1.3060
 Frc consts  --      1.8064                 2.3148                 1.6352
 IR Inten    --    369.9058               589.9573               104.6967

                     43                     44                     45
                      A                      A                      A
 Frequencies --   1473.2213              1481.4710              1486.2759
 Red. masses --      1.0843                 1.0931                 1.0615
 Frc consts  --      1.3865                 1.4135                 1.3816
 IR Inten    --     10.4465                42.1873                 0.8924

                     46                     47                     48
                      A                      A                      A
 Frequencies --   1493.8590              1497.2152              1499.4942
 Red. masses --      1.0855                 1.0747                 1.0779
 Frc consts  --      1.4272                 1.4194                 1.4279
 IR Inten    --     61.2843                95.9538                30.5018

                     49                     50                     51
                      A                      A                      A
 Frequencies --   1504.2754              1508.0503              1627.2335
 Red. masses --      1.0470                 1.0609                 8.6963
 Frc consts  --      1.3959                 1.4215                13.5670
 IR Inten    --     36.4691                48.7510               751.2855

                     52                     53                     54
                      A                      A                      A
 Frequencies --   1643.2335              3030.6746              3056.7763
 Red. masses --      1.0926                 1.0427                 1.0462
 Frc consts  --      1.7382                 5.6429                 5.7598
 IR Inten    --     50.4571                93.1121                15.4829

                     55                     56                     57
                      A                      A                      A
 Frequencies --   3063.7991              3071.2023              3083.5867
 Red. masses --      1.0341                 1.0366                 1.0989
 Frc consts  --      5.7193                 5.7609                 6.1564
 IR Inten    --     35.6897                12.6345                52.3419

                     58                     59                     60
                      A                      A                      A
 Frequencies --   3134.9319              3139.7179              3144.4883
 Red. masses --      1.0935                 1.1036                 1.1016
 Frc consts  --      6.3319                 6.4095                 6.4176
 IR Inten    --     22.1149                 6.9186                11.0007

                     61                     62                     63
                      A                      A                      A
 Frequencies --   3155.2687              3166.1064              3168.0355
 Red. masses --      1.0960                 1.1042                 1.1042
 Frc consts  --      6.4289                 6.5215                 6.5297
 IR Inten    --      5.1006                14.0011                13.4339

                     64                     65                     66
                      A                      A                      A
 Frequencies --   3193.9638              3527.4353              3610.1461
 Red. masses --      1.0983                 1.0508                 1.0964
 Frc consts  --      6.6016                 7.7032                 8.4193
 IR Inten    --     10.6646                41.8566                54.1615

 - Thermochemistry -
 -------------------
 Temperature   298.150 Kelvin.  Pressure   1.00000 Atm.
 Atom     1 has atomic number  6 and mass  12.00000

 Molecular mass:   207.02588 amu.
 Principal axes and moments of inertia in atomic units:
                           1         2         3
     Eigenvalues --  1717.407042520.434282910.16784
           X            0.99889   0.04713   0.00168
           Y           -0.04696   0.99735  -0.05564
           Z           -0.00429   0.05550   0.99845
 This molecule is an asymmetric top.
 Rotational symmetry number  1.
 Warning -- assumption of classical behavior for rotation
           may cause significant error
 Rotational temperatures (Kelvin)      0.05043     0.03436     0.02976
 Rotational constants (GHZ):           1.05085     0.71604     0.62015
    1 imaginary frequencies ignored.
 Zero-point vibrational energy     535703.7 (Joules/Mol)
                                  128.03625 (Kcal/Mol)
 Warning -- explicit consideration of  19 degrees of freedom as
           vibrations may cause significant error
 Vibrational temperatures:     93.96    99.86   131.56   179.69   205.83
          (Kelvin)            211.83   267.18   273.04   320.31   381.00
                              394.71   458.48   478.12   491.23   535.87
                              597.77   749.36   755.12   880.48   927.23
                              956.09  1086.01  1362.44  1412.29  1432.42
                             1474.73  1495.61  1514.11  1533.66  1555.36
                             1557.19  1601.12  1640.68  1748.01  1926.90
                             1949.94  1999.68  2003.60  2036.36  2062.45
                             2097.41  2119.64  2131.51  2138.42  2149.33
                             2154.16  2157.44  2164.32  2169.75  2341.23
                             2364.25  4360.46  4398.02  4408.12  4418.78
                             4436.59  4510.47  4517.35  4524.22  4539.73
                             4555.32  4558.10  4595.40  5075.19  5194.20

 Zero-point correction=                           0.204039 (Hartree/Particle)
 Thermal correction to Energy=                    0.216985
 Thermal correction to Enthalpy=                  0.217929
 Thermal correction to Gibbs Free Energy=         0.164464
 Sum of electronic and zero-point Energies=          -2979.143607
 Sum of electronic and thermal Energies=             -2979.130660
 Sum of electronic and thermal Enthalpies=           -2979.129716
 Sum of electronic and thermal Free Energies=        -2979.183182

                     E (Thermal)             CV                S
                      KCal/Mol        Cal/Mol-Kelvin    Cal/Mol-Kelvin
 Total                  136.160             45.661            112.527
 Electronic               0.000              0.000              0.000
 Translational            0.889              2.981             41.887
 Rotational               0.889              2.981             30.911
 Vibrational            134.383             39.700             39.730
 Vibration     1          0.597              1.971              4.290
 Vibration     2          0.598              1.969              4.170
 Vibration     3          0.602              1.955              3.629
 Vibration     4          0.610              1.928              3.023
 Vibration     5          0.616              1.910              2.763
 Vibration     6          0.617              1.906              2.708
 Vibration     7          0.632              1.859              2.270
 Vibration     8          0.633              1.854              2.230
 Vibration     9          0.648              1.807              1.938
 Vibration    10          0.671              1.738              1.630
 Vibration    11          0.677              1.721              1.569
 Vibration    12          0.705              1.638              1.317
 Vibration    13          0.714              1.611              1.249
 Vibration    14          0.721              1.593              1.205
 Vibration    15          0.744              1.529              1.070
 Vibration    16          0.779              1.437              0.907
 Vibration    17          0.876              1.204              0.608
 Vibration    18          0.880              1.195              0.599
 Vibration    19          0.971              1.007              0.430

 Optimization completed.
    -- Stationary point found.
 Normal termination of Gaussian 16 at Wed Feb 17 09:49:43 2021.
