 Gaussian 16, Revision A.03,
 Gaussian 16:  ES64L-G16RevA.03 25-Dec-2016

 ----------------------------------------------------------------------
 # wB97XD def2tzvp, opt=(ts, noeigen, calcfc, maxcycles=70, maxstep=8),
  freq=noraman, scrf=(iefpcm, solvent=water)
 ----------------------------------------------------------------------

 ------------------------
 1_iteration/TS-557-1.out
 ------------------------
 Symbolic Z-matrix:
 Charge =  0 Multiplicity = 1

 SCF Done:  E(RwB97XD) =  -3455.01372208     A.U. after   15 cycles
 SCF Done:  E(RwB97XD) =  -3455.01549996     A.U. after   13 cycles
 SCF Done:  E(RwB97XD) =  -3455.01719719     A.U. after   13 cycles
 SCF Done:  E(RwB97XD) =  -3455.01854670     A.U. after   12 cycles
 SCF Done:  E(RwB97XD) =  -3455.01969939     A.U. after   12 cycles
 SCF Done:  E(RwB97XD) =  -3455.02053603     A.U. after   13 cycles
 SCF Done:  E(RwB97XD) =  -3455.02112424     A.U. after   12 cycles
 SCF Done:  E(RwB97XD) =  -3455.02137294     A.U. after   12 cycles
 SCF Done:  E(RwB97XD) =  -3455.02138469     A.U. after   12 cycles
 SCF Done:  E(RwB97XD) =  -3455.02144321     A.U. after   12 cycles
 SCF Done:  E(RwB97XD) =  -3455.02136124     A.U. after   12 cycles
 SCF Done:  E(RwB97XD) =  -3455.02145022     A.U. after   11 cycles
 SCF Done:  E(RwB97XD) =  -3455.02144529     A.U. after   11 cycles
 SCF Done:  E(RwB97XD) =  -3455.02141668     A.U. after   11 cycles
 SCF Done:  E(RwB97XD) =  -3455.02145319     A.U. after   11 cycles
 SCF Done:  E(RwB97XD) =  -3455.02144147     A.U. after   11 cycles
 SCF Done:  E(RwB97XD) =  -3455.02146113     A.U. after   11 cycles
 SCF Done:  E(RwB97XD) =  -3455.02146122     A.U. after    8 cycles
 SCF Done:  E(RwB97XD) =  -3455.02146125     A.U. after    7 cycles
 Optimization completed.
    -- Stationary point found.
 Normal termination of Gaussian 16 at Tue Feb 16 18:43:36 2021.

 ---------------------------------------------------------------------
 #N Geom=AllCheck Guess=TCheck SCRF=Check GenChk RwB97XD/def2TZVP Freq
 ---------------------------------------------------------------------

 Structure from the checkpoint file:  "/beegfs/scratch/user/q/tla25/Gau-465.chk"
 ------------------------
 1_iteration/TS-557-1.out
 ------------------------
 Charge =  0 Multiplicity = 1

                         Standard orientation:
 ---------------------------------------------------------------------
 Center     Atomic      Atomic             Coordinates (Angstroms)
 Number     Number       Type             X           Y           Z
 ---------------------------------------------------------------------
      1          6           0       -0.542267    0.474753   -0.421272
      2          6           0       -1.431733   -0.522056    0.157237
      3          8           0       -1.020986   -1.326472    1.007267
      4          6           0        0.822234    0.480443   -0.239032
      5          6           0        0.536383    1.759185    2.312475
      6          1           0        0.380552    1.654592    3.387160
      7          1           0        1.162962    2.629500    2.127223
      8          1           0       -0.433619    1.911073    1.834512
      9          7           0        1.150549    0.577847    1.731242
     10          1           0        2.126820    0.472469    1.977368
     11          1           0        0.639200   -0.267921    1.969330
     12          6           0        1.679591    1.608442   -0.726566
     13          1           0        1.280751    2.561746   -0.381946
     14          1           0        2.700722    1.497306   -0.370408
     15          1           0        1.691168    1.617896   -1.817484
     16         35           0        1.771457   -1.230511   -0.464770
     17         17           0       -1.282102    1.887522   -1.177157
     18          7           0       -2.723970   -0.530577   -0.232477
     19          6           0       -3.684256   -1.446925    0.334609
     20          1           0       -3.022890    0.110705   -0.943858
     21          1           0       -3.438139   -2.484014    0.097059
     22          1           0       -3.725284   -1.347567    1.420605
     23          1           0       -4.665379   -1.217949   -0.075125
 ---------------------------------------------------------------------

 SCF Done:  E(RwB97XD) =  -3455.02146125     A.U. after    1 cycles

 The electronic state is 1-A.
 Alpha  occ. eigenvalues -- -483.12468-101.69556 -62.67317 -56.46430 -56.46082
 Alpha  occ. eigenvalues --  -56.46068 -19.20839 -14.46995 -14.45119 -10.39643
 Alpha  occ. eigenvalues --  -10.38542 -10.31526 -10.31319 -10.30903 -10.29214
 Alpha  occ. eigenvalues --   -9.58078  -8.81423  -7.32709  -7.31881  -7.31840
 Alpha  occ. eigenvalues --   -6.63560  -6.62460  -6.62411  -2.73944  -2.73641
 Alpha  occ. eigenvalues --   -2.73603  -2.72712  -2.72712  -1.13587  -1.02910
 Alpha  occ. eigenvalues --   -1.02039  -0.97331  -0.91656  -0.83853  -0.82456
 Alpha  occ. eigenvalues --   -0.78570  -0.78191  -0.68951  -0.65521  -0.62387
 Alpha  occ. eigenvalues --   -0.59045  -0.57139  -0.56173  -0.55104  -0.53942
 Alpha  occ. eigenvalues --   -0.52892  -0.51667  -0.49931  -0.48244  -0.47942
 Alpha  occ. eigenvalues --   -0.47303  -0.47222  -0.44551  -0.42933  -0.41870
 Alpha  occ. eigenvalues --   -0.40757  -0.37617  -0.36434  -0.34095  -0.33742
 Alpha  occ. eigenvalues --   -0.27422
 Alpha virt. eigenvalues --    0.02716   0.05972   0.10457   0.11857   0.13004
 Alpha virt. eigenvalues --    0.14681   0.15005   0.15957   0.16096   0.17332
 Alpha virt. eigenvalues --    0.17944   0.19885   0.20125   0.20400   0.20932

 Mulliken charges:
               1
     1  C   -0.301882
     2  C    0.424740
     3  O   -0.557903
     4  C    0.201314
     5  C   -0.299036
     6  H    0.151899
     7  H    0.156675
     8  H    0.150248
     9  N   -0.362576
    10  H    0.280516
    11  H    0.277139
    12  C   -0.377928
    13  H    0.151874
    14  H    0.153846
    15  H    0.163046
    16  Br  -0.133791
    17  Cl  -0.164050
    18  N   -0.321019
    19  C   -0.246893
    20  H    0.253074
    21  H    0.128871
    22  H    0.129154
    23  H    0.142681
 Sum of Mulliken charges =  -0.00000

 Dipole moment (field-independent basis, Debye):
    X=              0.8919    Y=              4.0918    Z=              2.4608  Tot=              4.8574
 Quadrupole moment (field-independent basis, Debye-Ang):
   XX=            -71.6884   YY=            -89.0931   ZZ=            -81.1220
   XY=              6.4574   XZ=              7.2926   YZ=              6.1398

  Exact polarizability: 205.963  -3.689 175.447  13.687  -2.143 161.418
 Approx polarizability: 157.532  -6.773 146.850  11.737  -5.715 136.861

 ******    1 imaginary frequencies (negative Signs) ******

                      1                      2                      3
                      A                      A                      A
 Frequencies --   -382.1994                53.1561                81.3499
 Red. masses --      5.5742                 3.9700                 1.3674
 Frc consts  --      0.4798                 0.0066                 0.0053
 IR Inten    --    617.6488                 7.4544                 0.6928

                      4                      5                      6
                      A                      A                      A
 Frequencies --     93.6968                97.4099               127.3560
 Red. masses --      4.8382                 3.0671                 2.7573
 Frc consts  --      0.0250                 0.0171                 0.0263
 IR Inten    --     17.0180                 0.8908                 2.5432

                      7                      8                      9
                      A                      A                      A
 Frequencies --    132.3601               149.6414               169.1636
 Red. masses --      2.6159                 4.0007                 4.4194
 Frc consts  --      0.0270                 0.0528                 0.0745
 IR Inten    --     11.1588                22.0335                20.9352

                     10                     11                     12
                      A                      A                      A
 Frequencies --    197.2189               226.4445               254.2612
 Red. masses --      1.2528                 3.9044                 2.4283
 Frc consts  --      0.0287                 0.1180                 0.0925
 IR Inten    --      2.6701                 1.4677                 0.1225

                     13                     14                     15
                      A                      A                      A
 Frequencies --    265.0059               266.4743               299.6365
 Red. masses --      5.4206                 2.0058                 2.9269
 Frc consts  --      0.2243                 0.0839                 0.1548
 IR Inten    --     30.3849                 1.5403                25.4559

                     16                     17                     18
                      A                      A                      A
 Frequencies --    320.5242               340.4901               405.4402
 Red. masses --      3.5597                 2.0847                 1.5121
 Frc consts  --      0.2155                 0.1424                 0.1465
 IR Inten    --     34.1948                 3.6779                57.1963

                     19                     20                     21
                      A                      A                      A
 Frequencies --    423.1279               459.6781               506.1313
 Red. masses --      2.9744                 5.2518                 4.5881
 Frc consts  --      0.3138                 0.6538                 0.6925
 IR Inten    --     36.5123                11.4198               100.9749

                     22                     23                     24
                      A                      A                      A
 Frequencies --    633.3874               700.6913               782.8861
 Red. masses --      1.8472                 2.2939                 8.2021
 Frc consts  --      0.4366                 0.6636                 2.9619
 IR Inten    --     67.8081               186.8396                44.4262

                     25                     26                     27
                      A                      A                      A
 Frequencies --    792.1041               977.5340               983.4850
 Red. masses --      4.7120                 1.1318                 3.1338
 Frc consts  --      1.7419                 0.6372                 1.7859
 IR Inten    --     41.7041               102.4731                19.7940

                     28                     29                     30
                      A                      A                      A
 Frequencies --   1029.5872              1047.5481              1055.1184
 Red. masses --      1.5408                 1.4318                 1.4663
 Frc consts  --      0.9623                 0.9257                 0.9618
 IR Inten    --     50.8451                36.9783               115.1621

                     31                     32                     33
                      A                      A                      A
 Frequencies --   1090.8024              1124.5623              1157.0346
 Red. masses --      3.9418                 3.0485                 1.3055
 Frc consts  --      2.7634                 2.2714                 1.0297
 IR Inten    --     11.0236                79.5813                 1.1845

                     34                     35                     36
                      A                      A                      A
 Frequencies --   1169.0780              1191.2177              1194.7847
 Red. masses --      3.4130                 1.7876                 1.4076
 Frc consts  --      2.7483                 1.4945                 1.1839
 IR Inten    --      7.7931                24.5428                25.7180

                     37                     38                     39
                      A                      A                      A
 Frequencies --   1307.6661              1349.0760              1415.2709
 Red. masses --      2.1787                 1.3112                 1.2378
 Frc consts  --      2.1950                 1.4060                 1.4608
 IR Inten    --    322.3148                 8.1098                21.4037

                     40                     41                     42
                      A                      A                      A
 Frequencies --   1451.7085              1458.8362              1465.1727
 Red. masses --      1.4243                 1.2109                 1.2822
 Frc consts  --      1.7685                 1.5183                 1.6218
 IR Inten    --    255.9043                28.3456                94.0339

                     43                     44                     45
                      A                      A                      A
 Frequencies --   1476.1780              1485.2011              1491.9770
 Red. masses --      1.0439                 1.0527                 1.0704
 Frc consts  --      1.3402                 1.3681                 1.4039
 IR Inten    --     15.2674                12.7955                24.3597

                     46                     47                     48
                      A                      A                      A
 Frequencies --   1499.2571              1507.0723              1509.0417
 Red. masses --      1.8529                 1.0848                 1.0878
 Frc consts  --      2.4539                 1.4517                 1.4594
 IR Inten    --    300.7800                37.4220                13.5430

                     49                     50                     51
                      A                      A                      A
 Frequencies --   1565.2268              1634.0294              1661.5946
 Red. masses --      2.1545                 1.4883                 2.7431
 Frc consts  --      3.1099                 2.3413                 4.4621
 IR Inten    --    694.3710               287.9622               172.9386

                     52                     53                     54
                      A                      A                      A
 Frequencies --   3051.6028              3056.5834              3072.4773
 Red. masses --      1.0363                 1.0337                 1.0367
 Frc consts  --      5.6860                 5.6899                 5.7661
 IR Inten    --     73.8487                47.5229                 7.4431

                     55                     56                     57
                      A                      A                      A
 Frequencies --   3109.8413              3125.4774              3147.6185
 Red. masses --      1.1037                 1.1040                 1.1011
 Frc consts  --      6.2888                 6.3540                 6.4274
 IR Inten    --     41.0639                17.4820                 8.5077

                     58                     59                     60
                      A                      A                      A
 Frequencies --   3157.1132              3163.5818              3171.5147
 Red. masses --      1.1044                 1.1015                 1.1035
 Frc consts  --      6.4858                 6.4954                 6.5399
 IR Inten    --     21.2558                22.3393                11.2329

                     61                     62                     63
                      A                      A                      A
 Frequencies --   3488.0736              3603.2094              3685.1461
 Red. masses --      1.0547                 1.0935                 1.0780
 Frc consts  --      7.5607                 8.3645                 8.6257
 IR Inten    --     48.6918                93.7019                96.1925

 - Thermochemistry -
 -------------------
 Temperature   298.150 Kelvin.  Pressure   1.00000 Atm.
 Atom     1 has atomic number  6 and mass  12.00000

 Molecular mass:   241.98215 amu.
 Principal axes and moments of inertia in atomic units:
                           1         2         3
     Eigenvalues --  2288.832653552.884814183.77496
           X            0.98852   0.15025   0.01567
           Y           -0.15077   0.98779   0.03922
           Z           -0.00958  -0.04114   0.99911
 This molecule is an asymmetric top.
 Rotational symmetry number  1.
 Warning -- assumption of classical behavior for rotation
           may cause significant error
 Rotational temperatures (Kelvin)      0.03784     0.02438     0.02070
 Rotational constants (GHZ):           0.78850     0.50797     0.43137
    1 imaginary frequencies ignored.
 Zero-point vibrational energy     483936.9 (Joules/Mol)
                                  115.66370 (Kcal/Mol)
 Warning -- explicit consideration of  20 degrees of freedom as
           vibrations may cause significant error
 Vibrational temperatures:     76.48   117.04   134.81   140.15   183.24
          (Kelvin)            190.44   215.30   243.39   283.75   325.80
                              365.83   381.28   383.40   431.11   461.16
                              489.89   583.34   608.79   661.37   728.21
                              911.30  1008.14  1126.40  1139.66  1406.45
                             1415.02  1481.35  1507.19  1518.08  1569.42
                             1617.99  1664.71  1682.04  1713.90  1719.03
                             1881.44  1941.02  2036.26  2088.68  2098.94
                             2108.06  2123.89  2136.87  2146.62  2157.10
                             2168.34  2171.17  2252.01  2351.00  2390.66
                             4390.58  4397.74  4420.61  4474.37  4496.86
                             4528.72  4542.38  4551.69  4563.10  5018.56
                             5184.21  5302.10

 Zero-point correction=                           0.184322 (Hartree/Particle)
 Thermal correction to Energy=                    0.198400
 Thermal correction to Enthalpy=                  0.199344
 Thermal correction to Gibbs Free Energy=         0.142722
 Sum of electronic and zero-point Energies=          -3454.837139
 Sum of electronic and thermal Energies=             -3454.823061
 Sum of electronic and thermal Enthalpies=           -3454.822117
 Sum of electronic and thermal Free Energies=        -3454.878740

                     E (Thermal)             CV                S
                      KCal/Mol        Cal/Mol-Kelvin    Cal/Mol-Kelvin
 Total                  124.498             48.255            119.173
 Electronic               0.000              0.000              0.000
 Translational            0.889              2.981             42.352
 Rotational               0.889              2.981             31.898
 Vibrational            122.721             42.293             44.922
 Vibration     1          0.596              1.976              4.696
 Vibration     2          0.600              1.962              3.858
 Vibration     3          0.603              1.954              3.581
 Vibration     4          0.603              1.951              3.505
 Vibration     5          0.611              1.926              2.986
 Vibration     6          0.612              1.921              2.911
 Vibration     7          0.618              1.903              2.677
 Vibration     8          0.625              1.880              2.445
 Vibration     9          0.637              1.844              2.159
 Vibration    10          0.650              1.801              1.907
 Vibration    11          0.665              1.756              1.701
 Vibration    12          0.671              1.737              1.629
 Vibration    13          0.672              1.735              1.619
 Vibration    14          0.692              1.674              1.419
 Vibration    15          0.706              1.634              1.307
 Vibration    16          0.720              1.595              1.210
 Vibration    17          0.770              1.458              0.943
 Vibration    18          0.785              1.420              0.881
 Vibration    19          0.818              1.339              0.767
 Vibration    20          0.861              1.236              0.643

 Optimization completed.
    -- Stationary point found.
 Normal termination of Gaussian 16 at Tue Feb 16 19:08:57 2021.
