 Gaussian 16, Revision A.03,
 Gaussian 16:  ES64L-G16RevA.03 25-Dec-2016

 ----------------------------------------------------------------------
 # wB97XD def2tzvp, opt=(ts, noeigen, calcfc, maxcycles=70, maxstep=5),
  freq=noraman, scrf=(iefpcm, solvent=water)
 ----------------------------------------------------------------------

 ------------------------
 2_iteration/TS-588-2.out
 ------------------------
 Symbolic Z-matrix:
 Charge =  0 Multiplicity = 1

 SCF Done:  E(RwB97XD) =  -3474.88578873     A.U. after   15 cycles
 SCF Done:  E(RwB97XD) =  -3474.88578884     A.U. after    6 cycles
 Optimization completed.
    -- Stationary point found.
 Normal termination of Gaussian 16 at Wed Feb 17 10:40:15 2021.

 ---------------------------------------------------------------------
 #N Geom=AllCheck Guess=TCheck SCRF=Check GenChk RwB97XD/def2TZVP Freq
 ---------------------------------------------------------------------

 Structure from the checkpoint file:  "/beegfs/scratch/user/q/tla25/Gau-26834.chk"
 ------------------------
 2_iteration/TS-588-2.out
 ------------------------
 Charge =  0 Multiplicity = 1

                         Standard orientation:
 ---------------------------------------------------------------------
 Center     Atomic      Atomic             Coordinates (Angstroms)
 Number     Number       Type             X           Y           Z
 ---------------------------------------------------------------------
      1          6           0        0.277254    0.211609   -0.264527
      2          6           0       -0.523671    1.400349   -0.089440
      3          8           0       -0.121502    2.547421   -0.120066
      4          6           0       -0.177431   -1.088740   -0.413545
      5          6           0       -0.245845   -1.376658    2.446190
      6          1           0       -0.820839   -1.381745    3.372683
      7          1           0        0.535302   -2.131660    2.508468
      8          1           0        0.216722   -0.395664    2.325663
      9          7           0       -1.083280   -1.634437    1.284745
     10          1           0       -1.403896   -2.594230    1.238552
     11          1           0       -1.889987   -1.021349    1.265790
     12          6           0        0.771066   -2.242339   -0.563174
     13          1           0        1.495430   -2.252896    0.248832
     14          1           0        0.225980   -3.182815   -0.575504
     15          1           0        1.314285   -2.143315   -1.504046
     16         17           0       -1.622245   -1.348495   -1.437902
     17         35           0        2.153786    0.514189   -0.094932
     18          8           0       -1.815426    1.111350    0.172919
     19          6           0       -2.700578    2.219777    0.297486
     20          1           0       -3.683912    1.792253    0.473752
     21          1           0       -2.411148    2.853276    1.135534
     22          1           0       -2.708680    2.812861   -0.616759
 ---------------------------------------------------------------------

 SCF Done:  E(RwB97XD) =  -3474.88578884     A.U. after    1 cycles

 The electronic state is 1-A.
 Alpha  occ. eigenvalues -- -483.12596-101.69823 -62.67425 -56.46544 -56.46185
 Alpha  occ. eigenvalues --  -56.46181 -19.29281 -19.22393 -14.47738 -10.41185
 Alpha  occ. eigenvalues --  -10.40979 -10.33119 -10.31701 -10.31579 -10.29413
 Alpha  occ. eigenvalues --   -9.58420  -8.81537  -7.33066  -7.32206  -7.32158
 Alpha  occ. eigenvalues --   -6.63694  -6.62546  -6.62535  -2.74082  -2.73745
 Alpha  occ. eigenvalues --   -2.73736  -2.72808  -2.72807  -1.20813  -1.11214
 Alpha  occ. eigenvalues --   -1.03787  -0.98181  -0.91651  -0.85066  -0.84458
 Alpha  occ. eigenvalues --   -0.78666  -0.78160  -0.69669  -0.64164  -0.62891
 Alpha  occ. eigenvalues --   -0.59643  -0.58237  -0.57259  -0.56933  -0.54934
 Alpha  occ. eigenvalues --   -0.52553  -0.52276  -0.50230  -0.49031  -0.48340
 Alpha  occ. eigenvalues --   -0.47705  -0.45748  -0.44721  -0.44120  -0.40526
 Alpha  occ. eigenvalues --   -0.40060  -0.38550  -0.37887  -0.37470  -0.35882
 Alpha  occ. eigenvalues --   -0.28304
 Alpha virt. eigenvalues --    0.02554   0.06673   0.09784   0.10467   0.13266
 Alpha virt. eigenvalues --    0.14276   0.15269   0.15627   0.16672   0.17382
 Alpha virt. eigenvalues --    0.18662   0.19589   0.20039   0.20310   0.20733

 Mulliken charges:
               1
     1  C   -0.300694
     2  C    0.418248
     3  O   -0.469766
     4  C    0.214183
     5  C   -0.298301
     6  H    0.155862
     7  H    0.158581
     8  H    0.151459
     9  N   -0.368929
    10  H    0.284236
    11  H    0.280357
    12  C   -0.376519
    13  H    0.153529
    14  H    0.153692
    15  H    0.164187
    16  Cl  -0.110950
    17  Br  -0.117682
    18  O   -0.304245
    19  C   -0.196099
    20  H    0.142282
    21  H    0.132475
    22  H    0.134095
 Sum of Mulliken charges =  -0.00000

 Dipole moment (field-independent basis, Debye):
    X=             -4.3305    Y=             -7.3229    Z=              4.6572  Tot=              9.6989
 Quadrupole moment (field-independent basis, Debye-Ang):
   XX=            -79.6238   YY=            -84.4329   ZZ=            -80.2417
   XY=             -5.3512   XZ=             -5.2934   YZ=             -4.7046

  Exact polarizability: 181.578  13.070 187.544   0.790  -5.486 147.870
 Approx polarizability: 148.458  11.936 150.586   1.689  -3.419 124.428

 ******    1 imaginary frequencies (negative Signs) ******

                      1                      2                      3
                      A                      A                      A
 Frequencies --   -357.6327                55.0508                71.9713
 Red. masses --      5.5521                 3.4522                 6.0368
 Frc consts  --      0.4184                 0.0062                 0.0184
 IR Inten    --    682.4742                 0.5566                 4.3995

                      4                      5                      6
                      A                      A                      A
 Frequencies --     81.4715                99.8567               133.2672
 Red. masses --      3.5276                 3.6510                 2.5668
 Frc consts  --      0.0138                 0.0214                 0.0269
 IR Inten    --      2.6012                 6.4146                 3.7464

                      7                      8                      9
                      A                      A                      A
 Frequencies --    160.0462               176.5999               182.1789
 Red. masses --      1.4722                 2.2661                 1.8037
 Frc consts  --      0.0222                 0.0416                 0.0353
 IR Inten    --      4.1866                 0.6214                 2.9969

                     10                     11                     12
                      A                      A                      A
 Frequencies --    199.0924               205.4122               263.2117
 Red. masses --      2.3123                 5.7326                 2.7108
 Frc consts  --      0.0540                 0.1425                 0.1107
 IR Inten    --      3.8971                 7.8837                 2.0725

                     13                     14                     15
                      A                      A                      A
 Frequencies --    271.8959               295.3739               306.2061
 Red. masses --      2.4621                 2.0996                 4.3769
 Frc consts  --      0.1072                 0.1079                 0.2418
 IR Inten    --      6.7785                19.0260                20.4107

                     16                     17                     18
                      A                      A                      A
 Frequencies --    315.3014               361.8902               388.6060
 Red. masses --      2.9098                 3.4079                 4.6008
 Frc consts  --      0.1704                 0.2630                 0.4094
 IR Inten    --     11.4281                16.2505                10.2029

                     19                     20                     21
                      A                      A                      A
 Frequencies --    481.6618               528.0732               638.0482
 Red. masses --      4.6376                 5.2808                 1.4674
 Frc consts  --      0.6339                 0.8676                 0.3520
 IR Inten    --     50.4014                62.9846                35.1189

                     22                     23                     24
                      A                      A                      A
 Frequencies --    723.3834               777.9281               789.5319
 Red. masses --      3.6922                 6.1051                11.2152
 Frc consts  --      1.1383                 2.1768                 4.1191
 IR Inten    --    162.8610                48.4665                58.2646

                     25                     26                     27
                      A                      A                      A
 Frequencies --    924.3290               986.2040              1019.8394
 Red. masses --      4.9463                 1.0898                 1.1655
 Frc consts  --      2.4899                 0.6245                 0.7142
 IR Inten    --     33.3349                51.6695                83.0285

                     28                     29                     30
                      A                      A                      A
 Frequencies --   1051.5624              1063.9019              1088.1960
 Red. masses --      1.6086                 1.9180                 3.8341
 Frc consts  --      1.0480                 1.2791                 2.6750
 IR Inten    --     87.7124                25.1298                 5.8630

                     31                     32                     33
                      A                      A                      A
 Frequencies --   1101.7095              1134.9649              1181.8319
 Red. masses --      4.1371                 4.2157                 1.2807
 Frc consts  --      2.9586                 3.1995                 1.0539
 IR Inten    --     80.7360               196.2233                 1.5838

                     34                     35                     36
                      A                      A                      A
 Frequencies --   1203.4530              1218.7279              1300.8300
 Red. masses --      1.4193                 1.5486                 6.3305
 Frc consts  --      1.2111                 1.3552                 6.3114
 IR Inten    --     30.1852                65.4424               628.5676

                     37                     38                     39
                      A                      A                      A
 Frequencies --   1343.3369              1416.2289              1443.7394
 Red. masses --      1.3303                 1.2758                 1.9177
 Frc consts  --      1.4144                 1.5076                 2.3551
 IR Inten    --      0.9503                64.7240               425.1177

                     40                     41                     42
                      A                      A                      A
 Frequencies --   1461.8407              1478.0143              1481.0059
 Red. masses --      1.3555                 1.1054                 1.1313
 Frc consts  --      1.7067                 1.4227                 1.4619
 IR Inten    --    121.2642                26.9697                45.8120

                     43                     44                     45
                      A                      A                      A
 Frequencies --   1482.8679              1490.8589              1494.4116
 Red. masses --      1.0462                 1.1457                 1.1318
 Frc consts  --      1.3554                 1.5004                 1.4893
 IR Inten    --     14.0944                41.1592                34.3400

                     46                     47                     48
                      A                      A                      A
 Frequencies --   1498.2124              1505.7413              1642.1138
 Red. masses --      1.1962                 1.0351                 1.0946
 Frc consts  --      1.5820                 1.3827                 1.7391
 IR Inten    --    134.9275                 9.1507                78.5323

                     49                     50                     51
                      A                      A                      A
 Frequencies --   1719.6074              3061.8775              3068.0041
 Red. masses --     11.2934                 1.0334                 1.0304
 Frc consts  --     19.6758                 5.7084                 5.7145
 IR Inten    --    903.0253                36.7954                54.5603

                     52                     53                     54
                      A                      A                      A
 Frequencies --   3075.9729              3134.1148              3146.7993
 Red. masses --      1.0373                 1.1043                 1.1071
 Frc consts  --      5.7823                 6.3912                 6.4591
 IR Inten    --      4.9539                15.0371                32.2077

                     55                     56                     57
                      A                      A                      A
 Frequencies --   3153.4219              3160.5931              3177.3488
 Red. masses --      1.1002                 1.1049                 1.1044
 Frc consts  --      6.4458                 6.5027                 6.5689
 IR Inten    --      7.5945                17.8388                12.7973

                     58                     59                     60
                      A                      A                      A
 Frequencies --   3178.5305              3529.8538              3617.0151
 Red. masses --      1.1060                 1.0500                 1.0969
 Frc consts  --      6.5832                 7.7080                 8.4550
 IR Inten    --     20.0478                43.2394                66.8452

 - Thermochemistry -
 -------------------
 Temperature   298.150 Kelvin.  Pressure   1.00000 Atm.
 Atom     1 has atomic number  6 and mass  12.00000

 Molecular mass:   242.96617 amu.
 Principal axes and moments of inertia in atomic units:
                           1         2         3
     Eigenvalues --  2428.334653123.185924078.27608
           X            0.98429  -0.17516  -0.02216
           Y            0.17431   0.98404  -0.03577
           Z            0.02807   0.03135   0.99911
 This molecule is an asymmetric top.
 Rotational symmetry number  1.
 Warning -- assumption of classical behavior for rotation
           may cause significant error
 Rotational temperatures (Kelvin)      0.03567     0.02773     0.02124
 Rotational constants (GHZ):           0.74320     0.57785     0.44253
    1 imaginary frequencies ignored.
 Zero-point vibrational energy     451848.2 (Joules/Mol)
                                  107.99431 (Kcal/Mol)
 Warning -- explicit consideration of  19 degrees of freedom as
           vibrations may cause significant error
 Vibrational temperatures:     79.21   103.55   117.22   143.67   191.74
          (Kelvin)            230.27   254.09   262.11   286.45   295.54
                              378.70   391.20   424.98   440.56   453.65
                              520.68   559.12   693.00   759.78   918.01
                             1040.79  1119.27  1135.96  1329.90  1418.93
                             1467.32  1512.96  1530.72  1565.67  1585.11
                             1632.96  1700.39  1731.50  1753.48  1871.60
                             1932.76  2037.64  2077.22  2103.26  2126.53
                             2130.84  2133.52  2145.01  2150.13  2155.59
                             2166.43  2362.64  2474.13  4405.36  4414.17
                             4425.64  4509.29  4527.54  4537.07  4547.39
                             4571.50  4573.20  5078.67  5204.08

 Zero-point correction=                           0.172100 (Hartree/Particle)
 Thermal correction to Energy=                    0.185723
 Thermal correction to Enthalpy=                  0.186667
 Thermal correction to Gibbs Free Energy=         0.130878
 Sum of electronic and zero-point Energies=          -3474.713689
 Sum of electronic and thermal Energies=             -3474.700066
 Sum of electronic and thermal Enthalpies=           -3474.699122
 Sum of electronic and thermal Free Energies=        -3474.754911

                     E (Thermal)             CV                S
                      KCal/Mol        Cal/Mol-Kelvin    Cal/Mol-Kelvin
 Total                  116.543             46.568            117.418
 Electronic               0.000              0.000              0.000
 Translational            0.889              2.981             42.364
 Rotational               0.889              2.981             31.803
 Vibrational            114.765             40.606             43.250
 Vibration     1          0.596              1.976              4.627
 Vibration     2          0.598              1.967              4.099
 Vibration     3          0.600              1.962              3.855
 Vibration     4          0.604              1.949              3.457
 Vibration     5          0.613              1.920              2.898
 Vibration     6          0.622              1.891              2.549
 Vibration     7          0.628              1.871              2.364
 Vibration     8          0.630              1.864              2.306
 Vibration     9          0.637              1.841              2.141
 Vibration    10          0.640              1.832              2.084
 Vibration    11          0.670              1.740              1.640
 Vibration    12          0.675              1.725              1.584
 Vibration    13          0.690              1.682              1.443
 Vibration    14          0.697              1.662              1.383
 Vibration    15          0.703              1.644              1.334
 Vibration    16          0.736              1.551              1.114
 Vibration    17          0.757              1.495              1.005
 Vibration    18          0.838              1.291              0.706
 Vibration    19          0.883              1.188              0.592

 Optimization completed.
    -- Stationary point found.
 Normal termination of Gaussian 16 at Wed Feb 17 11:04:06 2021.
