 Gaussian 16, Revision A.03,
 Gaussian 16:  ES64L-G16RevA.03 25-Dec-2016

 ----------------------------------------------------------------------
 # wB97XD def2tzvp, opt=(ts, noeigen, calcfc, maxcycles=70, maxstep=8),
  freq=noraman, scrf=(iefpcm, solvent=water)
 ----------------------------------------------------------------------

 ------------------------
 1_iteration/TS-501-1.out
 ------------------------
 Symbolic Z-matrix:
 Charge =  0 Multiplicity = 1

 SCF Done:  E(RwB97XD) =  -500.419006958     A.U. after   14 cycles
 SCF Done:  E(RwB97XD) =  -500.421427878     A.U. after   13 cycles
 SCF Done:  E(RwB97XD) =  -500.423008312     A.U. after   12 cycles
 SCF Done:  E(RwB97XD) =  -500.423901684     A.U. after   12 cycles
 SCF Done:  E(RwB97XD) =  -500.424255543     A.U. after   12 cycles
 SCF Done:  E(RwB97XD) =  -500.424354849     A.U. after   12 cycles
 SCF Done:  E(RwB97XD) =  -500.424369147     A.U. after   11 cycles
 SCF Done:  E(RwB97XD) =  -500.424319504     A.U. after   12 cycles
 SCF Done:  E(RwB97XD) =  -500.424280453     A.U. after   12 cycles
 SCF Done:  E(RwB97XD) =  -500.424386127     A.U. after   12 cycles
 SCF Done:  E(RwB97XD) =  -500.424956467     A.U. after   12 cycles
 SCF Done:  E(RwB97XD) =  -500.424951595     A.U. after   11 cycles
 SCF Done:  E(RwB97XD) =  -500.424957741     A.U. after   11 cycles
 SCF Done:  E(RwB97XD) =  -500.424916874     A.U. after   11 cycles
 SCF Done:  E(RwB97XD) =  -500.424957659     A.U. after   11 cycles
 SCF Done:  E(RwB97XD) =  -500.424957879     A.U. after    8 cycles
 SCF Done:  E(RwB97XD) =  -500.424957944     A.U. after    8 cycles
 SCF Done:  E(RwB97XD) =  -500.424957945     A.U. after    7 cycles
 SCF Done:  E(RwB97XD) =  -500.424957948     A.U. after    6 cycles
 Optimization completed.
    -- Stationary point found.
 Normal termination of Gaussian 16 at Tue Feb 16 18:00:21 2021.

 ---------------------------------------------------------------------
 #N Geom=AllCheck Guess=TCheck SCRF=Check GenChk RwB97XD/def2TZVP Freq
 ---------------------------------------------------------------------

 Structure from the checkpoint file:  "/beegfs/scratch/user/q/tla25/Gau-75752.chk"
 ------------------------
 1_iteration/TS-501-1.out
 ------------------------
 Charge =  0 Multiplicity = 1

                         Standard orientation:
 ---------------------------------------------------------------------
 Center     Atomic      Atomic             Coordinates (Angstroms)
 Number     Number       Type             X           Y           Z
 ---------------------------------------------------------------------
      1          6           0        0.278126    0.827229    0.041755
      2          6           0        1.268624   -0.197619    0.102105
      3          8           0        1.030748   -1.415069    0.321467
      4          6           0       -1.063216    0.506777    0.404534
      5          6           0       -2.833615   -1.555802   -0.802231
      6          1           0       -2.907058   -2.266703   -1.627513
      7          1           0       -2.915097   -2.102822    0.134574
      8          1           0       -3.660336   -0.850168   -0.872307
      9          7           0       -1.565605   -0.831798   -0.831177
     10          1           0       -0.761680   -1.435993   -0.649614
     11          1           0       -1.418279   -0.368730   -1.719453
     12          6           0       -2.137598    1.543688    0.162402
     13          1           0       -1.976326    2.397916    0.823133
     14          1           0       -2.143481    1.906866   -0.864570
     15          1           0       -3.121558    1.133538    0.389510
     16          6           0       -1.318224   -0.243431    1.698274
     17          1           0       -1.217044    0.475063    2.515374
     18          1           0       -2.332053   -0.644157    1.744504
     19          1           0       -0.600496   -1.044428    1.845051
     20          6           0        0.641545    2.130054   -0.636116
     21          1           0        1.396301    2.696681   -0.075235
     22          1           0        1.045818    1.992441   -1.646876
     23          1           0       -0.212231    2.798463   -0.724444
     24          7           0        2.567878    0.155022   -0.194601
     25          6           0        3.651012   -0.786591   -0.048585
     26          1           0        2.806826    1.127946   -0.135481
     27          1           0        4.570119   -0.318277   -0.398600
     28          1           0        3.797601   -1.108828    0.988002
     29          1           0        3.467147   -1.676645   -0.650174
 ---------------------------------------------------------------------

 SCF Done:  E(RwB97XD) =  -500.424957948     A.U. after    1 cycles

 The electronic state is 1-A.
 Alpha  occ. eigenvalues --  -19.18140 -14.46773 -14.42801 -10.35066 -10.33798
 Alpha  occ. eigenvalues --  -10.31267 -10.29833 -10.27435 -10.26422 -10.26406
 Alpha  occ. eigenvalues --  -10.23439  -1.10262  -1.02607  -0.99267  -0.91061
 Alpha  occ. eigenvalues --   -0.83742  -0.79157  -0.78594  -0.77628  -0.73053
 Alpha  occ. eigenvalues --   -0.66154  -0.62779  -0.61637  -0.58141  -0.55392
 Alpha  occ. eigenvalues --   -0.54910  -0.53273  -0.52902  -0.50906  -0.50692
 Alpha  occ. eigenvalues --   -0.49497  -0.48087  -0.47336  -0.46876  -0.46135
 Alpha  occ. eigenvalues --   -0.45263  -0.44837  -0.43780  -0.42652  -0.41970
 Alpha  occ. eigenvalues --   -0.39556  -0.32505  -0.31716  -0.24063
 Alpha virt. eigenvalues --    0.08121   0.09881   0.12455   0.13624   0.14072
 Alpha virt. eigenvalues --    0.15313   0.15909   0.16794   0.17601   0.18162
 Alpha virt. eigenvalues --    0.18601   0.19045   0.19395   0.20239   0.20751

 Mulliken charges:
               1
     1  C   -0.307184
     2  C    0.385687
     3  O   -0.640483
     4  C    0.233657
     5  C   -0.296890
     6  H    0.149744
     7  H    0.152975
     8  H    0.148722
     9  N   -0.311976
    10  H    0.269398
    11  H    0.269006
    12  C   -0.424680
    13  H    0.153929
    14  H    0.146634
    15  H    0.140676
    16  C   -0.411284
    17  H    0.127851
    18  H    0.121714
    19  H    0.150151
    20  C   -0.434706
    21  H    0.115144
    22  H    0.115086
    23  H    0.128435
    24  N   -0.332361
    25  C   -0.253997
    26  H    0.241459
    27  H    0.131731
    28  H    0.110512
    29  H    0.121049
 Sum of Mulliken charges =  -0.00000

 Dipole moment (field-independent basis, Debye):
    X=             -4.4595    Y=              1.7148    Z=             -2.5622  Tot=              5.4215
 Quadrupole moment (field-independent basis, Debye-Ang):
   XX=            -55.8023   YY=            -72.1999   ZZ=            -68.6485
   XY=              7.4337   XZ=              2.8515   YZ=              3.2652

  Exact polarizability: 205.597   5.985 162.767   2.052   0.994 138.236
 Approx polarizability: 147.727   4.594 133.976   1.086   0.786 116.054

 ******    1 imaginary frequencies (negative Signs) ******

                      1                      2                      3
                      A                      A                      A
 Frequencies --   -388.5747                63.0467                72.6311
 Red. masses --      5.7854                 3.0190                 2.5832
 Frc consts  --      0.5147                 0.0071                 0.0080
 IR Inten    --    773.3820                15.3429                12.1196

                      4                      5                      6
                      A                      A                      A
 Frequencies --    106.1349               128.4985               132.5103
 Red. masses --      1.6710                 1.8287                 1.5374
 Frc consts  --      0.0111                 0.0178                 0.0159
 IR Inten    --      1.3402                12.7845                14.5746

                      7                      8                      9
                      A                      A                      A
 Frequencies --    145.6606               159.5468               182.2761
 Red. masses --      1.5872                 1.5896                 1.2218
 Frc consts  --      0.0198                 0.0238                 0.0239
 IR Inten    --     10.0766                 2.1489                 2.7426

                     10                     11                     12
                      A                      A                      A
 Frequencies --    204.4799               245.4465               271.2040
 Red. masses --      3.1945                 2.0558                 1.5568
 Frc consts  --      0.0787                 0.0730                 0.0675
 IR Inten    --      8.0814                20.1087                 0.6246

                     13                     14                     15
                      A                      A                      A
 Frequencies --    295.9717               308.7486               312.1728
 Red. masses --      1.9337                 2.1763                 1.5021
 Frc consts  --      0.0998                 0.1222                 0.0862
 IR Inten    --     21.5876                46.2904                 2.5606

                     16                     17                     18
                      A                      A                      A
 Frequencies --    346.3478               373.5503               396.8587
 Red. masses --      2.5981                 3.0743                 2.2925
 Frc consts  --      0.1836                 0.2527                 0.2127
 IR Inten    --     33.2731                30.4314                 1.0583

                     19                     20                     21
                      A                      A                      A
 Frequencies --    421.1093               448.0698               479.6566
 Red. masses --      2.7038                 1.4810                 2.7295
 Frc consts  --      0.2825                 0.1752                 0.3700
 IR Inten    --     27.7041                93.2257                95.4518

                     22                     23                     24
                      A                      A                      A
 Frequencies --    543.1819               624.5031               719.2926
 Red. masses --      3.4045                 3.7020                 1.2406
 Frc consts  --      0.5918                 0.8507                 0.3782
 IR Inten    --     15.8378                47.4402                21.7253

                     25                     26                     27
                      A                      A                      A
 Frequencies --    769.7924               799.0020               889.8405
 Red. masses --      3.6899                 6.1810                 2.6287
 Frc consts  --      1.2883                 2.3249                 1.2263
 IR Inten    --     70.6869                20.8696                17.4406

                     28                     29                     30
                      A                      A                      A
 Frequencies --    948.1295              1002.1972              1015.9399
 Red. masses --      1.3755                 1.5891                 1.2287
 Frc consts  --      0.7285                 0.9404                 0.7472
 IR Inten    --      0.1956                19.9295                 6.0474

                     31                     32                     33
                      A                      A                      A
 Frequencies --   1036.7888              1051.7735              1059.1801
 Red. masses --      1.2896                 1.9952                 2.0103
 Frc consts  --      0.8168                 1.3004                 1.3288
 IR Inten    --    128.2871               121.9089                10.0915

                     34                     35                     36
                      A                      A                      A
 Frequencies --   1066.9403              1080.5798              1116.1457
 Red. masses --      1.5239                 1.2124                 1.8678
 Frc consts  --      1.0221                 0.8341                 1.3710
 IR Inten    --     20.6820               232.7961                 2.4253

                     37                     38                     39
                      A                      A                      A
 Frequencies --   1150.7447              1167.2199              1185.2596
 Red. masses --      1.3026                 1.6417                 2.9390
 Frc consts  --      1.0163                 1.3178                 2.4327
 IR Inten    --      4.9203                92.7720                23.1081

                     40                     41                     42
                      A                      A                      A
 Frequencies --   1203.2132              1225.7965              1270.3820
 Red. masses --      2.8488                 1.4028                 2.8845
 Frc consts  --      2.4299                 1.2419                 2.7428
 IR Inten    --     39.1560                89.5948                89.5408

                     43                     44                     45
                      A                      A                      A
 Frequencies --   1345.7354              1351.6091              1391.5730
 Red. masses --      3.1079                 1.3330                 1.4975
 Frc consts  --      3.3162                 1.4348                 1.7086
 IR Inten    --    330.6735                25.1357               159.9759

                     46                     47                     48
                      A                      A                      A
 Frequencies --   1405.5023              1423.7991              1426.3444
 Red. masses --      1.6440                 1.5279                 1.2406
 Frc consts  --      1.9134                 1.8249                 1.4871
 IR Inten    --    121.7079               208.3442                 2.8022

                     49                     50                     51
                      A                      A                      A
 Frequencies --   1452.8948              1460.1941              1475.4072
 Red. masses --      1.2261                 1.2390                 1.0809
 Frc consts  --      1.5249                 1.5565                 1.3863
 IR Inten    --     31.2173                25.0795                50.2180

                     52                     53                     54
                      A                      A                      A
 Frequencies --   1478.6591              1485.3813              1492.7154
 Red. masses --      1.0587                 1.0621                 1.0521
 Frc consts  --      1.3638                 1.3807                 1.3812
 IR Inten    --     17.4716                15.4038                15.0063

                     55                     56                     57
                      A                      A                      A
 Frequencies --   1493.0487              1503.2415              1505.4999
 Red. masses --      1.0564                 1.0790                 1.1010
 Frc consts  --      1.3875                 1.4365                 1.4703
 IR Inten    --      5.5891                44.3181                10.0967

                     58                     59                     60
                      A                      A                      A
 Frequencies --   1507.3082              1509.7046              1522.7685
 Red. masses --      1.0775                 1.1276                 1.1291
 Frc consts  --      1.4424                 1.5143                 1.5426
 IR Inten    --     60.2046                31.4926               162.2640

                     61                     62                     63
                      A                      A                      A
 Frequencies --   1539.2840              1605.3902              1661.5081
 Red. masses --      1.6736                 3.8251                 1.0860
 Frc consts  --      2.3363                 5.8083                 1.7663
 IR Inten    --    431.1278               456.6461                42.4568

                     64                     65                     66
                      A                      A                      A
 Frequencies --   2990.6440              3020.8190              3023.7128
 Red. masses --      1.0464                 1.0994                 1.0487
 Frc consts  --      5.5139                 5.9107                 5.6492
 IR Inten    --    153.2185                87.5671               116.8248

                     67                     68                     69
                      A                      A                      A
 Frequencies --   3056.2787              3060.5137              3062.4732
 Red. masses --      1.0394                 1.0371                 1.0377
 Frc consts  --      5.7204                 5.7233                 5.7339
 IR Inten    --     34.3335                52.0875                48.6964

                     70                     71                     72
                      A                      A                      A
 Frequencies --   3101.8580              3117.7089              3132.7665
 Red. masses --      1.0872                 1.1000                 1.1003
 Frc consts  --      6.1629                 6.2994                 6.3626
 IR Inten    --     52.4299                37.7817                38.0918

                     73                     74                     75
                      A                      A                      A
 Frequencies --   3135.5058              3145.5808              3145.8218
 Red. masses --      1.1007                 1.0998                 1.1034
 Frc consts  --      6.3760                 6.4118                 6.4334
 IR Inten    --     17.0167                47.5909                27.3109

                     76                     77                     78
                      A                      A                      A
 Frequencies --   3152.5396              3166.5100              3184.4466
 Red. masses --      1.0928                 1.1048                 1.0997
 Frc consts  --      6.3993                 6.5269                 6.5705
 IR Inten    --     30.1362                19.9357                 5.3898

                     79                     80                     81
                      A                      A                      A
 Frequencies --   3408.2012              3583.5357              3679.6006
 Red. masses --      1.0656                 1.0844                 1.0768
 Frc consts  --      7.2931                 8.2046                 8.5900
 IR Inten    --    140.4150                46.3577                34.4758

 - Thermochemistry -
 -------------------
 Temperature   298.150 Kelvin.  Pressure   1.00000 Atm.
 Atom     1 has atomic number  6 and mass  12.00000

 Molecular mass:   158.14191 amu.
 Principal axes and moments of inertia in atomic units:
                           1         2         3
     Eigenvalues --  1112.008582569.473253055.35975
           X            0.99996   0.00839  -0.00206
           Y           -0.00841   0.99994  -0.00689
           Z            0.00200   0.00690   0.99997
 This molecule is an asymmetric top.
 Rotational symmetry number  1.
 Warning -- assumption of classical behavior for rotation
           may cause significant error
 Rotational temperatures (Kelvin)      0.07789     0.03371     0.02835
 Rotational constants (GHZ):           1.62296     0.70238     0.59068
    1 imaginary frequencies ignored.
 Zero-point vibrational energy     683222.7 (Joules/Mol)
                                  163.29414 (Kcal/Mol)
 Warning -- explicit consideration of  21 degrees of freedom as
           vibrations may cause significant error
 Vibrational temperatures:     90.71   104.50   152.70   184.88   190.65
          (Kelvin)            209.57   229.55   262.25   294.20   353.14
                              390.20   425.84   444.22   449.15   498.32
                              537.46   570.99   605.88   644.67   690.12
                              781.52   898.52  1034.90  1107.56  1149.59
                             1280.28  1364.15  1441.94  1461.71  1491.71
                             1513.27  1523.92  1535.09  1554.71  1605.88
                             1655.66  1679.37  1705.32  1731.16  1763.65
                             1827.80  1936.21  1944.66  2002.16  2022.20
                             2048.53  2052.19  2090.39  2100.89  2122.78
                             2127.46  2137.13  2147.68  2148.16  2162.83
                             2166.08  2168.68  2172.13  2190.92  2214.69
                             2309.80  2390.54  4302.87  4346.28  4350.45
                             4397.30  4403.40  4406.22  4462.88  4485.69
                             4507.35  4511.29  4525.79  4526.14  4535.80
                             4555.90  4581.71  4903.64  5155.91  5294.12

 Zero-point correction=                           0.260226 (Hartree/Particle)
 Thermal correction to Energy=                    0.274326
 Thermal correction to Enthalpy=                  0.275271
 Thermal correction to Gibbs Free Energy=         0.220536
 Sum of electronic and zero-point Energies=           -500.164732
 Sum of electronic and thermal Energies=              -500.150632
 Sum of electronic and thermal Enthalpies=            -500.149687
 Sum of electronic and thermal Free Energies=         -500.204422

                     E (Thermal)             CV                S
                      KCal/Mol        Cal/Mol-Kelvin    Cal/Mol-Kelvin
 Total                  172.142             51.151            115.198
 Electronic               0.000              0.000              0.000
 Translational            0.889              2.981             41.084
 Rotational               0.889              2.981             30.546
 Vibrational            170.365             45.189             43.568
 Vibration     1          0.597              1.972              4.359
 Vibration     2          0.599              1.967              4.081
 Vibration     3          0.605              1.944              3.338
 Vibration     4          0.611              1.925              2.968
 Vibration     5          0.613              1.921              2.909
 Vibration     6          0.617              1.907              2.728
 Vibration     7          0.621              1.892              2.555
 Vibration     8          0.630              1.864              2.305
 Vibration     9          0.640              1.834              2.092
 Vibration    10          0.660              1.770              1.763
 Vibration    11          0.675              1.726              1.589
 Vibration    12          0.690              1.681              1.440
 Vibration    13          0.698              1.657              1.369
 Vibration    14          0.701              1.650              1.351
 Vibration    15          0.724              1.583              1.183
 Vibration    16          0.745              1.526              1.065
 Vibration    17          0.763              1.477              0.974
 Vibration    18          0.784              1.424              0.888
 Vibration    19          0.807              1.365              0.802
 Vibration    20          0.836              1.295              0.711
 Vibration    21          0.898              1.155              0.558

 Optimization completed.
    -- Stationary point found.
 Normal termination of Gaussian 16 at Tue Feb 16 18:40:13 2021.
