 Gaussian 16, Revision A.03,
 Gaussian 16:  ES64L-G16RevA.03 25-Dec-2016

 ----------------------------------------------------------------------
 # wB97XD def2tzvp, opt=(ts, noeigen, calcfc, maxcycles=70, maxstep=3),
  freq=noraman, scrf=(iefpcm, solvent=water)
 ----------------------------------------------------------------------

 ------------------------
 0_iteration/TS-624-0.out
 ------------------------
 Symbolic Z-matrix:
 Charge =  0 Multiplicity = 1

 SCF Done:  E(RwB97XD) =  -3362.81465823     A.U. after   16 cycles
 Optimization completed.
    -- Stationary point found.
 Normal termination of Gaussian 16 at Mon Apr 12 16:00:13 2021.

 ---------------------------------------------------------------------
 #N Geom=AllCheck Guess=TCheck SCRF=Check GenChk RwB97XD/def2TZVP Freq
 ---------------------------------------------------------------------

 Structure from the checkpoint file:  "/beegfs/scratch/user/q/tla25/Gau-85229.chk"
 ------------------------
 0_iteration/TS-624-0.out
 ------------------------
 Charge =  0 Multiplicity = 1

                         Standard orientation:
 ---------------------------------------------------------------------
 Center     Atomic      Atomic             Coordinates (Angstroms)
 Number     Number       Type             X           Y           Z
 ---------------------------------------------------------------------
      1          6           0       -0.854610   -1.450091    0.079189
      2          6           0        0.467590   -2.012201    0.208289
      3          8           0        0.618981   -3.179801    0.588789
      4          6           0       -1.163601   -0.097392    0.064389
      5          6           0       -2.115100   -0.363592    2.769789
      6          1           0       -1.557001    0.381408    3.329589
      7          1           0       -2.993800   -0.658582    3.341889
      8          1           0       -1.483010   -1.239992    2.611989
      9          7           0       -2.495401    0.174018    1.467889
     10          1           0       -3.317000   -0.290383    1.100389
     11          1           0       -2.688891    1.168518    1.496289
     12         35           0       -2.492491    0.461518   -1.380811
     13          6           0       -0.202891    0.998699    0.391389
     14          6           0       -0.038782    2.138299   -0.390811
     15          6           0        0.883818    3.112089   -0.043111
     16          6           0        1.651718    2.974190    1.101889
     17          6           0        1.489509    1.849890    1.897289
     18          6           0        0.572309    0.875889    1.546689
     19          1           0       -0.618682    2.264499   -1.292411
     20          1           0        1.001328    3.981989   -0.676311
     21          1           0        2.370828    3.736380    1.373189
     22          1           0        2.083509    1.724090    2.793289
     23          1           0        0.477399   -0.003101    2.166989
     24          6           0       -1.969319   -2.467592    0.036989
     25          1           0       -2.844810   -2.079782   -0.483411
     26          1           0       -1.643819   -3.372492   -0.474711
     27          1           0       -2.289019   -2.771882    1.039389
     28          6           0        1.707890   -1.292610   -0.246711
     29          6           0        1.743000   -0.580010   -1.439311
     30          6           0        2.924899   -0.000820   -1.877711
     31          6           0        4.080799   -0.120729   -1.120611
     32          6           0        4.055000   -0.839029    0.068489
     33          6           0        2.878490   -1.432320    0.493389
     34          1           0        0.840200   -0.479511   -2.029011
     35          1           0        2.941309    0.547380   -2.811311
     36          1           0        5.001099    0.339761   -1.457511
     37          1           0        4.954890   -0.936639    0.662789
     38          1           0        2.854290   -2.000520    1.414689
 ---------------------------------------------------------------------

 SCF Done:  E(RwB97XD) =  -3362.81465823     A.U. after    1 cycles

 The electronic state is 1-A.
 Alpha  occ. eigenvalues -- -483.12033 -62.66879 -56.45970 -56.45656 -56.45643
 Alpha  occ. eigenvalues --  -19.21112 -14.49289 -10.40494 -10.35963 -10.32026
 Alpha  occ. eigenvalues --  -10.31564 -10.29857 -10.29659 -10.29636 -10.29453
 Alpha  occ. eigenvalues --  -10.29452 -10.29410 -10.29054 -10.29037 -10.28921
 Alpha  occ. eigenvalues --  -10.28909 -10.28853 -10.27277 -10.27171  -8.80971
 Alpha  occ. eigenvalues --   -6.63030  -6.62046  -6.62004  -2.73419  -2.73157
 Alpha  occ. eigenvalues --   -2.73123  -2.72328  -2.72327  -1.11899  -1.04741
 Alpha  occ. eigenvalues --   -0.98123  -0.96452  -0.93102  -0.86998  -0.86266
 Alpha  occ. eigenvalues --   -0.85747  -0.85188  -0.84821  -0.79458  -0.78116
 Alpha  occ. eigenvalues --   -0.74172  -0.71170  -0.70621  -0.70195  -0.67622
 Alpha  occ. eigenvalues --   -0.64536  -0.63163  -0.61804  -0.58204  -0.58030
 Alpha  occ. eigenvalues --   -0.56905  -0.55859  -0.55639  -0.54551  -0.53435
 Alpha  occ. eigenvalues --   -0.52899  -0.52199  -0.51263  -0.50939  -0.50230
 Alpha  occ. eigenvalues --   -0.49088  -0.48293  -0.47598  -0.47074  -0.46942
 Alpha  occ. eigenvalues --   -0.45361  -0.44855  -0.44404  -0.43636  -0.42880
 Alpha  occ. eigenvalues --   -0.42666  -0.41974  -0.37170  -0.36807  -0.35400
 Alpha  occ. eigenvalues --   -0.35055  -0.33296  -0.32611  -0.31722  -0.27530
 Alpha virt. eigenvalues --   -0.00004   0.02528   0.04326   0.06012   0.06129
 Alpha virt. eigenvalues --    0.07893   0.10156   0.12085   0.13324   0.13604
 Alpha virt. eigenvalues --    0.13993   0.14755   0.15803   0.16318   0.16381

 Mulliken charges:
               1
     1  C   -0.115127
     2  C    0.193244
     3  O   -0.479610
     4  C    0.145593
     5  C   -0.328551
     6  H    0.171989
     7  H    0.168020
     8  H    0.160343
     9  N   -0.304051
    10  H    0.289855
    11  H    0.293581
    12  Br  -0.193778
    13  C    0.124067
    14  C   -0.183948
    15  C   -0.156451
    16  C   -0.122201
    17  C   -0.177812
    18  C   -0.279420
    19  H    0.149845
    20  H    0.143367
    21  H    0.145921
    22  H    0.143462
    23  H    0.193244
    24  C   -0.433898
    25  H    0.141461
    26  H    0.133824
    27  H    0.130776
    28  C    0.241058
    29  C   -0.213224
    30  C   -0.172162
    31  C   -0.122770
    32  C   -0.156332
    33  C   -0.237132
    34  H    0.148208
    35  H    0.139591
    36  H    0.143259
    37  H    0.139669
    38  H    0.136091
 Sum of Mulliken charges =   0.00000

 Dipole moment (field-independent basis, Debye):
    X=             -3.5338    Y=              7.5325    Z=              4.5904  Tot=              9.5025
 Quadrupole moment (field-independent basis, Debye-Ang):
   XX=           -112.8439   YY=           -147.9820   ZZ=           -118.1148
   XY=              9.6848   XZ=            -10.2777   YZ=              0.8143

  Exact polarizability: 366.610   8.267 333.177  23.819 -35.021 305.770
 Approx polarizability: 281.939   6.495 270.964  23.341 -34.470 261.274

 ******    1 imaginary frequencies (negative Signs) ******

                      1                      2                      3
                      A                      A                      A
 Frequencies --   -372.9210                23.5268                43.6952
 Red. masses --      6.0315                 5.2047                 3.2943
 Frc consts  --      0.4942                 0.0017                 0.0037
 IR Inten    --    537.7525                 2.4216                 2.4301

                      4                      5                      6
                      A                      A                      A
 Frequencies --     58.0876                65.6726                74.2996
 Red. masses --      2.3136                 2.3933                 4.1087
 Frc consts  --      0.0046                 0.0061                 0.0134
 IR Inten    --      3.7176                 0.9396                 2.3821

                      7                      8                      9
                      A                      A                      A
 Frequencies --     85.6716                90.3617               122.7692
 Red. masses --      3.6756                 2.8165                 3.2865
 Frc consts  --      0.0159                 0.0135                 0.0292
 IR Inten    --      2.4543                 0.4833                 4.6711

                     10                     11                     12
                      A                      A                      A
 Frequencies --    142.6391               173.6015               174.4757
 Red. masses --      3.7760                 2.3225                 3.6426
 Frc consts  --      0.0453                 0.0412                 0.0653
 IR Inten    --      1.1078                 3.1140                 6.8164

                     13                     14                     15
                      A                      A                      A
 Frequencies --    202.2858               215.9536               225.0473
 Red. masses --      4.7447                 3.7513                 2.4629
 Frc consts  --      0.1144                 0.1031                 0.0735
 IR Inten    --     20.7290                 1.4653                38.1336

                     16                     17                     18
                      A                      A                      A
 Frequencies --    243.2291               263.1046               296.8717
 Red. masses --      2.9609                 4.2705                 3.5584
 Frc consts  --      0.1032                 0.1742                 0.1848
 IR Inten    --     19.5481                32.0857                 8.6750

                     19                     20                     21
                      A                      A                      A
 Frequencies --    301.1446               333.8759               371.3033
 Red. masses --      3.0277                 3.7067                 4.0439
 Frc consts  --      0.1618                 0.2434                 0.3285
 IR Inten    --     13.5023                25.1363                 5.3820

                     22                     23                     24
                      A                      A                      A
 Frequencies --    396.7807               423.8149               427.1105
 Red. masses --      5.3197                 3.0817                 4.0430
 Frc consts  --      0.4934                 0.3261                 0.4345
 IR Inten    --      0.9886                 9.3055                24.8674

                     25                     26                     27
                      A                      A                      A
 Frequencies --    432.7664               484.5748               555.2629
 Red. masses --      3.0160                 4.0116                 3.8509
 Frc consts  --      0.3328                 0.5550                 0.6995
 IR Inten    --      8.0877                29.0174                30.0616

                     28                     29                     30
                      A                      A                      A
 Frequencies --    602.3091               625.4950               635.7001
 Red. masses --      2.1068                 3.7281                 6.1765
 Frc consts  --      0.4503                 0.8594                 1.4706
 IR Inten    --     40.4032                52.0853                12.6168

                     31                     32                     33
                      A                      A                      A
 Frequencies --    638.2742               656.0542               672.1322
 Red. masses --      5.8504                 6.0734                 2.8504
 Frc consts  --      1.4043                 1.5401                 0.7587
 IR Inten    --     61.1862               330.9802                48.2808

                     34                     35                     36
                      A                      A                      A
 Frequencies --    725.7594               726.6956               745.9477
 Red. masses --      1.5968                 1.7443                 4.8342
 Frc consts  --      0.4956                 0.5427                 1.5849
 IR Inten    --    115.8929                37.5985               236.2403

                     37                     38                     39
                      A                      A                      A
 Frequencies --    753.0835               804.9065               828.5215
 Red. masses --      2.9610                 2.2507                 2.9803
 Frc consts  --      0.9894                 0.8591                 1.2054
 IR Inten    --    155.3020                 7.9318                43.0990

                     40                     41                     42
                      A                      A                      A
 Frequencies --    868.9250               879.8717               881.6372
 Red. masses --      3.2530                 1.2560                 1.2572
 Frc consts  --      1.4471                 0.5729                 0.5757
 IR Inten    --    122.2063                 0.7884                 2.3162

                     43                     44                     45
                      A                      A                      A
 Frequencies --    957.4393               971.8637               984.4096
 Red. masses --      2.0979                 1.4947                 2.1577
 Frc consts  --      1.1331                 0.8318                 1.2319
 IR Inten    --      6.3812                13.7346                34.3667

                     46                     47                     48
                      A                      A                      A
 Frequencies --   1015.8360              1020.4734              1023.1898
 Red. masses --      1.3762                 1.1121                 1.4575
 Frc consts  --      0.8367                 0.6823                 0.8990
 IR Inten    --      1.2683                18.7695                 3.1127

                     49                     50                     51
                      A                      A                      A
 Frequencies --   1026.3159              1027.0965              1031.2397
 Red. masses --      4.5836                 5.3835                 1.3253
 Frc consts  --      2.8446                 3.3461                 0.8304
 IR Inten    --     16.0908                 2.4514                 2.2134

                     52                     53                     54
                      A                      A                      A
 Frequencies --   1037.2905              1039.5139              1051.0748
 Red. masses --      2.1299                 1.3101                 1.2281
 Frc consts  --      1.3502                 0.8341                 0.7994
 IR Inten    --    215.1818                 6.6799               118.3161

                     55                     56                     57
                      A                      A                      A
 Frequencies --   1061.8452              1064.6152              1071.0853
 Red. masses --      1.8350                 1.6003                 1.9272
 Frc consts  --      1.2190                 1.0687                 1.3027
 IR Inten    --     20.9860                29.8636                14.2843

                     58                     59                     60
                      A                      A                      A
 Frequencies --   1079.7320              1111.8288              1128.2354
 Red. masses --      3.2304                 1.5233                 1.5605
 Frc consts  --      2.2189                 1.1095                 1.1704
 IR Inten    --     12.4908                15.4393                 2.5170

                     61                     62                     63
                      A                      A                      A
 Frequencies --   1182.4570              1187.0661              1193.8786
 Red. masses --      1.1421                 1.1277                 2.8405
 Frc consts  --      0.9409                 0.9362                 2.3854
 IR Inten    --      0.7911                 0.2304                13.6254

                     64                     65                     66
                      A                      A                      A
 Frequencies --   1202.4966              1205.4262              1221.9659
 Red. masses --      1.3861                 1.2806                 1.1223
 Frc consts  --      1.1809                 1.0964                 0.9874
 IR Inten    --     21.6231                10.5926                 6.5701

                     67                     68                     69
                      A                      A                      A
 Frequencies --   1232.0817              1320.3463              1326.0094
 Red. masses --      3.5903                 4.6202                 4.1504
 Frc consts  --      3.2112                 4.7456                 4.2996
 IR Inten    --     81.3807                21.0031                42.7193

                     70                     71                     72
                      A                      A                      A
 Frequencies --   1330.2426              1352.7162              1364.0693
 Red. masses --      1.3132                 1.8763                 2.1420
 Frc consts  --      1.3691                 2.0229                 2.3483
 IR Inten    --      2.0080               190.8920               438.0611

                     73                     74                     75
                      A                      A                      A
 Frequencies --   1366.8705              1418.3319              1442.8083
 Red. masses --      1.9156                 1.2385                 1.6468
 Frc consts  --      2.1087                 1.4679                 2.0198
 IR Inten    --    385.9553                 3.0942               364.9774

                     76                     77                     78
                      A                      A                      A
 Frequencies --   1459.6922              1482.7651              1490.6166
 Red. masses --      1.7284                 1.0802                 2.1628
 Frc consts  --      2.1698                 1.3993                 2.8313
 IR Inten    --    259.1842                 9.5784                20.6955

                     79                     80                     81
                      A                      A                      A
 Frequencies --   1491.1201              1497.8020              1501.6206
 Red. masses --      1.9513                 1.0452                 1.2792
 Frc consts  --      2.5562                 1.3815                 1.6995
 IR Inten    --     20.8173                26.7736               295.7716

                     82                     83                     84
                      A                      A                      A
 Frequencies --   1511.3904              1538.9966              1544.4321
 Red. masses --      1.1122                 2.3278                 2.3395
 Frc consts  --      1.4969                 3.2484                 3.2879
 IR Inten    --    155.2241                 5.4625                56.2229

                     85                     86                     87
                      A                      A                      A
 Frequencies --   1618.9981              1636.2467              1650.4150
 Red. masses --     10.3310                 1.0895                 5.6533
 Frc consts  --     15.9546                 1.7185                 9.0728
 IR Inten    --    624.0493                66.8044                 4.8247

                     88                     89                     90
                      A                      A                      A
 Frequencies --   1654.9444              1673.6195              1674.5932
 Red. masses --      6.2091                 5.9206                 5.9374
 Frc consts  --     10.0195                 9.7707                 9.8099
 IR Inten    --     55.0814                 6.6858                 1.8647

                     91                     92                     93
                      A                      A                      A
 Frequencies --   3031.8837              3062.5705              3106.0623
 Red. masses --      1.0500                 1.0370                 1.0849
 Frc consts  --      5.6866                 5.7307                 6.1666
 IR Inten    --     74.5412                36.7803                37.9724

                     94                     95                     96
                      A                      A                      A
 Frequencies --   3138.4031              3148.0673              3179.6977
 Red. masses --      1.1015                 1.1019                 1.1046
 Frc consts  --      6.3920                 6.4338                 6.5799
 IR Inten    --      7.6916                20.4161                11.1209

                     97                     98                     99
                      A                      A                      A
 Frequencies --   3192.6289              3198.5864              3200.5545
 Red. masses --      1.0857                 1.0883                 1.0866
 Frc consts  --      6.5203                 6.5600                 6.5578
 IR Inten    --      1.1174                 1.2567                 0.1288

                    100                    101                    102
                      A                      A                      A
 Frequencies --   3206.5190              3210.7091              3213.8915
 Red. masses --      1.0917                 1.0910                 1.0949
 Frc consts  --      6.6135                 6.6261                 6.6632
 IR Inten    --     12.9334                15.9039                35.2924

                    103                    104                    105
                      A                      A                      A
 Frequencies --   3221.5885              3222.0810              3240.8803
 Red. masses --      1.0988                 1.0963                 1.0931
 Frc consts  --      6.7188                 6.7059                 6.7646
 IR Inten    --     14.6254                27.6939                 5.3035

                    106                    107                    108
                      A                      A                      A
 Frequencies --   3247.0043              3529.0134              3612.9338
 Red. masses --      1.0923                 1.0510                 1.0970
 Frc consts  --      6.7849                 7.7120                 8.4364
 IR Inten    --      2.2408                64.4734                57.9643

 - Thermochemistry -
 -------------------
 Temperature   298.150 Kelvin.  Pressure   1.00000 Atm.
 Atom     1 has atomic number  6 and mass  12.00000

 Molecular mass:   331.05718 amu.
 Principal axes and moments of inertia in atomic units:
                           1         2         3
     Eigenvalues --  4683.947717511.658088495.63787
           X            0.99760   0.04583  -0.05189
           Y           -0.04583   0.99895   0.00117
           Z            0.05189   0.00121   0.99865
 This molecule is an asymmetric top.
 Rotational symmetry number  1.
 Warning -- assumption of classical behavior for rotation
           may cause significant error
 Rotational temperatures (Kelvin)      0.01849     0.01153     0.01020
 Rotational constants (GHZ):           0.38530     0.24026     0.21243
    1 imaginary frequencies ignored.
 Zero-point vibrational energy     817727.8 (Joules/Mol)
                                  195.44164 (Kcal/Mol)
 Warning -- explicit consideration of  27 degrees of freedom as
           vibrations may cause significant error
 Vibrational temperatures:     33.85    62.87    83.58    94.49   106.90
          (Kelvin)            123.26   130.01   176.64   205.23   249.77
                              251.03   291.04   310.71   323.79   349.95
                              378.55   427.13   433.28   480.37   534.22
                              570.88   609.78   614.52   622.65   697.20
                              798.90   866.59   899.95   914.63   918.33
                              943.92   967.05  1044.21  1045.55  1073.25
                             1083.52  1158.08  1192.06  1250.19  1265.94
                             1268.48  1377.54  1398.30  1416.35  1461.56
                             1468.23  1472.14  1476.64  1477.76  1483.72
                             1492.43  1495.63  1512.26  1527.76  1531.74
                             1541.05  1553.49  1599.67  1623.28  1701.29
                             1707.92  1717.73  1730.12  1734.34  1758.14
                             1772.69  1899.68  1907.83  1913.92  1946.26
                             1962.59  1966.62  2040.66  2075.88  2100.17
                             2133.37  2144.66  2145.39  2155.00  2160.50
                             2174.55  2214.27  2222.09  2329.38  2354.19
                             2374.58  2381.10  2407.97  2409.37  4362.20
                             4406.36  4468.93  4515.46  4529.37  4574.88
                             4593.48  4602.05  4604.88  4613.47  4619.49
                             4624.07  4635.15  4635.86  4662.90  4671.71
                             5077.46  5198.21

 Zero-point correction=                           0.311456 (Hartree/Particle)
 Thermal correction to Energy=                    0.330611
 Thermal correction to Enthalpy=                  0.331555
 Thermal correction to Gibbs Free Energy=         0.262519
 Sum of electronic and zero-point Energies=          -3362.503202
 Sum of electronic and thermal Energies=             -3362.484047
 Sum of electronic and thermal Enthalpies=           -3362.483103
 Sum of electronic and thermal Free Energies=        -3362.552139

                     E (Thermal)             CV                S
                      KCal/Mol        Cal/Mol-Kelvin    Cal/Mol-Kelvin
 Total                  207.462             71.925            145.298
 Electronic               0.000              0.000              0.000
 Translational            0.889              2.981             43.286
 Rotational               0.889              2.981             34.057
 Vibrational            205.684             65.963             67.955
 Vibration     1          0.593              1.985              6.312
 Vibration     2          0.595              1.980              5.084
 Vibration     3          0.596              1.974              4.521
 Vibration     4          0.597              1.971              4.279
 Vibration     5          0.599              1.966              4.036
 Vibration     6          0.601              1.959              3.757
 Vibration     7          0.602              1.956              3.652
 Vibration     8          0.610              1.930              3.056
 Vibration     9          0.616              1.911              2.768
 Vibration    10          0.627              1.875              2.396
 Vibration    11          0.627              1.874              2.387
 Vibration    12          0.639              1.837              2.112
 Vibration    13          0.645              1.817              1.993
 Vibration    14          0.650              1.803              1.918
 Vibration    15          0.659              1.774              1.779
 Vibration    16          0.670              1.740              1.641
 Vibration    17          0.691              1.680              1.434
 Vibration    18          0.693              1.672              1.411
 Vibration    19          0.715              1.608              1.241
 Vibration    20          0.743              1.531              1.074
 Vibration    21          0.763              1.477              0.975
 Vibration    22          0.786              1.418              0.879
 Vibration    23          0.789              1.411              0.868
 Vibration    24          0.794              1.399              0.850
 Vibration    25          0.841              1.284              0.698
 Vibration    26          0.911              1.128              0.533
 Vibration    27          0.961              1.027              0.446

 Optimization completed.
    -- Stationary point found.
 Normal termination of Gaussian 16 at Mon Apr 12 17:20:12 2021.
