 Gaussian 16, Revision A.03,
 Gaussian 16:  ES64L-G16RevA.03 25-Dec-2016

 ----------------------------------------------------------------------
 # wB97XD def2tzvp, opt=(ts, noeigen, calcfc, maxcycles=70, maxstep=3),
  freq=noraman, scrf=(iefpcm, solvent=water)
 ----------------------------------------------------------------------

 ------------------------
 0_iteration/TS-639-0.out
 ------------------------
 Symbolic Z-matrix:
 Charge =  0 Multiplicity = 1

 SCF Done:  E(RwB97XD) =  -3838.48549078     A.U. after   15 cycles
 Optimization completed.
    -- Stationary point found.
 Normal termination of Gaussian 16 at Sat Mar 27 20:50:18 2021.

 ---------------------------------------------------------------------
 #N Geom=AllCheck Guess=TCheck SCRF=Check GenChk RwB97XD/def2TZVP Freq
 ---------------------------------------------------------------------

 Structure from the checkpoint file:  "/beegfs/scratch/user/q/tla25/Gau-92003.chk"
 ------------------------
 0_iteration/TS-639-0.out
 ------------------------
 Charge =  0 Multiplicity = 1

                         Standard orientation:
 ---------------------------------------------------------------------
 Center     Atomic      Atomic             Coordinates (Angstroms)
 Number     Number       Type             X           Y           Z
 ---------------------------------------------------------------------
      1          6           0       -0.942801   -1.263300   -0.089908
      2          6           0        0.474999   -1.621000   -0.154708
      3          8           0        0.856299   -2.656500   -0.689108
      4          6           0       -1.519402   -0.020901    0.128392
      5          6           0       -1.293801   -0.469901    2.890792
      6          1           0       -1.808001   -0.788301    3.795892
      7          1           0       -0.752201   -1.318900    2.472192
      8          1           0       -0.587002    0.319000    3.136392
      9          7           0       -2.244202    0.000199    1.886692
     10          1           0       -3.001101   -0.666701    1.778992
     11          1           0       -2.668002    0.890899    2.123892
     12         35           0       -3.277602    0.312799   -0.760808
     13          6           0       -0.700802    1.229300   -0.033608
     14          6           0       -0.071802    1.415600   -1.268108
     15          6           0        0.709997    2.529500   -1.502508
     16          6           0        0.873397    3.489600   -0.511608
     17          6           0        0.241397    3.323500    0.707092
     18          6           0       -0.545902    2.203400    0.945392
     19          1           0       -0.194902    0.669100   -2.041708
     20          1           0        1.195597    2.648500   -2.462208
     21          1           0        1.489097    4.360901   -0.692508
     22          1           0        0.355597    4.064700    1.487092
     23          1           0       -1.019502    2.118400    1.911192
     24         17           0       -2.006201   -2.649201   -0.228308
     25          7           0        1.362099   -0.754599    0.443492
     26          6           0        2.737799   -0.626799    0.210192
     27          6           0        3.545299   -1.654799   -0.273708
     28          6           0        4.902299   -1.429798   -0.462008
     29          6           0        5.475198   -0.202898   -0.166008
     30          6           0        4.670198    0.816802    0.324992
     31          6           0        3.315198    0.610301    0.507992
     32          1           0        0.959698    0.043900    0.901392
     33          1           0        3.108999   -2.614399   -0.497508
     34          1           0        5.518399   -2.235998   -0.841008
     35          1           0        6.535098   -0.041697   -0.313408
     36          1           0        5.096898    1.783602    0.560892
     37          1           0        2.689498    1.416601    0.875492
 ---------------------------------------------------------------------

 SCF Done:  E(RwB97XD) =  -3838.48549078     A.U. after    1 cycles

 The electronic state is 1-A.
 Alpha  occ. eigenvalues -- -483.13184-101.69133 -62.68018 -56.47136 -56.46784
 Alpha  occ. eigenvalues --  -56.46769 -19.21390 -14.50392 -14.46715 -10.41498
 Alpha  occ. eigenvalues --  -10.39900 -10.33863 -10.32741 -10.32588 -10.32271
 Alpha  occ. eigenvalues --  -10.30937 -10.30419 -10.30210 -10.30116 -10.30059
 Alpha  occ. eigenvalues --  -10.29145 -10.29004 -10.28988 -10.28430 -10.28425
 Alpha  occ. eigenvalues --   -9.57661  -8.82108  -7.32300  -7.31446  -7.31432
 Alpha  occ. eigenvalues --   -6.64252  -6.63142  -6.63092  -2.74629  -2.74330
 Alpha  occ. eigenvalues --   -2.74290  -2.73392  -2.73392  -1.14620  -1.05970
 Alpha  occ. eigenvalues --   -1.04560  -0.99271  -0.96986  -0.95567  -0.91764
 Alpha  occ. eigenvalues --   -0.86922  -0.86627  -0.85507  -0.85234  -0.81906
 Alpha  occ. eigenvalues --   -0.80060  -0.75241  -0.72220  -0.72000  -0.71361
 Alpha  occ. eigenvalues --   -0.68481  -0.66015  -0.65203  -0.63070  -0.61802
 Alpha  occ. eigenvalues --   -0.59399  -0.58501  -0.58200  -0.57259  -0.55133
 Alpha  occ. eigenvalues --   -0.54533  -0.53804  -0.53248  -0.52579  -0.52111
 Alpha  occ. eigenvalues --   -0.51915  -0.51541  -0.50431  -0.49147  -0.48939
 Alpha  occ. eigenvalues --   -0.47854  -0.46868  -0.46044  -0.44846  -0.44383
 Alpha  occ. eigenvalues --   -0.43960  -0.42936  -0.42243  -0.40418  -0.39721
 Alpha  occ. eigenvalues --   -0.37851  -0.37494  -0.35268  -0.34850  -0.33917
 Alpha  occ. eigenvalues --   -0.33739  -0.30631  -0.27823
 Alpha virt. eigenvalues --    0.00305   0.03485   0.04070   0.05252   0.05809
 Alpha virt. eigenvalues --    0.07319   0.10237   0.12233   0.12419   0.13544
 Alpha virt. eigenvalues --    0.13819   0.14176   0.15315   0.15870   0.15996

 Mulliken charges:
               1
     1  C   -0.182634
     2  C    0.316038
     3  O   -0.493644
     4  C    0.171551
     5  C   -0.318387
     6  H    0.173810
     7  H    0.162636
     8  H    0.166820
     9  N   -0.308228
    10  H    0.291702
    11  H    0.298761
    12  Br  -0.121448
    13  C    0.030463
    14  C   -0.261255
    15  C   -0.096237
    16  C   -0.160461
    17  C   -0.144258
    18  C   -0.170252
    19  H    0.166269
    20  H    0.149495
    21  H    0.148648
    22  H    0.148710
    23  H    0.142912
    24  Cl  -0.152939
    25  N   -0.220918
    26  C    0.296988
    27  C   -0.319934
    28  C   -0.098048
    29  C   -0.188587
    30  C   -0.120490
    31  C   -0.301667
    32  H    0.254378
    33  H    0.153453
    34  H    0.142009
    35  H    0.140528
    36  H    0.141215
    37  H    0.162999
 Sum of Mulliken charges =  -0.00000

 Dipole moment (field-independent basis, Debye):
    X=             -2.1194    Y=              9.1764    Z=              7.9091  Tot=             12.2984
 Quadrupole moment (field-independent basis, Debye-Ang):
   XX=           -136.3727   YY=           -149.9589   ZZ=           -127.2628
   XY=              5.6873   XZ=            -16.3734   YZ=             -1.5279

  Exact polarizability: 399.355  19.809 352.441 -19.496  31.225 274.758
 Approx polarizability: 300.488  14.229 291.249 -16.274  29.044 242.615

 ******    1 imaginary frequencies (negative Signs) ******

                      1                      2                      3
                      A                      A                      A
 Frequencies --   -362.2455                25.9459                35.2042
 Red. masses --      5.4334                 5.1963                 5.3282
 Frc consts  --      0.4201                 0.0021                 0.0039
 IR Inten    --    606.8088                 0.0452                 2.9525

                      4                      5                      6
                      A                      A                      A
 Frequencies --     49.1293                57.8365                66.3129
 Red. masses --      6.0968                 4.0655                 7.6970
 Frc consts  --      0.0087                 0.0080                 0.0199
 IR Inten    --      0.5999                 0.1626                14.2827

                      7                      8                      9
                      A                      A                      A
 Frequencies --     84.6222               100.9416               124.9004
 Red. masses --      5.9948                 6.3848                 5.5996
 Frc consts  --      0.0253                 0.0383                 0.0515
 IR Inten    --      0.3315                 3.3773                 4.1643

                     10                     11                     12
                      A                      A                      A
 Frequencies --    132.5116               154.3546               166.2812
 Red. masses --      4.1220                 2.3288                 5.7659
 Frc consts  --      0.0426                 0.0327                 0.0939
 IR Inten    --      1.4480                 1.5783                 7.6564

                     13                     14                     15
                      A                      A                      A
 Frequencies --    178.2347               197.1152               235.5449
 Red. masses --      1.6982                 6.4006                 3.6367
 Frc consts  --      0.0318                 0.1465                 0.1189
 IR Inten    --      1.4803                14.0006                13.5598

                     16                     17                     18
                      A                      A                      A
 Frequencies --    249.0802               262.9937               276.2261
 Red. masses --      4.9209                 3.5090                 4.9272
 Frc consts  --      0.1799                 0.1430                 0.2215
 IR Inten    --      0.4096                11.5158                 3.6996

                     19                     20                     21
                      A                      A                      A
 Frequencies --    308.5814               322.5773               360.6370
 Red. masses --      3.7564                 8.4324                 7.7446
 Frc consts  --      0.2107                 0.5170                 0.5935
 IR Inten    --     16.7050                 0.2012                 6.9386

                     22                     23                     24
                      A                      A                      A
 Frequencies --    371.1541               391.9910               422.8670
 Red. masses --      5.7423                 8.1427                 2.8960
 Frc consts  --      0.4661                 0.7372                 0.3051
 IR Inten    --     19.1616                14.2427                 0.7401

                     25                     26                     27
                      A                      A                      A
 Frequencies --    426.8610               524.9876               529.6646
 Red. masses --      2.9945                 3.6788                 2.8831
 Frc consts  --      0.3215                 0.5974                 0.4765
 IR Inten    --      0.0672                12.0517                17.4212

                     28                     29                     30
                      A                      A                      A
 Frequencies --    555.7835               586.5391               616.1371
 Red. masses --      4.3965                 6.4325                 3.6981
 Frc consts  --      0.8001                 1.3038                 0.8271
 IR Inten    --    132.8983                21.1267                13.4935

                     31                     32                     33
                      A                      A                      A
 Frequencies --    623.6823               636.1768               641.0515
 Red. masses --      1.3487                 4.3688                 5.1666
 Frc consts  --      0.3091                 1.0418                 1.2509
 IR Inten    --    115.2961                20.5416                31.8121

                     34                     35                     36
                      A                      A                      A
 Frequencies --    680.4889               720.4043               723.1045
 Red. masses --      2.4455                 2.3541                 1.8937
 Frc consts  --      0.6672                 0.7198                 0.5834
 IR Inten    --    107.1701                 5.6717                36.0296

                     37                     38                     39
                      A                      A                      A
 Frequencies --    732.6208               763.6350               782.7547
 Red. masses --      1.9155                 7.7043                 2.0666
 Frc consts  --      0.6058                 2.6470                 0.7460
 IR Inten    --    441.5330                13.5563                79.0101

                     40                     41                     42
                      A                      A                      A
 Frequencies --    792.2542               828.8553               868.1440
 Red. masses --      2.7990                 3.8802                 1.2748
 Frc consts  --      1.0351                 1.5706                 0.5661
 IR Inten    --     38.1853                26.4828                 4.7755

                     43                     44                     45
                      A                      A                      A
 Frequencies --    874.0475               878.4408               902.1823
 Red. masses --      1.2760                 4.2708                 5.1628
 Frc consts  --      0.5744                 1.9417                 2.4759
 IR Inten    --      1.4086                63.9625                38.4954

                     46                     47                     48
                      A                      A                      A
 Frequencies --    941.7500               964.6267              1006.0399
 Red. masses --      1.4880                 1.4665                 1.1573
 Frc consts  --      0.7775                 0.8040                 0.6901
 IR Inten    --     19.3997                 0.6577                23.7377

                     49                     50                     51
                      A                      A                      A
 Frequencies --   1006.3155              1019.9734              1021.2275
 Red. masses --      1.3415                 1.3949                 1.3014
 Frc consts  --      0.8004                 0.8550                 0.7996
 IR Inten    --      1.0848                 1.7062                 1.2109

                     52                     53                     54
                      A                      A                      A
 Frequencies --   1021.3099              1025.6634              1040.1368
 Red. masses --      5.6241                 4.9255                 1.3277
 Frc consts  --      3.4563                 3.0529                 0.8463
 IR Inten    --      1.5027                 1.5866                 0.1132

                     55                     56                     57
                      A                      A                      A
 Frequencies --   1047.6429              1066.4673              1071.0259
 Red. masses --      4.4413                 2.1791                 1.9259
 Frc consts  --      2.8720                 1.4603                 1.3016
 IR Inten    --     21.6390                22.1340                 9.3009

                     58                     59                     60
                      A                      A                      A
 Frequencies --   1074.2530              1082.2072              1125.3759
 Red. masses --      4.3287                 1.3143                 1.5607
 Frc consts  --      2.9432                 0.9069                 1.1645
 IR Inten    --     53.5165               112.1316                19.1731

                     61                     62                     63
                      A                      A                      A
 Frequencies --   1132.7022              1183.2068              1190.2221
 Red. masses --      1.6096                 1.1246                 1.1434
 Frc consts  --      1.2167                 0.9277                 0.9544
 IR Inten    --      9.7944                 4.9587                 0.5784

                     64                     65                     66
                      A                      A                      A
 Frequencies --   1211.0558              1213.8289              1231.9922
 Red. masses --      1.6497                 1.7394                 1.1696
 Frc consts  --      1.4256                 1.5099                 1.0460
 IR Inten    --     22.5996               119.1279                 5.1924

                     67                     68                     69
                      A                      A                      A
 Frequencies --   1238.9842              1264.6554              1281.2426
 Red. masses --      1.4158                 3.4107                 3.6158
 Frc consts  --      1.2805                 3.2139                 3.4972
 IR Inten    --     24.0400               985.6707                19.4269

                     70                     71                     72
                      A                      A                      A
 Frequencies --   1319.1754              1343.1317              1345.4275
 Red. masses --      5.0426                 1.3345                 3.6969
 Frc consts  --      5.1702                 1.4185                 3.9429
 IR Inten    --     22.5482                34.5562               456.4666

                     73                     74                     75
                      A                      A                      A
 Frequencies --   1364.7726              1376.5649              1438.8889
 Red. masses --      1.5674                 1.3776                 3.7017
 Frc consts  --      1.7201                 1.5380                 4.5154
 IR Inten    --      8.3106                 5.4000               470.1187

                     76                     77                     78
                      A                      A                      A
 Frequencies --   1471.9193              1480.8589              1492.5343
 Red. masses --      1.3337                 2.1198                 2.2156
 Frc consts  --      1.7024                 2.7389                 2.9079
 IR Inten    --     73.9897               155.5174                79.6254

                     79                     80                     81
                      A                      A                      A
 Frequencies --   1497.4920              1510.6804              1545.9503
 Red. masses --      1.0433                 1.0420                 2.3001
 Frc consts  --      1.3784                 1.4011                 3.2388
 IR Inten    --     17.9297                15.3899               222.3792

                     82                     83                     84
                      A                      A                      A
 Frequencies --   1548.4828              1575.1460              1647.6003
 Red. masses --      2.3509                 1.9827                 1.6897
 Frc consts  --      3.3212                 2.8984                 2.7025
 IR Inten    --     30.1918               422.9011                64.4894

                     85                     86                     87
                      A                      A                      A
 Frequencies --   1657.2341              1663.0799              1673.6327
 Red. masses --      2.0286                 5.9924                 4.6743
 Frc consts  --      3.2826                 9.7652                 7.7141
 IR Inten    --     27.2280               161.2428                49.0306

                     88                     89                     90
                      A                      A                      A
 Frequencies --   1674.3557              1694.0257              3074.9116
 Red. masses --      5.1868                 6.2412                 1.0335
 Frc consts  --      8.5674                10.5526                 5.7576
 IR Inten    --      0.6816               746.8624                25.7498

                     91                     92                     93
                      A                      A                      A
 Frequencies --   3153.5167              3177.1201              3186.0749
 Red. masses --      1.1038                 1.1058                 1.0885
 Frc consts  --      6.4677                 6.5766                 6.5103
 IR Inten    --      4.7423                13.5544                 7.2930

                     94                     95                     96
                      A                      A                      A
 Frequencies --   3197.2150              3204.1999              3206.8353
 Red. masses --      1.0881                 1.0866                 1.0930
 Frc consts  --      6.5536                 6.5731                 6.6223
 IR Inten    --      3.6432                 0.1375                25.3261

                     97                     98                     99
                      A                      A                      A
 Frequencies --   3211.8370              3220.1265              3222.0557
 Red. masses --      1.0895                 1.0940                 1.0979
 Frc consts  --      6.6221                 6.6836                 6.7152
 IR Inten    --      3.2737                14.2235                24.6307

                    100                    101                    102
                      A                      A                      A
 Frequencies --   3228.5920              3254.6421              3272.7094
 Red. masses --      1.0983                 1.0915                 1.0921
 Frc consts  --      6.7451                 6.8121                 6.8917
 IR Inten    --     15.3472                11.6592                 2.7811

                    103                    104                    105
                      A                      A                      A
 Frequencies --   3518.5116              3593.3741              3657.1597
 Red. masses --      1.0516                 1.0956                 1.0760
 Frc consts  --      7.6704                 8.3351                 8.4788
 IR Inten    --     57.7724                58.5992                88.8073

 - Thermochemistry -
 -------------------
 Temperature   298.150 Kelvin.  Pressure   1.00000 Atm.
 Atom     1 has atomic number  6 and mass  12.00000

 Molecular mass:   366.01345 amu.
 Principal axes and moments of inertia in atomic units:
                           1         2         3
     Eigenvalues --  4878.76436********************
           X            0.99976   0.00528  -0.02149
           Y           -0.00522   0.99998   0.00294
           Z            0.02150  -0.00282   0.99976
 This molecule is an asymmetric top.
 Rotational symmetry number  1.
 Warning -- assumption of classical behavior for rotation
           may cause significant error
 Rotational temperatures (Kelvin)      0.01775     0.00824     0.00668
 Rotational constants (GHZ):           0.36992     0.17170     0.13920
    1 imaginary frequencies ignored.
 Zero-point vibrational energy     768149.7 (Joules/Mol)
                                  183.59218 (Kcal/Mol)
 Warning -- explicit consideration of  29 degrees of freedom as
           vibrations may cause significant error
 Vibrational temperatures:     37.33    50.65    70.69    83.21    95.41
          (Kelvin)            121.75   145.23   179.70   190.65   222.08
                              239.24   256.44   283.60   338.90   358.37
                              378.39   397.43   443.98   464.12   518.88
                              534.01   563.99   608.41   614.16   755.34
                              762.07   799.65   843.90   886.48   897.34
                              915.32   922.33   979.07  1036.50  1040.39
                             1054.08  1098.70  1126.21  1139.88  1192.54
                             1249.07  1257.56  1263.88  1298.04  1354.97
                             1387.88  1447.47  1447.86  1467.51  1469.32
                             1469.44  1475.70  1496.52  1507.32  1534.41
                             1540.97  1545.61  1557.05  1619.16  1629.71
                             1702.37  1712.46  1742.44  1746.43  1772.56
                             1782.62  1819.56  1843.42  1898.00  1932.47
                             1935.77  1963.60  1980.57  2070.24  2117.76
                             2130.63  2147.42  2154.56  2173.53  2224.28
                             2227.92  2266.28  2370.53  2384.39  2392.80
                             2407.98  2409.02  2437.33  4424.11  4537.21
                             4571.17  4584.05  4600.08  4610.13  4613.92
                             4621.12  4633.04  4635.82  4645.22  4682.70
                             4708.70  5062.35  5170.06  5261.84

 Zero-point correction=                           0.292573 (Hartree/Particle)
 Thermal correction to Energy=                    0.312245
 Thermal correction to Enthalpy=                  0.313190
 Thermal correction to Gibbs Free Energy=         0.242343
 Sum of electronic and zero-point Energies=          -3838.192918
 Sum of electronic and thermal Energies=             -3838.173245
 Sum of electronic and thermal Enthalpies=           -3838.172301
 Sum of electronic and thermal Free Energies=        -3838.243147

                     E (Thermal)             CV                S
                      KCal/Mol        Cal/Mol-Kelvin    Cal/Mol-Kelvin
 Total                  195.937             73.692            149.108
 Electronic               0.000              0.000              0.000
 Translational            0.889              2.981             43.586
 Rotational               0.889              2.981             34.852
 Vibrational            194.159             67.730             70.671
 Vibration     1          0.593              1.985              6.117
 Vibration     2          0.594              1.982              5.512
 Vibration     3          0.595              1.978              4.852
 Vibration     4          0.596              1.974              4.530
 Vibration     5          0.598              1.970              4.260
 Vibration     6          0.601              1.960              3.781
 Vibration     7          0.604              1.948              3.436
 Vibration     8          0.610              1.928              3.023
 Vibration     9          0.613              1.921              2.909
 Vibration    10          0.620              1.898              2.618
 Vibration    11          0.624              1.884              2.477
 Vibration    12          0.629              1.869              2.347
 Vibration    13          0.636              1.844              2.160
 Vibration    14          0.655              1.786              1.836
 Vibration    15          0.662              1.764              1.737
 Vibration    16          0.670              1.741              1.642
 Vibration    17          0.678              1.717              1.557
 Vibration    18          0.698              1.657              1.370
 Vibration    19          0.708              1.630              1.297
 Vibration    20          0.735              1.553              1.119
 Vibration    21          0.743              1.531              1.075
 Vibration    22          0.759              1.487              0.993
 Vibration    23          0.785              1.421              0.882
 Vibration    24          0.789              1.412              0.869
 Vibration    25          0.880              1.195              0.599
 Vibration    26          0.885              1.184              0.588
 Vibration    27          0.911              1.127              0.532
 Vibration    28          0.944              1.061              0.473
 Vibration    29          0.976              0.998              0.423

 Optimization completed.
    -- Stationary point found.
 Normal termination of Gaussian 16 at Sat Mar 27 23:39:54 2021.
