 Gaussian 16, Revision A.03,
 Gaussian 16:  ES64L-G16RevA.03 25-Dec-2016

 ----------------------------------------------------------------------
 # wB97XD def2tzvp, opt=(ts, noeigen, calcfc, maxcycles=70, maxstep=5),
  freq=noraman, scrf=(iefpcm, solvent=water)
 ----------------------------------------------------------------------

 ------------------------
 2_iteration/TS-606-2.out
 ------------------------
 Symbolic Z-matrix:
 Charge =  0 Multiplicity = 1

 SCF Done:  E(RwB97XD) =  -3457.49061506     A.U. after   15 cycles
 SCF Done:  E(RwB97XD) =  -3457.49061532     A.U. after    9 cycles
 SCF Done:  E(RwB97XD) =  -3457.49061537     A.U. after    7 cycles
 Optimization completed.
    -- Stationary point found.
 Normal termination of Gaussian 16 at Sun Jun 13 18:12:07 2021.

 ---------------------------------------------------------------------
 #N Geom=AllCheck Guess=TCheck SCRF=Check GenChk RwB97XD/def2TZVP Freq
 ---------------------------------------------------------------------

 Structure from the checkpoint file:  "/beegfs/scratch/user/q/tla25/Gau-61690.chk"
 ------------------------
 2_iteration/TS-606-2.out
 ------------------------
 Charge =  0 Multiplicity = 1

                         Standard orientation:
 ---------------------------------------------------------------------
 Center     Atomic      Atomic             Coordinates (Angstroms)
 Number     Number       Type             X           Y           Z
 ---------------------------------------------------------------------
      1          6           0        0.582460    0.581736    0.236490
      2          6           0        0.073144    1.977811    0.349115
      3          8           0        0.423072    2.691190    1.292906
      4          6           0       -0.251090   -0.485702    0.147793
      5          6           0       -0.848307   -2.856677    1.753444
      6          1           0       -0.540202   -3.481434    2.592186
      7          1           0       -1.857748   -2.491295    1.928995
      8          1           0       -0.833360   -3.446229    0.839625
      9          7           0        0.053327   -1.716157    1.595413
     10          1           0        0.021532   -1.106874    2.405906
     11          1           0        1.013164   -2.016269    1.465027
     12         35           0        0.381646   -1.966277   -1.277170
     13          6           0       -1.732954   -0.359261    0.209198
     14          6           0       -2.593591   -0.840592   -0.769875
     15          6           0       -3.964208   -0.655950   -0.657201
     16          6           0       -4.495576    0.001259    0.440141
     17          6           0       -3.646006    0.474667    1.431070
     18          6           0       -2.279933    0.290970    1.318618
     19          1           0       -2.193245   -1.354850   -1.631192
     20          1           0       -4.616971   -1.031085   -1.434911
     21          1           0       -5.565462    0.140650    0.527493
     22          1           0       -4.047885    0.986075    2.296222
     23          1           0       -1.626159    0.667773    2.095310
     24          6           0        2.065670    0.460787    0.276716
     25          6           0        2.756214    0.088432    1.428522
     26          6           0        4.141291   -0.012084    1.432312
     27          6           0        4.863168    0.272169    0.283348
     28          6           0        4.191605    0.664158   -0.866959
     29          6           0        2.808784    0.757577   -0.866609
     30          1           0        2.211046   -0.101726    2.344806
     31          1           0        4.655703   -0.305187    2.339036
     32          1           0        5.943152    0.195574    0.285084
     33          1           0        4.746800    0.895163   -1.767671
     34          1           0        2.289353    1.056844   -1.769228
     35          7           0       -0.756878    2.458930   -0.609047
     36          6           0       -0.937470    1.885868   -1.925176
     37          6           0       -1.374157    3.753828   -0.413064
     38          1           0       -0.318607    1.001768   -2.044499
     39          1           0       -1.981489    1.608737   -2.088148
     40          1           0       -0.651373    2.619584   -2.683831
     41          1           0       -1.501595    3.944468    0.648999
     42          1           0       -0.768586    4.558077   -0.842362
     43          1           0       -2.349641    3.757033   -0.900996
 ---------------------------------------------------------------------

 SCF Done:  E(RwB97XD) =  -3457.49061537     A.U. after    1 cycles

 The electronic state is 1-A.
 Alpha  occ. eigenvalues -- -483.10009 -62.64851 -56.43910 -56.43645 -56.43635
 Alpha  occ. eigenvalues --  -19.20611 -14.49209 -14.46142 -10.39392 -10.38351
 Alpha  occ. eigenvalues --  -10.31810 -10.31377 -10.30724 -10.30474 -10.30128
 Alpha  occ. eigenvalues --  -10.29883 -10.29627 -10.29597 -10.29512 -10.29439
 Alpha  occ. eigenvalues --  -10.28987 -10.28929 -10.28896 -10.28841 -10.28721
 Alpha  occ. eigenvalues --  -10.27063  -8.78928  -6.60878  -6.60056  -6.60021
 Alpha  occ. eigenvalues --   -2.71278  -2.71068  -2.71039  -2.70374  -2.70374
 Alpha  occ. eigenvalues --   -1.13512  -1.04609  -1.03361  -0.97931  -0.96734
 Alpha  occ. eigenvalues --   -0.92146  -0.87107  -0.85957  -0.84998  -0.84136
 Alpha  occ. eigenvalues --   -0.82739  -0.81397  -0.79598  -0.78170  -0.73727
 Alpha  occ. eigenvalues --   -0.71117  -0.70269  -0.69041  -0.66934  -0.64178
 Alpha  occ. eigenvalues --   -0.63338  -0.61578  -0.60929  -0.58883  -0.57086
 Alpha  occ. eigenvalues --   -0.56686  -0.56123  -0.55566  -0.54907  -0.54329
 Alpha  occ. eigenvalues --   -0.54021  -0.52908  -0.51665  -0.51027  -0.50790
 Alpha  occ. eigenvalues --   -0.50147  -0.48888  -0.48465  -0.48351  -0.47282
 Alpha  occ. eigenvalues --   -0.46985  -0.46373  -0.45675  -0.45465  -0.44591
 Alpha  occ. eigenvalues --   -0.44274  -0.42829  -0.41924  -0.41605  -0.36364
 Alpha  occ. eigenvalues --   -0.35834  -0.34679  -0.34364  -0.34250  -0.33653
 Alpha  occ. eigenvalues --   -0.32770  -0.31749  -0.26924
 Alpha virt. eigenvalues --    0.00736   0.04355   0.04790   0.05146   0.05689
 Alpha virt. eigenvalues --    0.08239   0.10018   0.11743   0.12715   0.13231
 Alpha virt. eigenvalues --    0.13897   0.14324   0.14739   0.15579   0.16115

 Mulliken charges:
               1
     1  C   -0.037575
     2  C    0.186825
     3  O   -0.501502
     4  C    0.102363
     5  C   -0.284490
     6  H    0.161213
     7  H    0.159848
     8  H    0.153127
     9  N   -0.306626
    10  H    0.280992
    11  H    0.291686
    12  Br  -0.326281
    13  C    0.114369
    14  C   -0.221695
    15  C   -0.129855
    16  C   -0.125415
    17  C   -0.155382
    18  C   -0.275266
    19  H    0.148709
    20  H    0.144281
    21  H    0.146992
    22  H    0.145529
    23  H    0.163668
    24  C    0.239672
    25  C   -0.315741
    26  C   -0.152450
    27  C   -0.138780
    28  C   -0.156572
    29  C   -0.234477
    30  H    0.149770
    31  H    0.140782
    32  H    0.143221
    33  H    0.140131
    34  H    0.153051
    35  N   -0.070242
    36  C   -0.311106
    37  C   -0.292934
    38  H    0.148497
    39  H    0.154407
    40  H    0.147204
    41  H    0.143286
    42  H    0.138143
    43  H    0.138624
 Sum of Mulliken charges =  -0.00000

 Dipole moment (field-independent basis, Debye):
    X=             -4.4182    Y=             -3.6464    Z=              1.9825  Tot=              6.0620
 Quadrupole moment (field-independent basis, Debye-Ang):
   XX=           -125.7433   YY=           -149.0979   ZZ=           -132.0301
   XY=             -6.4752   XZ=             -0.0653   YZ=            -22.6307

  Exact polarizability: 405.646  -5.800 325.957   2.231  14.985 352.887
 Approx polarizability: 308.307  -4.276 260.607   4.396  15.717 301.731

 ******    1 imaginary frequencies (negative Signs) ******

                      1                      2                      3
                      A                      A                      A
 Frequencies --   -404.9202                18.7587                40.9510
 Red. masses --      7.1319                 4.1983                 4.9835
 Frc consts  --      0.6890                 0.0009                 0.0049
 IR Inten    --    453.1046                 0.2908                 1.4742

                      4                      5                      6
                      A                      A                      A
 Frequencies --     43.1335                59.5980                61.8022
 Red. masses --      4.6086                 5.1305                 3.9561
 Frc consts  --      0.0051                 0.0107                 0.0089
 IR Inten    --      6.3015                 3.0236                 6.2122

                      7                      8                      9
                      A                      A                      A
 Frequencies --     77.8498                87.9396               100.7685
 Red. masses --      4.5451                 3.1059                 1.7517
 Frc consts  --      0.0162                 0.0142                 0.0105
 IR Inten    --      2.7692                 2.5219                 8.6881

                     10                     11                     12
                      A                      A                      A
 Frequencies --    103.4202               106.1544               115.4925
 Red. masses --      2.0636                 2.6907                 2.6643
 Frc consts  --      0.0130                 0.0179                 0.0209
 IR Inten    --     12.3068                 8.5688                 3.5611

                     13                     14                     15
                      A                      A                      A
 Frequencies --    149.2219               168.4862               185.8756
 Red. masses --      1.6216                 4.3860                 5.3910
 Frc consts  --      0.0213                 0.0734                 0.1097
 IR Inten    --      2.4115                 4.7734                21.2710

                     16                     17                     18
                      A                      A                      A
 Frequencies --    207.2080               218.0375               249.3754
 Red. masses --      5.2268                 3.5638                 3.7401
 Frc consts  --      0.1322                 0.0998                 0.1370
 IR Inten    --     84.7221                 2.9491                 2.5589

                     19                     20                     21
                      A                      A                      A
 Frequencies --    258.1242               263.5115               266.2859
 Red. masses --      3.1364                 3.9219                 3.7871
 Frc consts  --      0.1231                 0.1605                 0.1582
 IR Inten    --      9.8707                 5.3677                15.8645

                     22                     23                     24
                      A                      A                      A
 Frequencies --    278.6694               311.0132               323.1131
 Red. masses --      3.4219                 3.1364                 1.1612
 Frc consts  --      0.1566                 0.1787                 0.0714
 IR Inten    --      9.8555                40.4855                 3.7783

                     25                     26                     27
                      A                      A                      A
 Frequencies --    384.9802               405.8771               423.0450
 Red. masses --      3.4621                 4.5938                 2.8775
 Frc consts  --      0.3023                 0.4459                 0.3034
 IR Inten    --     14.2921                45.5996                 1.0077

                     28                     29                     30
                      A                      A                      A
 Frequencies --    424.5946               458.9009               509.7368
 Red. masses --      2.9281                 3.0278                 4.0701
 Frc consts  --      0.3110                 0.3757                 0.6231
 IR Inten    --      0.2579                12.3063                51.1533

                     31                     32                     33
                      A                      A                      A
 Frequencies --    524.9188               568.8805               580.2650
 Red. masses --      3.4785                 4.8503                 5.0997
 Frc consts  --      0.5647                 0.9248                 1.0117
 IR Inten    --    164.6142                68.6981                85.9451

                     34                     35                     36
                      A                      A                      A
 Frequencies --    629.7189               637.9729               650.5391
 Red. masses --      5.7334                 6.1686                 4.7258
 Frc consts  --      1.3395                 1.4792                 1.1783
 IR Inten    --     58.4095                 1.1109                37.8650

                     37                     38                     39
                      A                      A                      A
 Frequencies --    681.7387               703.3930               725.9437
 Red. masses --      6.6031                 1.8596                 1.5381
 Frc consts  --      1.8081                 0.5421                 0.4776
 IR Inten    --     24.0460                87.4617                90.2944

                     40                     41                     42
                      A                      A                      A
 Frequencies --    730.9777               742.3610               772.4314
 Red. masses --      1.6361                 4.2489                 2.6254
 Frc consts  --      0.5151                 1.3796                 0.9229
 IR Inten    --     95.5081               179.5521                42.4796

                     43                     44                     45
                      A                      A                      A
 Frequencies --    802.9102               812.9516               874.2988
 Red. masses --      2.5508                 3.3713                 3.5766
 Frc consts  --      0.9688                 1.3127                 1.6108
 IR Inten    --     19.3506                71.0631                18.5208

                     46                     47                     48
                      A                      A                      A
 Frequencies --    878.6538               881.3497               916.3926
 Red. masses --      1.3386                 1.2875                 3.2464
 Frc consts  --      0.6089                 0.5892                 1.6063
 IR Inten    --      1.1511                 0.1797                58.6247

                     49                     50                     51
                      A                      A                      A
 Frequencies --    963.8675               970.5729              1012.5985
 Red. masses --      1.5944                 1.4608                 1.3853
 Frc consts  --      0.8728                 0.8108                 0.8369
 IR Inten    --      4.4314                 1.7226                 0.9020

                     52                     53                     54
                      A                      A                      A
 Frequencies --   1017.4670              1020.3697              1025.9805
 Red. masses --      1.1659                 1.3346                 4.4267
 Frc consts  --      0.7111                 0.8187                 2.7454
 IR Inten    --      5.4268                 3.6524                 2.4499

                     55                     56                     57
                      A                      A                      A
 Frequencies --   1026.7024              1028.8751              1030.3619
 Red. masses --      5.5664                 1.6190                 1.5523
 Frc consts  --      3.4571                 1.0098                 0.9709
 IR Inten    --      0.8576                18.8818                47.2707

                     58                     59                     60
                      A                      A                      A
 Frequencies --   1036.3370              1048.6712              1062.8895
 Red. masses --      1.3295                 1.5880                 2.9504
 Frc consts  --      0.8413                 1.0289                 1.9638
 IR Inten    --      0.7439                65.5305                99.7391

                     61                     62                     63
                      A                      A                      A
 Frequencies --   1066.0434              1074.0012              1083.7719
 Red. masses --      2.1414                 2.2257                 1.4020
 Frc consts  --      1.4338                 1.5126                 0.9702
 IR Inten    --     23.4603                95.2829                13.2978

                     64                     65                     66
                      A                      A                      A
 Frequencies --   1114.7406              1123.1016              1134.5119
 Red. masses --      1.5877                 1.5619                 1.2384
 Frc consts  --      1.1625                 1.1608                 0.9391
 IR Inten    --     13.6266                10.7663                 1.6004

                     67                     68                     69
                      A                      A                      A
 Frequencies --   1174.1337              1182.8949              1183.9143
 Red. masses --      2.1118                 1.1352                 1.5563
 Frc consts  --      1.7153                 0.9359                 1.2853
 IR Inten    --     40.1209                 1.2311                51.2337

                     70                     71                     72
                      A                      A                      A
 Frequencies --   1186.3551              1212.2713              1217.1793
 Red. masses --      1.1305                 1.1381                 1.1469
 Frc consts  --      0.9375                 0.9855                 1.0011
 IR Inten    --      0.7318                 3.5119                12.1859

                     73                     74                     75
                      A                      A                      A
 Frequencies --   1227.5583              1238.0723              1282.7978
 Red. masses --      1.6496                 2.7019                 4.4518
 Frc consts  --      1.4646                 2.4401                 4.3162
 IR Inten    --    106.1095               173.9865                89.8262

                     76                     77                     78
                      A                      A                      A
 Frequencies --   1308.2032              1315.5459              1323.6182
 Red. masses --      4.6558                 5.2940                 4.5174
 Frc consts  --      4.6946                 5.3982                 4.6630
 IR Inten    --      6.7293               128.4609                 9.4244

                     79                     80                     81
                      A                      A                      A
 Frequencies --   1343.5461              1361.7171              1365.0064
 Red. masses --      1.3140                 1.4297                 1.4329
 Frc consts  --      1.3975                 1.5620                 1.5730
 IR Inten    --      2.0555                 0.6058                 8.7671

                     82                     83                     84
                      A                      A                      A
 Frequencies --   1432.7441              1442.6786              1447.4858
 Red. masses --      2.0606                 1.1657                 1.1804
 Frc consts  --      2.4922                 1.4295                 1.4571
 IR Inten    --    293.4213                 9.4275                 3.7548

                     85                     86                     87
                      A                      A                      A
 Frequencies --   1469.6275              1483.7318              1485.9242
 Red. masses --      1.2261                 1.1527                 2.1165
 Frc consts  --      1.5602                 1.4951                 2.7534
 IR Inten    --    110.1475                47.0364                 4.5900

                     88                     89                     90
                      A                      A                      A
 Frequencies --   1489.0682              1489.9112              1496.4431
 Red. masses --      2.1615                 1.0473                 1.0529
 Frc consts  --      2.8239                 1.3697                 1.3892
 IR Inten    --     27.0419                10.5448                39.6770

                     91                     92                     93
                      A                      A                      A
 Frequencies --   1497.7288              1511.0717              1530.6241
 Red. masses --      1.0435                 1.1335                 2.2617
 Frc consts  --      1.3791                 1.5249                 3.1219
 IR Inten    --     15.8178                35.9117               114.0796

                     94                     95                     96
                      A                      A                      A
 Frequencies --   1543.3090              1549.2754              1582.4993
 Red. masses --      2.2844                 1.3473                 6.9830
 Frc consts  --      3.2058                 1.9053                10.3034
 IR Inten    --     55.3449               187.6225               418.8176

                     97                     98                     99
                      A                      A                      A
 Frequencies --   1641.5228              1646.0006              1650.4112
 Red. masses --      1.3664                 2.9398                 5.6266
 Frc consts  --      2.1693                 4.6928                 9.0299
 IR Inten    --     99.0951                99.4556                38.1576

                    100                    101                    102
                      A                      A                      A
 Frequencies --   1651.8240              1672.2123              1674.7027
 Red. masses --      7.0956                 5.8708                 5.9341
 Frc consts  --     11.4069                 9.6724                 9.8058
 IR Inten    --    589.2422                58.3205                 1.8472

                    103                    104                    105
                      A                      A                      A
 Frequencies --   3036.3138              3041.1017              3074.1431
 Red. masses --      1.0419                 1.0415                 1.0346
 Frc consts  --      5.6594                 5.6752                 5.7607
 IR Inten    --     52.2341               126.3572                40.8235

                    106                    107                    108
                      A                      A                      A
 Frequencies --   3098.0799              3109.2518              3155.2816
 Red. masses --      1.1016                 1.0966                 1.1030
 Frc consts  --      6.2295                 6.2459                 6.4701
 IR Inten    --     67.5935                23.2186                 9.6791

                    109                    110                    111
                      A                      A                      A
 Frequencies --   3172.4131              3178.5357              3182.1986
 Red. masses --      1.1007                 1.1058                 1.0978
 Frc consts  --      6.5265                 6.5825                 6.5497
 IR Inten    --     10.1959                 5.4592                 7.1110

                    112                    113                    114
                      A                      A                      A
 Frequencies --   3190.0712              3195.0615              3197.8325
 Red. masses --      1.0861                 1.0876                 1.0865
 Frc consts  --      6.5120                 6.5414                 6.5464
 IR Inten    --      5.8179                 0.7226                 1.0938

                    115                    116                    117
                      A                      A                      A
 Frequencies --   3204.0484              3204.0836              3211.1429
 Red. masses --      1.0896                 1.0912                 1.0949
 Frc consts  --      6.5902                 6.6000                 6.6519
 IR Inten    --      2.2430                18.8867                49.0911

                    118                    119                    120
                      A                      A                      A
 Frequencies --   3213.6044              3221.0317              3224.0964
 Red. masses --      1.0934                 1.0988                 1.0978
 Frc consts  --      6.6530                 6.7166                 6.7235
 IR Inten    --     22.8522                17.5535                20.3724

                    121                    122                    123
                      A                      A                      A
 Frequencies --   3240.2760              3513.1255              3599.8679
 Red. masses --      1.0931                 1.0505                 1.0967
 Frc consts  --      6.7620                 7.6391                 8.3739
 IR Inten    --      3.0915                31.9944                49.8194

 - Thermochemistry -
 -------------------
 Temperature   298.150 Kelvin.  Pressure   1.00000 Atm.
 Atom     1 has atomic number  6 and mass  12.00000

 Molecular mass:   360.08372 amu.
 Principal axes and moments of inertia in atomic units:
                           1         2         3
     Eigenvalues --  5454.154018699.39413**********
           X            0.99998  -0.00140   0.00542
           Y            0.00193   0.99501  -0.09976
           Z           -0.00525   0.09977   0.99500
 This molecule is an asymmetric top.
 Rotational symmetry number  1.
 Warning -- assumption of classical behavior for rotation
           may cause significant error
 Rotational temperatures (Kelvin)      0.01588     0.00996     0.00805
 Rotational constants (GHZ):           0.33089     0.20746     0.16765
    1 imaginary frequencies ignored.
 Zero-point vibrational energy     938061.6 (Joules/Mol)
                                  224.20211 (Kcal/Mol)
 Warning -- explicit consideration of  32 degrees of freedom as
           vibrations may cause significant error
 Vibrational temperatures:     26.99    58.92    62.06    85.75    88.92
          (Kelvin)            112.01   126.53   144.98   148.80   152.73
                              166.17   214.70   242.41   267.43   298.13
                              313.71   358.80   371.38   379.13   383.13
                              400.94   447.48   464.89   553.90   583.97
                              608.67   610.90   660.26   733.40   755.24
                              818.49   834.87   906.02   917.90   935.98
                              980.87  1012.03  1044.47  1051.71  1068.09
                             1111.36  1155.21  1169.66  1257.92  1264.19
                             1268.07  1318.48  1386.79  1396.44  1456.90
                             1463.91  1468.08  1476.16  1477.20  1480.32
                             1482.46  1491.06  1508.80  1529.26  1533.80
                             1545.25  1559.31  1603.86  1615.89  1632.31
                             1689.32  1701.92  1703.39  1706.90  1744.19
                             1751.25  1766.18  1781.31  1845.66  1882.21
                             1892.78  1904.39  1933.06  1959.21  1963.94
                             2061.40  2075.69  2082.61  2114.47  2134.76
                             2137.91  2142.44  2143.65  2153.05  2154.90
                             2174.10  2202.23  2220.48  2229.06  2276.86
                             2361.79  2368.23  2374.57  2376.61  2405.94
                             2409.52  4368.58  4375.47  4423.01  4457.45
                             4473.52  4539.75  4564.39  4573.20  4578.47
                             4589.80  4596.98  4600.97  4609.91  4609.96
                             4620.12  4623.66  4634.35  4638.76  4662.03
                             5054.60  5179.41

 Zero-point correction=                           0.357289 (Hartree/Particle)
 Thermal correction to Energy=                    0.379343
 Thermal correction to Enthalpy=                  0.380287
 Thermal correction to Gibbs Free Energy=         0.304245
 Sum of electronic and zero-point Energies=          -3457.133327
 Sum of electronic and thermal Energies=             -3457.111273
 Sum of electronic and thermal Enthalpies=           -3457.110329
 Sum of electronic and thermal Free Energies=        -3457.186371

                     E (Thermal)             CV                S
                      KCal/Mol        Cal/Mol-Kelvin    Cal/Mol-Kelvin
 Total                  238.041             81.380            160.044
 Electronic               0.000              0.000              0.000
 Translational            0.889              2.981             43.537
 Rotational               0.889              2.981             34.590
 Vibrational            236.264             75.418             81.917
 Vibration     1          0.593              1.986              6.761
 Vibration     2          0.594              1.981              5.213
 Vibration     3          0.595              1.980              5.110
 Vibration     4          0.597              1.974              4.470
 Vibration     5          0.597              1.973              4.399
 Vibration     6          0.599              1.964              3.944
 Vibration     7          0.601              1.958              3.705
 Vibration     8          0.604              1.949              3.439
 Vibration     9          0.605              1.946              3.389
 Vibration    10          0.605              1.944              3.338
 Vibration    11          0.608              1.937              3.174
 Vibration    12          0.618              1.904              2.682
 Vibration    13          0.625              1.881              2.452
 Vibration    14          0.632              1.859              2.269
 Vibration    15          0.641              1.830              2.068
 Vibration    16          0.646              1.814              1.975
 Vibration    17          0.662              1.764              1.735
 Vibration    18          0.667              1.749              1.674
 Vibration    19          0.670              1.740              1.638
 Vibration    20          0.672              1.735              1.620
 Vibration    21          0.679              1.713              1.542
 Vibration    22          0.700              1.653              1.357
 Vibration    23          0.708              1.629              1.294
 Vibration    24          0.754              1.502              1.020
 Vibration    25          0.771              1.457              0.941
 Vibration    26          0.785              1.420              0.882
 Vibration    27          0.787              1.417              0.876
 Vibration    28          0.817              1.341              0.769
 Vibration    29          0.865              1.228              0.634
 Vibration    30          0.880              1.195              0.599
 Vibration    31          0.925              1.099              0.506
 Vibration    32          0.937              1.074              0.485

 Optimization completed.
    -- Stationary point found.
 Normal termination of Gaussian 16 at Sun Jun 13 19:56:21 2021.
