 Gaussian 16, Revision A.03,
 Gaussian 16:  ES64L-G16RevA.03 25-Dec-2016

 ----------------------------------------------------------------------
 # wB97XD def2tzvp, opt=(ts, noeigen, calcfc, maxcycles=70, maxstep=1),
  freq=noraman, scrf=(iefpcm, solvent=water)
 ----------------------------------------------------------------------

 ------------------------
 0_iteration/TS-659-0.out
 ------------------------
 Symbolic Z-matrix:
 Charge =  0 Multiplicity = 1

 SCF Done:  E(RwB97XD) =  -2956.09670083     A.U. after   15 cycles
 SCF Done:  E(RwB97XD) =  -2956.09670104     A.U. after   10 cycles
 SCF Done:  E(RwB97XD) =  -2956.09670523     A.U. after    9 cycles
 SCF Done:  E(RwB97XD) =  -2956.09671886     A.U. after   10 cycles
 SCF Done:  E(RwB97XD) =  -2956.09675696     A.U. after   10 cycles
 SCF Done:  E(RwB97XD) =  -2956.09680629     A.U. after   10 cycles
 SCF Done:  E(RwB97XD) =  -2956.09686365     A.U. after   10 cycles
 SCF Done:  E(RwB97XD) =  -2956.09693030     A.U. after   10 cycles
 SCF Done:  E(RwB97XD) =  -2956.09702244     A.U. after   10 cycles
 SCF Done:  E(RwB97XD) =  -2956.09712022     A.U. after   10 cycles
 SCF Done:  E(RwB97XD) =  -2956.09859695     A.U. after   10 cycles
 SCF Done:  E(RwB97XD) =  -2956.09863123     A.U. after   10 cycles
 SCF Done:  E(RwB97XD) =  -2956.09865706     A.U. after   10 cycles
 SCF Done:  E(RwB97XD) =  -2956.09867380     A.U. after   10 cycles
 SCF Done:  E(RwB97XD) =  -2956.09867977     A.U. after   10 cycles
 SCF Done:  E(RwB97XD) =  -2956.09868033     A.U. after    8 cycles
 SCF Done:  E(RwB97XD) =  -2956.09868047     A.U. after    8 cycles
 SCF Done:  E(RwB97XD) =  -2956.09868056     A.U. after    6 cycles
 SCF Done:  E(RwB97XD) =  -2956.09868059     A.U. after    6 cycles
 Optimization completed.
    -- Stationary point found.
 Normal termination of Gaussian 16 at Thu Feb 18 19:05:47 2021.

 ---------------------------------------------------------------------
 #N Geom=AllCheck Guess=TCheck SCRF=Check GenChk RwB97XD/def2TZVP Freq
 ---------------------------------------------------------------------

 Structure from the checkpoint file:  "/beegfs/scratch/user/q/tla25/Gau-13049.chk"
 ------------------------
 0_iteration/TS-659-0.out
 ------------------------
 Charge =  0 Multiplicity = 1

                         Standard orientation:
 ---------------------------------------------------------------------
 Center     Atomic      Atomic             Coordinates (Angstroms)
 Number     Number       Type             X           Y           Z
 ---------------------------------------------------------------------
      1          6           0        1.109058   -0.325174    0.293287
      2          6           0        2.389685    0.097342   -0.215513
      3          8           0        3.436855   -0.513700    0.040557
      4          6           0       -0.049217    0.241560   -0.198337
      5          6           0       -1.754962    2.453371    0.332138
      6          1           0       -1.287828    2.932575   -0.526990
      7          1           0       -2.625767    1.892415    0.000187
      8          1           0       -2.068337    3.217945    1.042430
      9          7           0       -0.794741    1.528659    0.936453
     10          1           0        0.029417    2.013608    1.274435
     11          1           0       -1.197392    1.028225    1.721567
     12         35           0       -1.636878   -0.900515   -0.392420
     13          1           0       -0.001556    0.874526   -1.074262
     14          6           0        1.095650   -1.418331    1.327511
     15          1           0        0.208452   -1.358236    1.960703
     16          1           0        1.108214   -2.420145    0.883965
     17          1           0        1.970846   -1.343115    1.973016
     18          7           0        2.464374    1.193062   -1.063743
     19          1           0        1.821759    1.956364   -0.942968
     20          1           0        3.409387    1.488813   -1.245328
 ---------------------------------------------------------------------

 SCF Done:  E(RwB97XD) =  -2956.09868059     A.U. after    1 cycles

 The electronic state is 1-A.
 Alpha  occ. eigenvalues -- -483.12669 -62.67534 -56.46632 -56.46302 -56.46289
 Alpha  occ. eigenvalues --  -19.19445 -14.49643 -14.43126 -10.38297 -10.37099
 Alpha  occ. eigenvalues --  -10.32299 -10.26658 -10.25725  -8.81651  -6.63753
 Alpha  occ. eigenvalues --   -6.62705  -6.62661  -2.74144  -2.73853  -2.73818
 Alpha  occ. eigenvalues --   -2.72970  -2.72970  -1.11805  -1.04972  -0.98476
 Alpha  occ. eigenvalues --   -0.92394  -0.85625  -0.79815  -0.77658  -0.70935
 Alpha  occ. eigenvalues --   -0.64173  -0.63156  -0.61604  -0.57852  -0.55472
 Alpha  occ. eigenvalues --   -0.55045  -0.50935  -0.50536  -0.48843  -0.48101
 Alpha  occ. eigenvalues --   -0.46724  -0.45561  -0.44770  -0.44327  -0.37510
 Alpha  occ. eigenvalues --   -0.37137  -0.35254  -0.32957  -0.26482
 Alpha virt. eigenvalues --    0.05303   0.06825   0.09543   0.12632   0.13993
 Alpha virt. eigenvalues --    0.14678   0.16098   0.17039   0.17342   0.18398
 Alpha virt. eigenvalues --    0.19182   0.21273   0.21422   0.21906   0.23337

 Mulliken charges:
               1
     1  C   -0.115725
     2  C    0.302199
     3  O   -0.543528
     4  C   -0.183325
     5  C   -0.278927
     6  H    0.154904
     7  H    0.154070
     8  H    0.160523
     9  N   -0.266517
    10  H    0.282069
    11  H    0.289946
    12  Br  -0.138489
    13  H    0.188085
    14  C   -0.388075
    15  H    0.123443
    16  H    0.117625
    17  H    0.124858
    18  N   -0.507732
    19  H    0.267837
    20  H    0.256759
 Sum of Mulliken charges =   0.00000

 Dipole moment (field-independent basis, Debye):
    X=             -7.3668    Y=              9.1373    Z=              2.2987  Tot=             11.9601
 Quadrupole moment (field-independent basis, Debye-Ang):
   XX=            -89.0546   YY=            -55.7500   ZZ=            -65.2170
   XY=              5.0077   XZ=             -4.9027   YZ=              1.7984

  Exact polarizability: 195.227 -10.275 143.643  -0.590  -2.457 112.659
 Approx polarizability: 145.653  -6.635 116.429   0.593  -1.791  97.526

 ******    1 imaginary frequencies (negative Signs) ******

                      1                      2                      3
                      A                      A                      A
 Frequencies --   -391.2643                59.4602                71.0379
 Red. masses --      6.6153                 2.5419                 2.3841
 Frc consts  --      0.5967                 0.0053                 0.0071
 IR Inten    --    893.6604                 2.4778                 4.8160

                      4                      5                      6
                      A                      A                      A
 Frequencies --     92.3071                93.4146               143.5122
 Red. masses --      2.4627                 1.6809                 2.1385
 Frc consts  --      0.0124                 0.0086                 0.0260
 IR Inten    --      4.7105                 5.8136                 4.1286

                      7                      8                      9
                      A                      A                      A
 Frequencies --    164.1595               169.6136               207.3202
 Red. masses --      3.6572                 2.4489                 2.0120
 Frc consts  --      0.0581                 0.0415                 0.0510
 IR Inten    --     10.9268                 3.6471                 4.8698

                     10                     11                     12
                      A                      A                      A
 Frequencies --    260.7891               295.8872               345.8730
 Red. masses --      3.3103                 2.9999                 3.9264
 Frc consts  --      0.1326                 0.1547                 0.2767
 IR Inten    --      9.6011                11.6477                 3.0370

                     13                     14                     15
                      A                      A                      A
 Frequencies --    407.2953               443.7347               487.4032
 Red. masses --      1.2277                 2.7295                 2.7258
 Frc consts  --      0.1200                 0.3167                 0.3815
 IR Inten    --    138.9352               270.6547                82.8355

                     16                     17                     18
                      A                      A                      A
 Frequencies --    520.3543               615.4768               638.2803
 Red. masses --      1.5427                 2.6910                 2.6132
 Frc consts  --      0.2461                 0.6006                 0.6272
 IR Inten    --    126.5964                78.1638                32.8242

                     19                     20                     21
                      A                      A                      A
 Frequencies --    764.9075               779.7758               803.9816
 Red. masses --      2.0380                 5.6878                 3.5136
 Frc consts  --      0.7026                 2.0377                 1.3381
 IR Inten    --    229.4280                68.7912                22.2105

                     22                     23                     24
                      A                      A                      A
 Frequencies --   1001.4272              1014.0008              1045.9787
 Red. masses --      1.6630                 1.0787                 1.5138
 Frc consts  --      0.9826                 0.6534                 0.9758
 IR Inten    --    144.4214                27.5598                12.3199

                     25                     26                     27
                      A                      A                      A
 Frequencies --   1062.3960              1074.6003              1083.7681
 Red. masses --      1.4103                 2.3264                 2.0292
 Frc consts  --      0.9379                 1.5828                 1.4043
 IR Inten    --     42.1644               227.1033               192.6910

                     28                     29                     30
                      A                      A                      A
 Frequencies --   1157.0615              1164.0216              1242.1490
 Red. masses --      1.5802                 1.1483                 1.3779
 Frc consts  --      1.2465                 0.9167                 1.2526
 IR Inten    --      5.9376                56.1469                48.7641

                     31                     32                     33
                      A                      A                      A
 Frequencies --   1283.2188              1341.8167              1395.1460
 Red. masses --      1.5049                 1.3124                 3.4093
 Frc consts  --      1.4600                 1.3922                 3.9098
 IR Inten    --     42.9852                 0.6249               828.9505

                     34                     35                     36
                      A                      A                      A
 Frequencies --   1419.1778              1455.3845              1465.5766
 Red. masses --      1.3179                 1.3727                 1.5897
 Frc consts  --      1.5638                 1.7131                 2.0118
 IR Inten    --     58.8094                55.9328               197.6770

                     37                     38                     39
                      A                      A                      A
 Frequencies --   1475.8798              1492.5359              1503.2720
 Red. masses --      1.2478                 1.0402                 1.0354
 Frc consts  --      1.6013                 1.3653                 1.3785
 IR Inten    --     42.5433                18.1553                35.0913

                     40                     41                     42
                      A                      A                      A
 Frequencies --   1510.2026              1624.5418              1643.3319
 Red. masses --      1.3941                 2.0196                 1.1451
 Frc consts  --      1.8733                 3.1404                 1.8220
 IR Inten    --    305.7920               578.4928               182.6268

                     43                     44                     45
                      A                      A                      A
 Frequencies --   1656.4652              3021.8377              3073.1507
 Red. masses --      1.8892                 1.0491                 1.0331
 Frc consts  --      3.0542                 5.6443                 5.7487
 IR Inten    --    540.4768                88.3433                36.9689

                     46                     47                     48
                      A                      A                      A
 Frequencies --   3090.0826              3131.7349              3153.3971
 Red. masses --      1.0876                 1.1004                 1.1059
 Frc consts  --      6.1189                 6.3589                 6.4790
 IR Inten    --     42.0055                30.9355                12.5094

                     49                     50                     51
                      A                      A                      A
 Frequencies --   3172.5252              3209.1511              3515.8831
 Red. masses --      1.1055                 1.0915                 1.0510
 Frc consts  --      6.5556                 6.6227                 7.6548
 IR Inten    --      8.8042                 2.7490                28.1519

                     52                     53                     54
                      A                      A                      A
 Frequencies --   3598.0664              3607.7051              3715.2718
 Red. masses --      1.0966                 1.0479                 1.0996
 Frc consts  --      8.3646                 8.0359                 8.9425
 IR Inten    --     45.7502                45.2784                33.2654

 - Thermochemistry -
 -------------------
 Temperature   298.150 Kelvin.  Pressure   1.00000 Atm.
 Atom     1 has atomic number  6 and mass  12.00000

 Molecular mass:   194.00547 amu.
 Principal axes and moments of inertia in atomic units:
                           1         2         3
     Eigenvalues --  1224.370452664.644783302.08589
           X            0.99790  -0.06330  -0.01389
           Y            0.06264   0.99707  -0.04391
           Z            0.01663   0.04295   0.99894
 This molecule is an asymmetric top.
 Rotational symmetry number  1.
 Warning -- assumption of classical behavior for rotation
           may cause significant error
 Rotational temperatures (Kelvin)      0.07074     0.03250     0.02623
 Rotational constants (GHZ):           1.47402     0.67729     0.54655
    1 imaginary frequencies ignored.
 Zero-point vibrational energy     435233.4 (Joules/Mol)
                                  104.02328 (Kcal/Mol)
 Warning -- explicit consideration of  16 degrees of freedom as
           vibrations may cause significant error
 Vibrational temperatures:     85.55   102.21   132.81   134.40   206.48
          (Kelvin)            236.19   244.04   298.29   375.22   425.72
                              497.63   586.01   638.44   701.26   748.67
                              885.53   918.34  1100.53  1121.92  1156.75
                             1440.83  1458.92  1504.93  1528.55  1546.11
                             1559.30  1664.75  1674.77  1787.18  1846.27
                             1930.57  2007.30  2041.88  2093.97  2108.64
                             2123.46  2147.43  2162.87  2172.84  2337.35
                             2364.39  2383.28  4347.75  4421.58  4445.94
                             4505.87  4537.04  4564.56  4617.25  5058.57
                             5176.82  5190.68  5345.45

 Zero-point correction=                           0.165772 (Hartree/Particle)
 Thermal correction to Energy=                    0.177275
 Thermal correction to Enthalpy=                  0.178219
 Thermal correction to Gibbs Free Energy=         0.127093
 Sum of electronic and zero-point Energies=          -2955.932909
 Sum of electronic and thermal Energies=             -2955.921406
 Sum of electronic and thermal Enthalpies=           -2955.920461
 Sum of electronic and thermal Free Energies=        -2955.971587

                     E (Thermal)             CV                S
                      KCal/Mol        Cal/Mol-Kelvin    Cal/Mol-Kelvin
 Total                  111.242             39.355            107.603
 Electronic               0.000              0.000              0.000
 Translational            0.889              2.981             41.693
 Rotational               0.889              2.981             30.755
 Vibrational            109.464             33.393             35.154
 Vibration     1          0.597              1.974              4.475
 Vibration     2          0.598              1.968              4.124
 Vibration     3          0.602              1.955              3.611
 Vibration     4          0.602              1.954              3.587
 Vibration     5          0.616              1.910              2.757
 Vibration     6          0.623              1.886              2.501
 Vibration     7          0.625              1.880              2.440
 Vibration     8          0.641              1.829              2.067
 Vibration     9          0.669              1.744              1.656
 Vibration    10          0.690              1.681              1.440
 Vibration    11          0.724              1.584              1.185
 Vibration    12          0.772              1.454              0.936
 Vibration    13          0.803              1.375              0.815
 Vibration    14          0.843              1.278              0.690
 Vibration    15          0.875              1.205              0.609
 Vibration    16          0.975              0.999              0.424

 Optimization completed.
    -- Stationary point found.
 Normal termination of Gaussian 16 at Thu Feb 18 19:16:58 2021.
