 Gaussian 16, Revision A.03,
 Gaussian 16:  ES64L-G16RevA.03 25-Dec-2016

 ----------------------------------------------------------------------
 # wB97XD def2tzvp, opt=(ts, noeigen, calcfc, maxcycles=70, maxstep=8),
  freq=noraman, scrf=(iefpcm, solvent=water)
 ----------------------------------------------------------------------

 ------------------------
 1_iteration/TS-642-1.out
 ------------------------
 Symbolic Z-matrix:
 Charge =  0 Multiplicity = 1

 SCF Done:  E(RwB97XD) =  -3131.77761954     A.U. after   14 cycles
 SCF Done:  E(RwB97XD) =  -3131.77765817     A.U. after   11 cycles
 SCF Done:  E(RwB97XD) =  -3131.77766275     A.U. after   10 cycles
 SCF Done:  E(RwB97XD) =  -3131.77766458     A.U. after   10 cycles
 SCF Done:  E(RwB97XD) =  -3131.77766497     A.U. after    9 cycles
 SCF Done:  E(RwB97XD) =  -3131.77766488     A.U. after    7 cycles
 Optimization completed.
    -- Stationary point found.
 Normal termination of Gaussian 16 at Sat Feb 20 16:14:07 2021.

 ---------------------------------------------------------------------
 #N Geom=AllCheck Guess=TCheck SCRF=Check GenChk RwB97XD/def2TZVP Freq
 ---------------------------------------------------------------------

 Structure from the checkpoint file:  "/beegfs/scratch/user/q/tla25/Gau-97532.chk"
 ------------------------
 1_iteration/TS-642-1.out
 ------------------------
 Charge =  0 Multiplicity = 1

                         Standard orientation:
 ---------------------------------------------------------------------
 Center     Atomic      Atomic             Coordinates (Angstroms)
 Number     Number       Type             X           Y           Z
 ---------------------------------------------------------------------
      1          6           0       -0.208776    0.788268   -0.357359
      2          6           0       -0.390362    2.170484   -0.736065
      3          8           0       -1.490168    2.660331   -1.015733
      4          6           0       -1.354126    0.017259   -0.319008
      5          6           0       -2.136937    1.259317    2.089614
      6          1           0       -2.314977    1.204633    3.163337
      7          1           0       -1.160621    1.714184    1.910657
      8          1           0       -2.897398    1.880857    1.623407
      9          7           0       -2.148798   -0.059595    1.471946
     10          1           0       -1.593811   -0.726785    1.995492
     11          1           0       -3.084952   -0.436827    1.382841
     12         35           0       -1.257717   -1.878932   -0.635000
     13          1           0       -2.245085    0.435186   -0.764287
     14          6           0        1.127761    0.241033   -0.003846
     15          6           0        2.080189   -0.012307   -0.991002
     16          6           0        3.326906   -0.527343   -0.670185
     17          6           0        3.644975   -0.810115    0.651137
     18          6           0        2.708519   -0.569002    1.645534
     19          6           0        1.465870   -0.044756    1.318604
     20          1           0        1.833232    0.194992   -2.025588
     21          1           0        4.050004   -0.714777   -1.454396
     22          1           0        4.616648   -1.215621    0.903591
     23          1           0        2.946812   -0.783056    2.680058
     24          1           0        0.752331    0.157030    2.108613
     25          6           0        0.840709    3.051712   -0.797132
     26          1           0        1.445050    2.951602    0.105600
     27          1           0        1.472948    2.760592   -1.638495
     28          1           0        0.534480    4.087837   -0.925333
 ---------------------------------------------------------------------

 SCF Done:  E(RwB97XD) =  -3131.77766488     A.U. after    1 cycles

 The electronic state is 1-A.
 Alpha  occ. eigenvalues -- -483.13291 -62.68144 -56.47251 -56.46912 -56.46895
 Alpha  occ. eigenvalues --  -19.20636 -14.48441 -10.37911 -10.35653 -10.31573
 Alpha  occ. eigenvalues --  -10.29864 -10.28907 -10.28868 -10.28781 -10.28766
 Alpha  occ. eigenvalues --  -10.28599 -10.27101 -10.26644  -8.82259  -6.64389
 Alpha  occ. eigenvalues --   -6.63305  -6.63250  -2.74783  -2.74476  -2.74432
 Alpha  occ. eigenvalues --   -2.73555  -2.73555  -1.11421  -1.03827  -0.96840
 Alpha  occ. eigenvalues --   -0.92911  -0.87808  -0.84908  -0.83098  -0.81628
 Alpha  occ. eigenvalues --   -0.78809  -0.71672  -0.70219  -0.68234  -0.64020
 Alpha  occ. eigenvalues --   -0.62123  -0.59059  -0.57072  -0.56093  -0.55092
 Alpha  occ. eigenvalues --   -0.54762  -0.53396  -0.52139  -0.51120  -0.50571
 Alpha  occ. eigenvalues --   -0.48775  -0.48289  -0.47708  -0.46297  -0.45442
 Alpha  occ. eigenvalues --   -0.45100  -0.43005  -0.42461  -0.42340  -0.37928
 Alpha  occ. eigenvalues --   -0.36993  -0.33954  -0.33610  -0.31773  -0.28067
 Alpha virt. eigenvalues --    0.03718   0.05128   0.05385   0.06713   0.10081
 Alpha virt. eigenvalues --    0.12500   0.13887   0.14557   0.14953   0.15267
 Alpha virt. eigenvalues --    0.16540   0.17693   0.18336   0.18677   0.18836

 Mulliken charges:
               1
     1  C   -0.249864
     2  C    0.259089
     3  O   -0.513529
     4  C    0.020152
     5  C   -0.281223
     6  H    0.160321
     7  H    0.146580
     8  H    0.156792
     9  N   -0.360597
    10  H    0.281787
    11  H    0.292076
    12  Br  -0.097791
    13  H    0.183712
    14  C    0.155020
    15  C   -0.248550
    16  C   -0.145631
    17  C   -0.137871
    18  C   -0.172399
    19  C   -0.209300
    20  H    0.149623
    21  H    0.139851
    22  H    0.142604
    23  H    0.139035
    24  H    0.150319
    25  C   -0.370205
    26  H    0.140243
    27  H    0.143407
    28  H    0.126348
 Sum of Mulliken charges =  -0.00000

 Dipole moment (field-independent basis, Debye):
    X=             -0.9971    Y=             -2.7440    Z=              6.0116  Tot=              6.6831
 Quadrupole moment (field-independent basis, Debye-Ang):
   XX=            -84.4012   YY=           -109.8556   ZZ=            -86.5156
   XY=              6.2699   XZ=            -13.2095   YZ=              3.7095

  Exact polarizability: 243.587  -8.135 222.303 -12.977 -14.031 216.713
 Approx polarizability: 193.291 -10.290 177.010  -7.501  -9.968 183.869

 ******    1 imaginary frequencies (negative Signs) ******

                      1                      2                      3
                      A                      A                      A
 Frequencies --   -363.3375                21.3826                58.5596
 Red. masses --      6.1001                 3.6025                 6.1512
 Frc consts  --      0.4745                 0.0010                 0.0124
 IR Inten    --    725.5503                 1.4554                 3.8841

                      4                      5                      6
                      A                      A                      A
 Frequencies --     63.8480                80.2722                94.3122
 Red. masses --      4.0928                 2.8262                 2.3448
 Frc consts  --      0.0098                 0.0107                 0.0123
 IR Inten    --      5.3981                13.7410                 2.7673

                      7                      8                      9
                      A                      A                      A
 Frequencies --    109.4064               130.0801               139.0960
 Red. masses --      5.6176                 1.1394                 5.2231
 Frc consts  --      0.0396                 0.0114                 0.0595
 IR Inten    --      3.2275                 0.4505                 7.1382

                     10                     11                     12
                      A                      A                      A
 Frequencies --    166.9316               208.2413               217.4130
 Red. masses --      3.9206                 1.3349                 3.4112
 Frc consts  --      0.0644                 0.0341                 0.0950
 IR Inten    --      1.3286                 0.6724                 4.0102

                     13                     14                     15
                      A                      A                      A
 Frequencies --    274.5032               300.1355               342.7992
 Red. masses --      4.0013                 3.9969                 3.1550
 Frc consts  --      0.1776                 0.2121                 0.2184
 IR Inten    --     52.9819                 2.6819                28.0033

                     16                     17                     18
                      A                      A                      A
 Frequencies --    378.9490               423.2450               452.4376
 Red. masses --      5.5353                 2.8805                 3.5370
 Frc consts  --      0.4683                 0.3040                 0.4266
 IR Inten    --     11.0381                 0.0342                11.9787

                     19                     20                     21
                      A                      A                      A
 Frequencies --    516.0747               576.8761               585.2753
 Red. masses --      3.0767                 2.4000                 3.9898
 Frc consts  --      0.4828                 0.4706                 0.8052
 IR Inten    --     13.3002                 9.8284               111.6527

                     22                     23                     24
                      A                      A                      A
 Frequencies --    627.3404               646.1492               697.7556
 Red. masses --      3.7019                 3.2231                 3.6602
 Frc consts  --      0.8584                 0.7928                 1.0499
 IR Inten    --     17.5972                18.8231                40.1083

                     25                     26                     27
                      A                      A                      A
 Frequencies --    725.6493               731.6081               760.2945
 Red. masses --      2.4699                 1.8331                 3.5710
 Frc consts  --      0.7663                 0.5781                 1.2162
 IR Inten    --    101.4932                11.5023               101.9219

                     28                     29                     30
                      A                      A                      A
 Frequencies --    807.0466               878.8081               952.0739
 Red. masses --      2.4304                 1.2461                 1.4834
 Frc consts  --      0.9327                 0.5670                 0.7922
 IR Inten    --      6.5805                 0.4291                 2.6946

                     31                     32                     33
                      A                      A                      A
 Frequencies --    973.5487              1001.0734              1010.4833
 Red. masses --      2.6292                 1.1431                 1.3496
 Frc consts  --      1.4682                 0.6749                 0.8119
 IR Inten    --     17.1435                31.5538                15.3579

                     34                     35                     36
                      A                      A                      A
 Frequencies --   1018.2559              1022.2175              1027.8273
 Red. masses --      1.1518                 1.8501                 4.1865
 Frc consts  --      0.7036                 1.1390                 2.6058
 IR Inten    --     81.1448                20.6741                 5.9716

                     37                     38                     39
                      A                      A                      A
 Frequencies --   1029.5119              1041.7354              1062.6881
 Red. masses --      1.3752                 1.8166                 2.0838
 Frc consts  --      0.8588                 1.1615                 1.3865
 IR Inten    --      2.6658                 2.3264                12.5064

                     40                     41                     42
                      A                      A                      A
 Frequencies --   1080.6098              1110.2383              1128.4455
 Red. masses --      4.5482                 1.5447                 1.2439
 Frc consts  --      3.1291                 1.1218                 0.9333
 IR Inten    --     40.7657                32.9880                67.1560

                     43                     44                     45
                      A                      A                      A
 Frequencies --   1165.0357              1181.6364              1207.9811
 Red. masses --      1.5585                 1.1320                 1.1214
 Frc consts  --      1.2464                 0.9312                 0.9641
 IR Inten    --     12.6737                 0.1630                 0.1842

                     46                     47                     48
                      A                      A                      A
 Frequencies --   1211.4439              1253.4627              1306.5005
 Red. masses --      1.3977                 2.2080                 4.2627
 Frc consts  --      1.2085                 2.0440                 4.2870
 IR Inten    --     20.6639                16.1446                52.2397

                     49                     50                     51
                      A                      A                      A
 Frequencies --   1337.4326              1347.7541              1360.9173
 Red. masses --      1.3358                 2.4736                 1.5268
 Frc consts  --      1.4077                 2.6473                 1.6661
 IR Inten    --      1.1501               597.1375               126.4784

                     52                     53                     54
                      A                      A                      A
 Frequencies --   1394.3826              1424.1813              1459.0766
 Red. masses --      1.6341                 4.1318                 1.0697
 Frc consts  --      1.8719                 4.9377                 1.3418
 IR Inten    --    269.7912               545.3907                45.5983

                     55                     56                     57
                      A                      A                      A
 Frequencies --   1470.6375              1471.0589              1487.8193
 Red. masses --      1.0578                 1.2581                 2.1312
 Frc consts  --      1.3480                 1.6040                 2.7796
 IR Inten    --     16.7805                40.7118                12.5654

                     58                     59                     60
                      A                      A                      A
 Frequencies --   1491.4355              1509.6475              1548.3806
 Red. masses --      1.0574                 1.0327                 2.5488
 Frc consts  --      1.3858                 1.3866                 3.6003
 IR Inten    --     12.0659                22.8705                28.5960

                     61                     62                     63
                      A                      A                      A
 Frequencies --   1643.0909              1645.4066              1663.0949
 Red. masses --      1.2014                 3.8730                 9.0356
 Frc consts  --      1.9110                 6.1779                14.7245
 IR Inten    --     49.1395                33.7742               535.4611

                     64                     65                     66
                      A                      A                      A
 Frequencies --   1674.5450              3062.0126              3063.7725
 Red. masses --      6.0743                 1.0363                 1.0346
 Frc consts  --     10.0355                 5.7249                 5.7219
 IR Inten    --      8.9806                 8.1671                34.4212

                     67                     68                     69
                      A                      A                      A
 Frequencies --   3131.9983              3136.2151              3164.4613
 Red. masses --      1.0997                 1.1033                 1.1040
 Frc consts  --      6.3556                 6.3935                 6.5134
 IR Inten    --     11.0738                13.5705                35.6850

                     70                     71                     72
                      A                      A                      A
 Frequencies --   3173.8972              3188.5919              3192.7572
 Red. masses --      1.1045                 1.0863                 1.0874
 Frc consts  --      6.5553                 6.5074                 6.5307
 IR Inten    --     10.6966                 7.4988                 2.0075

                     73                     74                     75
                      A                      A                      A
 Frequencies --   3202.4543              3209.2571              3220.1858
 Red. masses --      1.0912                 1.0949                 1.0988
 Frc consts  --      6.5934                 6.6442                 6.7130
 IR Inten    --     15.9364                52.0831                16.4669

                     76                     77                     78
                      A                      A                      A
 Frequencies --   3229.6830              3522.5741              3607.8301
 Red. masses --      1.0909                 1.0508                 1.0966
 Frc consts  --      6.7045                 7.6825                 8.4102
 IR Inten    --      6.3086                44.9678                48.2009

 - Thermochemistry -
 -------------------
 Temperature   298.150 Kelvin.  Pressure   1.00000 Atm.
 Atom     1 has atomic number  6 and mass  12.00000

 Molecular mass:   255.02588 amu.
 Principal axes and moments of inertia in atomic units:
                           1         2         3
     Eigenvalues --  3241.993924085.008495421.73306
           X            0.99179  -0.12165  -0.03953
           Y            0.12062   0.99232  -0.02746
           Z            0.04257   0.02247   0.99884
 This molecule is an asymmetric top.
 Rotational symmetry number  1.
 Warning -- assumption of classical behavior for rotation
           may cause significant error
 Rotational temperatures (Kelvin)      0.02672     0.02120     0.01598
 Rotational constants (GHZ):           0.55668     0.44180     0.33287
    1 imaginary frequencies ignored.
 Zero-point vibrational energy     603120.1 (Joules/Mol)
                                  144.14917 (Kcal/Mol)
 Warning -- explicit consideration of  20 degrees of freedom as
           vibrations may cause significant error
 Vibrational temperatures:     30.76    84.25    91.86   115.49   135.69
          (Kelvin)            157.41   187.16   200.13   240.18   299.61
                              312.81   394.95   431.83   493.21   545.22
                              608.96   650.96   742.52   830.00   842.08
                              902.60   929.66  1003.91  1044.05  1052.62
                             1093.89  1161.16  1264.41  1369.82  1400.72
                             1440.32  1453.86  1465.04  1470.74  1478.81
                             1481.24  1498.82  1528.97  1554.76  1597.39
                             1623.58  1676.23  1700.11  1738.02  1743.00
                             1803.45  1879.76  1924.27  1939.12  1958.06
                             2006.21  2049.08  2099.29  2115.92  2116.53
                             2140.64  2145.84  2172.05  2227.77  2364.04
                             2367.37  2392.82  2409.30  4405.55  4408.09
                             4506.25  4512.31  4552.95  4566.53  4587.67
                             4593.67  4607.62  4617.41  4633.13  4646.79
                             5068.20  5190.86

 Zero-point correction=                           0.229716 (Hartree/Particle)
 Thermal correction to Energy=                    0.244448
 Thermal correction to Enthalpy=                  0.245392
 Thermal correction to Gibbs Free Energy=         0.185656
 Sum of electronic and zero-point Energies=          -3131.547949
 Sum of electronic and thermal Energies=             -3131.533217
 Sum of electronic and thermal Enthalpies=           -3131.532273
 Sum of electronic and thermal Free Energies=        -3131.592009

                     E (Thermal)             CV                S
                      KCal/Mol        Cal/Mol-Kelvin    Cal/Mol-Kelvin
 Total                  153.393             52.846            125.725
 Electronic               0.000              0.000              0.000
 Translational            0.889              2.981             42.509
 Rotational               0.889              2.981             32.640
 Vibrational            151.616             46.885             50.577
 Vibration     1          0.593              1.985              6.501
 Vibration     2          0.596              1.974              4.505
 Vibration     3          0.597              1.972              4.335
 Vibration     4          0.600              1.963              3.884
 Vibration     5          0.603              1.953              3.569
 Vibration     6          0.606              1.942              3.279
 Vibration     7          0.612              1.923              2.945
 Vibration     8          0.615              1.914              2.816
 Vibration     9          0.624              1.883              2.470
 Vibration    10          0.642              1.828              2.059
 Vibration    11          0.646              1.815              1.981
 Vibration    12          0.677              1.720              1.568
 Vibration    13          0.693              1.673              1.416
 Vibration    14          0.722              1.590              1.199
 Vibration    15          0.749              1.515              1.043
 Vibration    16          0.785              1.420              0.881
 Vibration    17          0.811              1.356              0.788
 Vibration    18          0.871              1.214              0.619
 Vibration    19          0.933              1.081              0.491
 Vibration    20          0.942              1.063              0.476

 Optimization completed.
    -- Stationary point found.
 Normal termination of Gaussian 16 at Sat Feb 20 17:06:44 2021.
