 Gaussian 16, Revision A.03,
 Gaussian 16:  ES64L-G16RevA.03 25-Dec-2016

 ----------------------------------------------------------------------
 # wB97XD def2tzvp, opt=(ts, noeigen, calcfc, maxcycles=70, maxstep=5),
  freq=noraman, scrf=(iefpcm, solvent=water)
 ----------------------------------------------------------------------

 ------------------------
 2_iteration/TS-607-2.out
 ------------------------
 Symbolic Z-matrix:
 Charge =  0 Multiplicity = 1

 SCF Done:  E(RwB97XD) =  -3609.92969269     A.U. after   15 cycles
 Optimization completed.
    -- Stationary point found.
 Normal termination of Gaussian 16 at Sun Jun 13 04:29:15 2021.

 ---------------------------------------------------------------------
 #N Geom=AllCheck Guess=TCheck SCRF=Check GenChk RwB97XD/def2TZVP Freq
 ---------------------------------------------------------------------

 Structure from the checkpoint file:  "/beegfs/scratch/user/q/tla25/Gau-269416.chk"
 ------------------------
 2_iteration/TS-607-2.out
 ------------------------
 Charge =  0 Multiplicity = 1

                         Standard orientation:
 ---------------------------------------------------------------------
 Center     Atomic      Atomic             Coordinates (Angstroms)
 Number     Number       Type             X           Y           Z
 ---------------------------------------------------------------------
      1          6           0       -0.851620   -0.528521    0.068561
      2          6           0        0.328191   -1.380600    0.032861
      3          8           0        0.279472   -2.532170   -0.404169
      4          6           0       -0.848041    0.859339    0.233391
      5          6           0       -0.593071    0.607669    2.983041
      6          1           0       -1.142391    0.568609    3.921661
      7          1           0       -0.393880   -0.408141    2.640301
      8          1           0        0.350148    1.125020    3.137761
      9          7           0       -1.376832    1.286618    1.951381
     10          1           0       -2.328321    0.932187    1.944241
     11          1           0       -1.442533    2.288768    2.101691
     12         35           0       -2.405092    1.820607   -0.628429
     13          6           0        0.367238    1.692910   -0.072229
     14          6           0        0.924617    2.635280    0.783941
     15          6           0        2.052736    3.354551    0.407661
     16          6           0        2.631157    3.152132   -0.831879
     17          6           0        2.070977    2.225631   -1.702879
     18          6           0        0.951438    1.508960   -1.329009
     19          1           0        0.510047    2.832760    1.760631
     20          1           0        2.474106    4.075062    1.096231
     21          1           0        3.511266    3.711263   -1.121319
     22          1           0        2.510388    2.059542   -2.677779
     23          1           0        0.519539    0.785320   -2.007789
     24          6           0       -2.145449   -1.264682   -0.059319
     25          6           0       -2.681989   -1.548553   -1.314949
     26          6           0       -3.883189   -2.225964   -1.444479
     27          6           0       -4.578578   -2.636005   -0.313309
     28          6           0       -4.056198   -2.370554    0.942201
     29          6           0       -2.847289   -1.695743    1.063581
     30          1           0       -2.144859   -1.225302   -2.198449
     31          1           0       -4.280998   -2.434334   -2.430139
     32          1           0       -5.519408   -3.162716   -0.412729
     33          1           0       -4.584738   -2.691985    1.831141
     34          1           0       -2.440049   -1.517743    2.052571
     35          7           0        1.514080   -0.887279    0.552591
     36          6           0        2.819641   -1.302148    0.268841
     37          6           0        3.833610   -0.351477    0.422911
     38          6           0        5.154560   -0.681706    0.181501
     39          6           0        5.493931   -1.964785   -0.227869
     40          6           0        4.489892   -2.908186   -0.381919
     41          6           0        3.160822   -2.593818   -0.132389
     42          1           0        1.472949    0.043601    0.926761
     43          1           0        3.575149    0.658643    0.722591
     44          1           0        5.921819    0.072275    0.306141
     45          1           0        6.526641   -2.223974   -0.421729
     46          1           0        4.738973   -3.914666   -0.695629
     47          1           0        2.387563   -3.335848   -0.245169
 ---------------------------------------------------------------------

 SCF Done:  E(RwB97XD) =  -3609.92969269     A.U. after    1 cycles

 The electronic state is 1-A.
 Alpha  occ. eigenvalues -- -483.12600 -62.67426 -56.46534 -56.46198 -56.46184
 Alpha  occ. eigenvalues --  -19.20307 -14.51075 -14.45834 -10.41125 -10.38595
 Alpha  occ. eigenvalues --  -10.33538 -10.32782 -10.32362 -10.30750 -10.30153
 Alpha  occ. eigenvalues --  -10.30061 -10.29954 -10.29896 -10.29711 -10.28964
 Alpha  occ. eigenvalues --  -10.28822 -10.28774 -10.28722 -10.28695 -10.28647
 Alpha  occ. eigenvalues --  -10.28634 -10.28345 -10.28212 -10.28131 -10.26978
 Alpha  occ. eigenvalues --   -8.81504  -6.63611  -6.62555  -6.62509  -2.73992
 Alpha  occ. eigenvalues --   -2.73711  -2.73673  -2.72819  -2.72819  -1.13312
 Alpha  occ. eigenvalues --   -1.06550  -1.03710  -0.98691  -0.96564  -0.95352
 Alpha  occ. eigenvalues --   -0.93146  -0.87404  -0.86477  -0.86345  -0.85021
 Alpha  occ. eigenvalues --   -0.84720  -0.84601  -0.81498  -0.80363  -0.74923
 Alpha  occ. eigenvalues --   -0.72688  -0.71903  -0.71223  -0.70130  -0.69212
 Alpha  occ. eigenvalues --   -0.67582  -0.66137  -0.64653  -0.62793  -0.61548
 Alpha  occ. eigenvalues --   -0.60609  -0.59446  -0.58166  -0.57734  -0.57202
 Alpha  occ. eigenvalues --   -0.55058  -0.54650  -0.54204  -0.53722  -0.52977
 Alpha  occ. eigenvalues --   -0.52390  -0.52114  -0.51922  -0.51352  -0.50652
 Alpha  occ. eigenvalues --   -0.50383  -0.49914  -0.49139  -0.48831  -0.47665
 Alpha  occ. eigenvalues --   -0.46219  -0.45975  -0.45601  -0.44617  -0.44481
 Alpha  occ. eigenvalues --   -0.43605  -0.42664  -0.42429  -0.41911  -0.39245
 Alpha  occ. eigenvalues --   -0.38266  -0.37665  -0.35051  -0.34215  -0.34002
 Alpha  occ. eigenvalues --   -0.33516  -0.33295  -0.32217  -0.30179  -0.27413
 Alpha virt. eigenvalues --    0.00733   0.03950   0.04651   0.05338   0.05477
 Alpha virt. eigenvalues --    0.05616   0.06593   0.07798   0.10099   0.12345
 Alpha virt. eigenvalues --    0.12747   0.12964   0.13781   0.14555   0.14808

 Mulliken charges:
               1
     1  C   -0.262597
     2  C    0.313423
     3  O   -0.521003
     4  C    0.160572
     5  C   -0.350258
     6  H    0.181010
     7  H    0.168628
     8  H    0.175914
     9  N   -0.266844
    10  H    0.293712
    11  H    0.297684
    12  Br  -0.149962
    13  C    0.057384
    14  C   -0.176705
    15  C   -0.153933
    16  C   -0.154123
    17  C   -0.109776
    18  C   -0.262275
    19  H    0.140347
    20  H    0.147012
    21  H    0.147567
    22  H    0.146865
    23  H    0.169832
    24  C    0.289415
    25  C   -0.268850
    26  C   -0.148595
    27  C   -0.135298
    28  C   -0.175725
    29  C   -0.288202
    30  H    0.142254
    31  H    0.137944
    32  H    0.141600
    33  H    0.138262
    34  H    0.166276
    35  N   -0.223387
    36  C    0.288700
    37  C   -0.299429
    38  C   -0.123520
    39  C   -0.189925
    40  C   -0.102696
    41  C   -0.321136
    42  H    0.248825
    43  H    0.161429
    44  H    0.139560
    45  H    0.139160
    46  H    0.140292
    47  H    0.150574
 Sum of Mulliken charges =  -0.00000

 Dipole moment (field-independent basis, Debye):
    X=             -0.0413    Y=              9.0582    Z=              7.1451  Tot=             11.5371
 Quadrupole moment (field-independent basis, Debye-Ang):
   XX=           -154.6628   YY=           -170.4970   ZZ=           -143.9270
   XY=             11.4343   XZ=            -11.2056   YZ=              9.5850

  Exact polarizability: 492.515  24.809 411.902 -11.227  31.218 358.121
 Approx polarizability: 369.815  20.925 333.061  -8.595  28.505 313.948

 ******    1 imaginary frequencies (negative Signs) ******

                      1                      2                      3
                      A                      A                      A
 Frequencies --   -357.8827                23.1515                34.8162
 Red. masses --      5.6077                 5.0028                 4.6838
 Frc consts  --      0.4232                 0.0016                 0.0033
 IR Inten    --    598.4092                 0.2964                 2.5069

                      4                      5                      6
                      A                      A                      A
 Frequencies --     38.2129                48.9997                56.2802
 Red. masses --      5.3130                 4.2165                 4.3761
 Frc consts  --      0.0046                 0.0060                 0.0082
 IR Inten    --      0.3813                 0.1265                 0.7421

                      7                      8                      9
                      A                      A                      A
 Frequencies --     56.9898                71.1362                84.9313
 Red. masses --      4.9839                 5.5872                 6.5201
 Frc consts  --      0.0095                 0.0167                 0.0277
 IR Inten    --      0.2493                11.5661                 0.5087

                     10                     11                     12
                      A                      A                      A
 Frequencies --     92.9591               126.1826               135.9475
 Red. masses --      5.6018                 5.7539                 4.7315
 Frc consts  --      0.0285                 0.0540                 0.0515
 IR Inten    --      6.4890                 3.1669                 5.8962

                     13                     14                     15
                      A                      A                      A
 Frequencies --    160.4581               174.6225               191.2758
 Red. masses --      4.2235                 4.2794                 1.1599
 Frc consts  --      0.0641                 0.0769                 0.0250
 IR Inten    --      1.5501                 4.1635                 5.2309

                     16                     17                     18
                      A                      A                      A
 Frequencies --    196.6612               212.7921               234.5610
 Red. masses --      4.2057                 5.0668                 4.9681
 Frc consts  --      0.0958                 0.1352                 0.1610
 IR Inten    --     38.0820                 0.4486                 2.1264

                     19                     20                     21
                      A                      A                      A
 Frequencies --    252.9067               268.6956               277.7695
 Red. masses --      5.0246                 4.3030                 4.2305
 Frc consts  --      0.1894                 0.1830                 0.1923
 IR Inten    --      5.6639                 5.2272                12.9740

                     22                     23                     24
                      A                      A                      A
 Frequencies --    283.6072               312.3947               357.4730
 Red. masses --      4.1591                 3.1915                 7.2238
 Frc consts  --      0.1971                 0.1835                 0.5439
 IR Inten    --      8.1140                24.9633                 6.8679

                     25                     26                     27
                      A                      A                      A
 Frequencies --    371.1243               422.0570               426.6689
 Red. masses --      5.2689                 2.8689                 2.9849
 Frc consts  --      0.4276                 0.3011                 0.3202
 IR Inten    --     21.1360                 1.1809                 0.0358

                     28                     29                     30
                      A                      A                      A
 Frequencies --    427.2602               474.4695               520.0360
 Red. masses --      2.8955                 5.5875                 3.7973
 Frc consts  --      0.3114                 0.7411                 0.6051
 IR Inten    --      0.3893                20.8362                16.8831

                     31                     32                     33
                      A                      A                      A
 Frequencies --    524.9117               530.8394               546.8852
 Red. masses --      3.9569                 2.9998                 5.5576
 Frc consts  --      0.6424                 0.4980                 0.9793
 IR Inten    --     65.4274                 8.1861                52.4043

                     34                     35                     36
                      A                      A                      A
 Frequencies --    585.6804               616.5644               623.6493
 Red. masses --      4.4060                 3.5262                 1.6778
 Frc consts  --      0.8905                 0.7898                 0.3845
 IR Inten    --     72.3669                18.6888               105.1370

                     37                     38                     39
                      A                      A                      A
 Frequencies --    636.3626               639.2698               642.8444
 Red. masses --      5.1144                 6.4252                 3.7941
 Frc consts  --      1.2203                 1.5471                 0.9238
 IR Inten    --     15.5355                 2.8950                51.2308

                     40                     41                     42
                      A                      A                      A
 Frequencies --    683.1518               694.4785               720.8804
 Red. masses --      5.0395                 3.0998                 1.8242
 Frc consts  --      1.3857                 0.8809                 0.5585
 IR Inten    --     22.9563               254.8564                13.3987

                     43                     44                     45
                      A                      A                      A
 Frequencies --    721.5151               731.6851               743.6746
 Red. masses --      1.7499                 1.5249                 1.8555
 Frc consts  --      0.5367                 0.4810                 0.6046
 IR Inten    --     92.1669               206.6784               226.9248

                     46                     47                     48
                      A                      A                      A
 Frequencies --    773.9348               784.5559               792.8857
 Red. masses --      2.9906                 1.9058                 4.1682
 Frc consts  --      1.0554                 0.6912                 1.5439
 IR Inten    --      5.7031                98.5524                34.1034

                     49                     50                     51
                      A                      A                      A
 Frequencies --    807.7368               839.4685               863.6531
 Red. masses --      2.7136                 4.5574                 1.2606
 Frc consts  --      1.0431                 1.8922                 0.5540
 IR Inten    --     10.3308                36.3616                 1.9355

                     52                     53                     54
                      A                      A                      A
 Frequencies --    872.9914               881.3810               889.1559
 Red. masses --      1.2552                 1.2543                 3.2575
 Frc consts  --      0.5636                 0.5741                 1.5174
 IR Inten    --      0.3948                 0.1461                35.5232

                     55                     56                     57
                      A                      A                      A
 Frequencies --    905.1679               936.6255               960.5303
 Red. masses --      4.6547                 1.5258                 1.5434
 Frc consts  --      2.2470                 0.7887                 0.8390
 IR Inten    --     48.0137                21.0542                 1.1602

                     58                     59                     60
                      A                      A                      A
 Frequencies --    962.7947              1003.2029              1005.9203
 Red. masses --      1.4841                 1.3516                 1.3057
 Frc consts  --      0.8105                 0.8015                 0.7784
 IR Inten    --      1.8072                 0.2451                17.2850

                     61                     62                     63
                      A                      A                      A
 Frequencies --   1012.9082              1018.2711              1018.9729
 Red. masses --      1.3913                 1.3344                 1.4297
 Frc consts  --      0.8410                 0.8152                 0.8746
 IR Inten    --      0.2884                 0.9009                 1.2791

                     64                     65                     66
                      A                      A                      A
 Frequencies --   1020.4971              1025.2746              1026.4640
 Red. masses --      4.4091                 4.8370                 4.3950
 Frc consts  --      2.7053                 2.9958                 2.7283
 IR Inten    --      2.6818                 2.8399                 0.2522

                     67                     68                     69
                      A                      A                      A
 Frequencies --   1028.7826              1036.8204              1039.3038
 Red. masses --      1.4492                 3.5021                 1.3356
 Frc consts  --      0.9037                 2.2181                 0.8500
 IR Inten    --      1.0821                47.1573                 0.9894

                     70                     71                     72
                      A                      A                      A
 Frequencies --   1062.7286              1066.1871              1067.0080
 Red. masses --      2.1703                 2.1981                 2.8447
 Frc consts  --      1.4442                 1.4722                 1.9082
 IR Inten    --     16.4351                 9.7347                13.4128

                     73                     74                     75
                      A                      A                      A
 Frequencies --   1073.8830              1094.6154              1109.9892
 Red. masses --      2.3689                 1.2514                 1.5629
 Frc consts  --      1.6096                 0.8834                 1.1346
 IR Inten    --     37.0446               103.2897                21.0427

                     76                     77                     78
                      A                      A                      A
 Frequencies --   1124.3493              1127.9480              1181.8457
 Red. masses --      1.5470                 1.5797                 1.1363
 Frc consts  --      1.1523                 1.1841                 0.9351
 IR Inten    --      7.5670                12.9420                 0.0046

                     79                     80                     81
                      A                      A                      A
 Frequencies --   1182.3572              1188.6915              1196.7448
 Red. masses --      1.1263                 1.1714                 3.0475
 Frc consts  --      0.9277                 0.9752                 2.5716
 IR Inten    --      3.7651                 1.4150                39.8347

                     82                     83                     84
                      A                      A                      A
 Frequencies --   1208.3408              1212.6990              1220.3880
 Red. masses --      1.1297                 1.1615                 1.1354
 Frc consts  --      0.9719                 1.0064                 0.9964
 IR Inten    --      0.6086                39.5591                 2.6189

                     85                     86                     87
                      A                      A                      A
 Frequencies --   1232.7856              1254.6670              1273.5946
 Red. masses --      3.3700                 1.4243                 2.7673
 Frc consts  --      3.0176                 1.3210                 2.6447
 IR Inten    --    403.0351                39.3505               621.8590

                     88                     89                     90
                      A                      A                      A
 Frequencies --   1304.6908              1312.2401              1326.2842
 Red. masses --      4.5612                 5.2962                 4.8376
 Frc consts  --      4.5745                 5.3733                 5.0137
 IR Inten    --    169.0422               244.8185               170.3530

                     91                     92                     93
                      A                      A                      A
 Frequencies --   1341.6535              1343.2927              1358.1142
 Red. masses --      1.3057                 3.5699                 1.4508
 Frc consts  --      1.3847                 3.7953                 1.5767
 IR Inten    --     11.6770               411.1762                 7.4032

                     94                     95                     96
                      A                      A                      A
 Frequencies --   1363.2388              1365.3127              1440.0497
 Red. masses --      1.4584                 1.6312                 2.0429
 Frc consts  --      1.5969                 1.7915                 2.4960
 IR Inten    --     11.8271                14.4916               198.5160

                     97                     98                     99
                      A                      A                      A
 Frequencies --   1460.0694              1477.3203              1486.4549
 Red. masses --      1.7328                 2.1324                 2.2024
 Frc consts  --      2.1764                 2.7421                 2.8671
 IR Inten    --    124.0944               213.9136                 4.6774

                    100                    101                    102
                      A                      A                      A
 Frequencies --   1490.9011              1496.9693              1509.5573
 Red. masses --      2.2039                 1.0489                 1.0499
 Frc consts  --      2.8863                 1.3849                 1.4096
 IR Inten    --     51.2267                26.5116                21.7528

                    103                    104                    105
                      A                      A                      A
 Frequencies --   1541.8244              1546.0671              1546.4673
 Red. masses --      2.2796                 2.4920                 2.4424
 Frc consts  --      3.1928                 3.5095                 3.4415
 IR Inten    --    102.6604                37.2766               219.5981

                    106                    107                    108
                      A                      A                      A
 Frequencies --   1567.5323              1645.4107              1645.7051
 Red. masses --      2.0591                 5.1437                 1.6221
 Frc consts  --      2.9810                 8.2049                 2.5884
 IR Inten    --    363.0322                28.5872               122.2963

                    109                    110                    111
                      A                      A                      A
 Frequencies --   1653.6346              1655.5437              1668.8774
 Red. masses --      6.2288                 2.3337                 4.0980
 Frc consts  --     10.0353                 3.7686                 6.7247
 IR Inten    --    361.9987                34.8398                91.1536

                    112                    113                    114
                      A                      A                      A
 Frequencies --   1673.0742              1673.3191              1681.3133
 Red. masses --      5.2525                 5.5740                 5.6503
 Frc consts  --      8.6626                 9.1955                 9.4107
 IR Inten    --     32.4133                11.6660               481.7725

                    115                    116                    117
                      A                      A                      A
 Frequencies --   3077.4295              3157.7382              3182.2811
 Red. masses --      1.0342                 1.1034                 1.0887
 Frc consts  --      5.7706                 6.4824                 6.4961
 IR Inten    --     27.8291                 2.6330                 8.3377

                    118                    119                    120
                      A                      A                      A
 Frequencies --   3182.8782              3184.3765              3190.1622
 Red. masses --      1.1053                 1.0877                 1.0870
 Frc consts  --      6.5976                 6.4982                 6.5182
 IR Inten    --     11.1927                14.2387                 1.4450

                    121                    122                    123
                      A                      A                      A
 Frequencies --   3195.6262              3199.7309              3203.6829
 Red. masses --      1.0878                 1.0909                 1.0865
 Frc consts  --      6.5449                 6.5807                 6.5705
 IR Inten    --      2.7353                13.8756                 0.2080

                    124                    125                    126
                      A                      A                      A
 Frequencies --   3204.9303              3207.5058              3211.6037
 Red. masses --      1.0929                 1.0950                 1.0895
 Frc consts  --      6.6139                 6.6376                 6.6208
 IR Inten    --     28.2702                46.9545                 3.9558

                    127                    128                    129
                      A                      A                      A
 Frequencies --   3218.4315              3219.8581              3220.2500
 Red. masses --      1.0988                 1.0939                 1.0978
 Frc consts  --      6.7059                 6.6817                 6.7076
 IR Inten    --     23.2315                13.0652                26.3024

                    130                    131                    132
                      A                      A                      A
 Frequencies --   3228.1076              3251.8051              3275.4419
 Red. masses --      1.0981                 1.0916                 1.0916
 Frc consts  --      6.7419                 6.8006                 6.9001
 IR Inten    --     18.3194                15.5238                 2.6711

                    133                    134                    135
                      A                      A                      A
 Frequencies --   3506.6163              3579.7532              3660.2893
 Red. masses --      1.0520                 1.0956                 1.0756
 Frc consts  --      7.6213                 8.2717                 8.4901
 IR Inten    --     49.9381                72.8503                80.2254

 - Thermochemistry -
 -------------------
 Temperature   298.150 Kelvin.  Pressure   1.00000 Atm.
 Atom     1 has atomic number  6 and mass  12.00000

 Molecular mass:   408.08372 amu.
 Principal axes and moments of inertia in atomic units:
                           1         2         3
     Eigenvalues --  7069.31272********************
           X            0.99898   0.04396  -0.01004
           Y           -0.04373   0.99880   0.02221
           Z            0.01101  -0.02174   0.99970
 This molecule is an asymmetric top.
 Rotational symmetry number  1.
 Warning -- assumption of classical behavior for rotation
           may cause significant error
 Rotational temperatures (Kelvin)      0.01225     0.00675     0.00514
 Rotational constants (GHZ):           0.25529     0.14056     0.10704
    1 imaginary frequencies ignored.
 Zero-point vibrational energy    1006635.8 (Joules/Mol)
                                  240.59174 (Kcal/Mol)
 Warning -- explicit consideration of  34 degrees of freedom as
           vibrations may cause significant error
 Vibrational temperatures:     33.31    50.09    54.98    70.50    80.97
          (Kelvin)             82.00   102.35   122.20   133.75   181.55
                              195.60   230.86   251.24   275.20   282.95
                              306.16   337.48   363.88   386.59   399.65
                              408.05   449.47   514.32   533.97   607.25
                              613.88   614.73   682.66   748.22   755.23
                              763.76   786.85   842.66   887.10   897.29
                              915.58   919.77   924.91   982.90   999.20
                             1037.19  1038.10  1052.73  1069.98  1113.52
                             1128.80  1140.79  1162.15  1207.81  1242.60
                             1256.04  1268.11  1279.30  1302.33  1347.60
                             1381.99  1385.25  1443.39  1447.29  1457.35
                             1465.06  1466.07  1468.27  1475.14  1476.85
                             1480.19  1491.75  1495.33  1529.03  1534.01
                             1535.19  1545.08  1574.91  1597.03  1617.69
                             1622.87  1700.41  1701.15  1710.26  1721.85
                             1738.53  1744.80  1755.87  1773.70  1805.19
                             1832.42  1877.16  1888.02  1908.23  1930.34
                             1932.70  1954.02  1961.40  1964.38  2071.91
                             2100.71  2125.53  2138.68  2145.07  2153.80
                             2171.92  2218.34  2224.45  2225.02  2255.33
                             2367.38  2367.80  2379.21  2381.96  2401.14
                             2407.18  2407.53  2419.03  4427.73  4543.28
                             4578.59  4579.45  4581.61  4589.93  4597.79
                             4603.70  4609.39  4611.18  4614.89  4620.78
                             4630.61  4632.66  4633.22  4644.53  4678.62
                             4712.63  5045.24  5150.47  5266.34

 Zero-point correction=                           0.383407 (Hartree/Particle)
 Thermal correction to Energy=                    0.406482
 Thermal correction to Enthalpy=                  0.407426
 Thermal correction to Gibbs Free Energy=         0.328784
 Sum of electronic and zero-point Energies=          -3609.546285
 Sum of electronic and thermal Energies=             -3609.523211
 Sum of electronic and thermal Enthalpies=           -3609.522267
 Sum of electronic and thermal Free Energies=        -3609.600909

                     E (Thermal)             CV                S
                      KCal/Mol        Cal/Mol-Kelvin    Cal/Mol-Kelvin
 Total                  255.071             88.790            165.516
 Electronic               0.000              0.000              0.000
 Translational            0.889              2.981             43.910
 Rotational               0.889              2.981             35.680
 Vibrational            253.294             82.828             85.926
 Vibration     1          0.593              1.985              6.344
 Vibration     2          0.594              1.983              5.534
 Vibration     3          0.594              1.982              5.350
 Vibration     4          0.595              1.978              4.857
 Vibration     5          0.596              1.975              4.584
 Vibration     6          0.596              1.975              4.559
 Vibration     7          0.598              1.968              4.122
 Vibration     8          0.601              1.960              3.774
 Vibration     9          0.602              1.954              3.597
 Vibration    10          0.611              1.927              3.003
 Vibration    11          0.614              1.917              2.860
 Vibration    12          0.622              1.891              2.544
 Vibration    13          0.627              1.874              2.385
 Vibration    14          0.634              1.852              2.215
 Vibration    15          0.636              1.845              2.164
 Vibration    16          0.644              1.821              2.020
 Vibration    17          0.654              1.788              1.844
 Vibration    18          0.664              1.758              1.710
 Vibration    19          0.673              1.731              1.605
 Vibration    20          0.679              1.715              1.547
 Vibration    21          0.682              1.704              1.512
 Vibration    22          0.701              1.650              1.350
 Vibration    23          0.733              1.560              1.133
 Vibration    24          0.743              1.531              1.075
 Vibration    25          0.784              1.422              0.885
 Vibration    26          0.788              1.412              0.870
 Vibration    27          0.789              1.411              0.868
 Vibration    28          0.831              1.307              0.725
 Vibration    29          0.875              1.206              0.610
 Vibration    30          0.880              1.195              0.599
 Vibration    31          0.886              1.182              0.585
 Vibration    32          0.902              1.147              0.551
 Vibration    33          0.943              1.062              0.475
 Vibration    34          0.976              0.997              0.422

 Optimization completed.
    -- Stationary point found.
 Normal termination of Gaussian 16 at Sun Jun 13 07:00:43 2021.
