 Gaussian 16, Revision A.03,
 Gaussian 16:  ES64L-G16RevA.03 25-Dec-2016

 ----------------------------------------------------------------------
 # wB97XD def2tzvp, opt=(ts, noeigen, calcfc, maxcycles=70, maxstep=3),
  freq=noraman, scrf=(iefpcm, solvent=water)
 ----------------------------------------------------------------------

 ------------------------
 3_iteration/TS-682-3.out
 ------------------------
 Symbolic Z-matrix:
 Charge =  0 Multiplicity = 1

 SCF Done:  E(RwB97XD) =  -3171.09178253     A.U. after   15 cycles
 SCF Done:  E(RwB97XD) =  -3171.09178229     A.U. after    8 cycles
 Optimization completed.
    -- Stationary point found.
 Normal termination of Gaussian 16 at Sun Feb 21 05:10:41 2021.

 ---------------------------------------------------------------------
 #N Geom=AllCheck Guess=TCheck SCRF=Check GenChk RwB97XD/def2TZVP Freq
 ---------------------------------------------------------------------

 Structure from the checkpoint file:  "/beegfs/scratch/user/q/tla25/Gau-70350.chk"
 ------------------------
 3_iteration/TS-682-3.out
 ------------------------
 Charge =  0 Multiplicity = 1

                         Standard orientation:
 ---------------------------------------------------------------------
 Center     Atomic      Atomic             Coordinates (Angstroms)
 Number     Number       Type             X           Y           Z
 ---------------------------------------------------------------------
      1          6           0       -0.205221    0.796256   -0.359573
      2          6           0       -0.361188    2.172921   -0.756841
      3          8           0       -1.434307    2.735606   -1.005498
      4          6           0       -1.304812   -0.047317   -0.175454
      5          6           0       -1.817689    1.046361    2.372940
      6          1           0       -1.622303    0.997491    3.443641
      7          1           0       -1.133125    1.764846    1.917049
      8          1           0       -2.840001    1.377980    2.209238
      9          7           0       -1.615359   -0.246033    1.730042
     10          1           0       -0.769935   -0.698028    2.059572
     11          1           0       -2.387566   -0.883288    1.889073
     12         35           0       -0.967853   -1.970592   -0.492686
     13          6           0       -2.701012    0.288934   -0.610522
     14          1           0       -3.001516    1.247078   -0.197204
     15          1           0       -2.723434    0.382944   -1.696346
     16          1           0       -3.399313   -0.490108   -0.311168
     17          6           0        1.171686    0.293220   -0.063362
     18          6           0        1.975737   -0.233901   -1.073691
     19          6           0        3.253999   -0.697614   -0.806287
     20          6           0        3.758312   -0.644699    0.486698
     21          6           0        2.977044   -0.116746    1.502812
     22          6           0        1.699124    0.350706    1.225467
     23          1           0        1.585174   -0.280304   -2.083363
     24          1           0        3.858804   -1.103033   -1.608067
     25          1           0        4.755858   -1.008616    0.698407
     26          1           0        3.362795   -0.061522    2.513235
     27          1           0        1.112226    0.788621    2.024839
     28          6           0        0.914199    2.991052   -0.892932
     29          1           0        1.591944    2.545385   -1.622901
     30          1           0        0.652286    3.998771   -1.208609
     31          1           0        1.453877    3.034829    0.054775
 ---------------------------------------------------------------------

 SCF Done:  E(RwB97XD) =  -3171.09178229     A.U. after    1 cycles

 The electronic state is 1-A.
 Alpha  occ. eigenvalues -- -483.12506 -62.67358 -56.46459 -56.46131 -56.46113
 Alpha  occ. eigenvalues --  -19.20095 -14.48864 -10.39913 -10.35367 -10.31849
 Alpha  occ. eigenvalues --  -10.29743 -10.28903 -10.28837 -10.28774 -10.28752
 Alpha  occ. eigenvalues --  -10.28515 -10.28372 -10.26785 -10.26540  -8.81460
 Alpha  occ. eigenvalues --   -6.63559  -6.62524  -6.62465  -2.73950  -2.73668
 Alpha  occ. eigenvalues --   -2.73622  -2.72783  -2.72783  -1.10937  -1.04430
 Alpha  occ. eigenvalues --   -0.96866  -0.93510  -0.87667  -0.84876  -0.84015
 Alpha  occ. eigenvalues --   -0.82582  -0.79147  -0.78929  -0.70254  -0.69579
 Alpha  occ. eigenvalues --   -0.67828  -0.63588  -0.61835  -0.58764  -0.57800
 Alpha  occ. eigenvalues --   -0.56078  -0.55469  -0.54240  -0.53648  -0.52503
 Alpha  occ. eigenvalues --   -0.51048  -0.50528  -0.49724  -0.49648  -0.48506
 Alpha  occ. eigenvalues --   -0.47446  -0.46867  -0.46123  -0.44357  -0.43438
 Alpha  occ. eigenvalues --   -0.42692  -0.42186  -0.42009  -0.37410  -0.36951
 Alpha  occ. eigenvalues --   -0.33684  -0.33267  -0.30933  -0.28011
 Alpha virt. eigenvalues --    0.04016   0.05077   0.05287   0.05683   0.09987
 Alpha virt. eigenvalues --    0.12654   0.13555   0.13743   0.14471   0.14830
 Alpha virt. eigenvalues --    0.16201   0.16823   0.17950   0.18276   0.19275

 Mulliken charges:
               1
     1  C   -0.275796
     2  C    0.249738
     3  O   -0.514815
     4  C    0.135986
     5  C   -0.323281
     6  H    0.165883
     7  H    0.157654
     8  H    0.168486
     9  N   -0.328163
    10  H    0.284375
    11  H    0.291738
    12  Br  -0.137566
    13  C   -0.340401
    14  H    0.152525
    15  H    0.148421
    16  H    0.144170
    17  C    0.227148
    18  C   -0.247842
    19  C   -0.138926
    20  C   -0.140973
    21  C   -0.166237
    22  C   -0.288672
    23  H    0.142848
    24  H    0.139516
    25  H    0.142268
    26  H    0.139277
    27  H    0.170345
    28  C   -0.353527
    29  H    0.136571
    30  H    0.121841
    31  H    0.137409
 Sum of Mulliken charges =  -0.00000

 Dipole moment (field-independent basis, Debye):
    X=             -0.5743    Y=             -3.1594    Z=              6.6289  Tot=              7.3657
 Quadrupole moment (field-independent basis, Debye-Ang):
   XX=            -93.3212   YY=           -119.2395   ZZ=            -90.2426
   XY=              6.3641   XZ=            -10.9885   YZ=              5.4342

  Exact polarizability: 256.552 -11.529 245.088  -4.444  -4.342 235.017
 Approx polarizability: 202.650 -13.520 196.297  -1.726  -0.958 199.366

 ******    1 imaginary frequencies (negative Signs) ******

                      1                      2                      3
                      A                      A                      A
 Frequencies --   -370.7776                38.5927                57.9808
 Red. masses --      5.6438                 3.9391                 3.6712
 Frc consts  --      0.4571                 0.0035                 0.0073
 IR Inten    --    666.7525                 2.0140                 1.6232

                      4                      5                      6
                      A                      A                      A
 Frequencies --     69.1685                73.3456               101.5631
 Red. masses --      5.4614                 3.8233                 3.8652
 Frc consts  --      0.0154                 0.0121                 0.0235
 IR Inten    --      2.4250                10.1000                 1.0507

                      7                      8                      9
                      A                      A                      A
 Frequencies --    136.5919               141.5956               160.1119
 Red. masses --      1.4683                 1.7009                 4.3454
 Frc consts  --      0.0161                 0.0201                 0.0656
 IR Inten    --      1.0950                 3.0801                 2.3811

                     10                     11                     12
                      A                      A                      A
 Frequencies --    173.0052               200.6204               211.3823
 Red. masses --      3.5335                 1.1657                 4.7670
 Frc consts  --      0.0623                 0.0276                 0.1255
 IR Inten    --      1.9142                 4.2147                 6.0219

                     13                     14                     15
                      A                      A                      A
 Frequencies --    262.5863               278.2706               285.2186
 Red. masses --      2.7529                 2.0833                 3.1820
 Frc consts  --      0.1118                 0.0950                 0.1525
 IR Inten    --     19.6903                28.6895                 8.2934

                     16                     17                     18
                      A                      A                      A
 Frequencies --    302.9289               367.0864               374.7947
 Red. masses --      2.5061                 3.8278                 1.9981
 Frc consts  --      0.1355                 0.3039                 0.1654
 IR Inten    --      8.1009                11.6839                 1.5236

                     19                     20                     21
                      A                      A                      A
 Frequencies --    390.5140               426.2690               446.5059
 Red. masses --      3.8089                 2.8917                 3.2718
 Frc consts  --      0.3422                 0.3096                 0.3843
 IR Inten    --     25.9765                 0.0388                 9.0892

                     22                     23                     24
                      A                      A                      A
 Frequencies --    514.7278               549.2513               578.4074
 Red. masses --      3.9403                 3.5818                 3.0240
 Frc consts  --      0.6151                 0.6366                 0.5961
 IR Inten    --     31.4715                30.1909               131.9933

                     25                     26                     27
                      A                      A                      A
 Frequencies --    630.5984               657.6017               666.9345
 Red. masses --      4.3994                 2.2340                 3.0637
 Frc consts  --      1.0307                 0.5692                 0.8029
 IR Inten    --     14.2364                51.3175                 3.2194

                     28                     29                     30
                      A                      A                      A
 Frequencies --    704.9740               731.7812               748.7753
 Red. masses --      3.1498                 1.5085                 3.3243
 Frc consts  --      0.9223                 0.4759                 1.0981
 IR Inten    --     37.7496               101.7503               115.2164

                     31                     32                     33
                      A                      A                      A
 Frequencies --    797.2350               881.7788               953.7892
 Red. masses --      2.3084                 1.2450                 1.4558
 Frc consts  --      0.8644                 0.5703                 0.7803
 IR Inten    --      1.1199                 0.0646                 6.5960

                     34                     35                     36
                      A                      A                      A
 Frequencies --    970.5865               973.7312              1001.5685
 Red. masses --      2.5746                 2.9375                 1.0916
 Frc consts  --      1.4290                 1.6410                 0.6451
 IR Inten    --     28.4477                17.7224                31.1844

                     37                     38                     39
                      A                      A                      A
 Frequencies --   1013.9755              1027.2262              1028.6223
 Red. masses --      1.3931                 4.5011                 1.3630
 Frc consts  --      0.8439                 2.7983                 0.8497
 IR Inten    --      0.7251                 1.9804                 4.0931

                     40                     41                     42
                      A                      A                      A
 Frequencies --   1034.0900              1039.4449              1055.1493
 Red. masses --      1.3053                 1.5441                 1.7806
 Frc consts  --      0.8224                 0.9830                 1.1680
 IR Inten    --     20.3691                33.3532               130.8613

                     43                     44                     45
                      A                      A                      A
 Frequencies --   1061.0577              1071.6006              1081.3348
 Red. masses --      1.9568                 1.6360                 3.6367
 Frc consts  --      1.2980                 1.1069                 2.5054
 IR Inten    --     25.8986                37.9935                 2.0088

                     46                     47                     48
                      A                      A                      A
 Frequencies --   1112.0597              1121.0794              1182.2522
 Red. masses --      1.5986                 2.5169                 1.1327
 Frc consts  --      1.1648                 1.8637                 0.9328
 IR Inten    --     32.1008                98.0030                 0.0418

                     49                     50                     51
                      A                      A                      A
 Frequencies --   1210.1078              1215.9455              1240.8263
 Red. masses --      1.1295                 1.3930                 3.5837
 Frc consts  --      0.9745                 1.2135                 3.2509
 IR Inten    --      0.1423                29.4293                 8.0489

                     52                     53                     54
                      A                      A                      A
 Frequencies --   1306.6705              1336.5123              1337.2678
 Red. masses --      4.6288                 2.3529                 1.6566
 Frc consts  --      4.6564                 2.4763                 1.7454
 IR Inten    --      2.1745               415.5331               278.9177

                     55                     56                     57
                      A                      A                      A
 Frequencies --   1359.2674              1386.2367              1400.1821
 Red. masses --      1.4393                 1.6427                 1.9173
 Frc consts  --      1.5668                 1.8599                 2.2146
 IR Inten    --      4.0632                22.9536               716.1645

                     58                     59                     60
                      A                      A                      A
 Frequencies --   1431.8613              1458.8181              1460.7858
 Red. masses --      1.6381                 1.1011                 1.2130
 Frc consts  --      1.9788                 1.3807                 1.5251
 IR Inten    --    241.5555                41.5242                54.5945

                     61                     62                     63
                      A                      A                      A
 Frequencies --   1469.6868              1471.3245              1481.4258
 Red. masses --      1.0649                 1.0538                 1.0981
 Frc consts  --      1.3552                 1.3441                 1.4198
 IR Inten    --     37.2946                17.8738                31.4374

                     64                     65                     66
                      A                      A                      A
 Frequencies --   1487.0581              1496.2636              1504.4257
 Red. masses --      2.1347                 1.0440                 1.0345
 Frc consts  --      2.7812                 1.3770                 1.3796
 IR Inten    --      7.6510                 8.3371                16.9965

                     67                     68                     69
                      A                      A                      A
 Frequencies --   1545.5788              1645.3006              1651.7548
 Red. masses --      2.4086                 5.5359                 1.1084
 Frc consts  --      3.3900                 8.8293                 1.7817
 IR Inten    --     27.7281                 3.5995               100.9405

                     70                     71                     72
                      A                      A                      A
 Frequencies --   1658.9541              1674.0765              3061.0964
 Red. masses --      7.7602                 6.0432                 1.0359
 Frc consts  --     12.5832                 9.9786                 5.7188
 IR Inten    --    573.7716                18.8556                21.4834

                     73                     74                     75
                      A                      A                      A
 Frequencies --   3061.2437              3080.7113              3131.3644
 Red. masses --      1.0360                 1.0371                 1.0998
 Frc consts  --      5.7200                 5.7992                 6.3539
 IR Inten    --     24.1683                14.1032                12.4640

                     76                     77                     78
                      A                      A                      A
 Frequencies --   3135.9156              3154.4443              3162.4406
 Red. masses --      1.1020                 1.1025                 1.1040
 Frc consts  --      6.3851                 6.4637                 6.5054
 IR Inten    --     11.0181                16.0113                39.6585

                     79                     80                     81
                      A                      A                      A
 Frequencies --   3171.0780              3187.0822              3189.0800
 Red. masses --      1.1050                 1.0861                 1.1009
 Frc consts  --      6.5467                 6.4997                 6.5966
 IR Inten    --     13.0303                11.9200                 1.5361

                     82                     83                     84
                      A                      A                      A
 Frequencies --   3190.0767              3200.3217              3207.7533
 Red. masses --      1.0877                 1.0910                 1.0950
 Frc consts  --      6.5219                 6.5834                 6.6384
 IR Inten    --      2.1416                13.7250                46.8773

                     85                     86                     87
                      A                      A                      A
 Frequencies --   3219.3246              3523.0510              3605.3905
 Red. masses --      1.0988                 1.0508                 1.0965
 Frc consts  --      6.7095                 7.6841                 8.3978
 IR Inten    --     18.7817                43.3118                61.2954

 - Thermochemistry -
 -------------------
 Temperature   298.150 Kelvin.  Pressure   1.00000 Atm.
 Atom     1 has atomic number  6 and mass  12.00000

 Molecular mass:   269.04153 amu.
 Principal axes and moments of inertia in atomic units:
                           1         2         3
     Eigenvalues --  3413.468964287.229635631.18424
           X            0.99557  -0.09043  -0.02582
           Y            0.09000   0.99580  -0.01707
           Z            0.02726   0.01467   0.99952
 This molecule is an asymmetric top.
 Rotational symmetry number  1.
 Warning -- assumption of classical behavior for rotation
           may cause significant error
 Rotational temperatures (Kelvin)      0.02537     0.02020     0.01538
 Rotational constants (GHZ):           0.52871     0.42096     0.32049
    1 imaginary frequencies ignored.
 Zero-point vibrational energy     677077.2 (Joules/Mol)
                                  161.82534 (Kcal/Mol)
 Warning -- explicit consideration of  23 degrees of freedom as
           vibrations may cause significant error
 Vibrational temperatures:     55.53    83.42    99.52   105.53   146.13
          (Kelvin)            196.53   203.72   230.37   248.92   288.65
                              304.13   377.80   400.37   410.37   435.85
                              528.16   539.25   561.86   613.31   642.42
                              740.58   790.25   832.20   907.29   946.14
                              959.57  1014.30  1052.87  1077.32  1147.04
                             1268.68  1372.29  1396.46  1400.98  1441.03
                             1458.88  1477.95  1479.96  1487.82  1495.53
                             1518.12  1526.63  1541.79  1555.80  1600.01
                             1612.98  1701.00  1741.08  1749.47  1785.27
                             1880.01  1922.94  1924.03  1955.68  1994.49
                             2014.55  2060.13  2098.91  2101.75  2114.55
                             2116.91  2131.44  2139.54  2152.79  2164.53
                             2223.74  2367.22  2376.51  2386.86  2408.62
                             4404.24  4404.45  4432.46  4505.33  4511.88
                             4538.54  4550.05  4562.47  4585.50  4588.37
                             4589.81  4604.55  4615.24  4631.89  5068.88
                             5187.35

 Zero-point correction=                           0.257885 (Hartree/Particle)
 Thermal correction to Energy=                    0.273777
 Thermal correction to Enthalpy=                  0.274721
 Thermal correction to Gibbs Free Energy=         0.213786
 Sum of electronic and zero-point Energies=          -3170.833897
 Sum of electronic and thermal Energies=             -3170.818005
 Sum of electronic and thermal Enthalpies=           -3170.817061
 Sum of electronic and thermal Free Energies=        -3170.877996

                     E (Thermal)             CV                S
                      KCal/Mol        Cal/Mol-Kelvin    Cal/Mol-Kelvin
 Total                  171.798             58.578            128.249
 Electronic               0.000              0.000              0.000
 Translational            0.889              2.981             42.668
 Rotational               0.889              2.981             32.777
 Vibrational            170.020             52.616             52.804
 Vibration     1          0.594              1.981              5.330
 Vibration     2          0.596              1.974              4.525
 Vibration     3          0.598              1.969              4.177
 Vibration     4          0.599              1.967              4.061
 Vibration     5          0.604              1.948              3.424
 Vibration     6          0.614              1.917              2.851
 Vibration     7          0.615              1.912              2.782
 Vibration     8          0.622              1.891              2.548
 Vibration     9          0.627              1.876              2.403
 Vibration    10          0.638              1.839              2.127
 Vibration    11          0.643              1.823              2.032
 Vibration    12          0.670              1.741              1.645
 Vibration    13          0.679              1.714              1.544
 Vibration    14          0.683              1.701              1.502
 Vibration    15          0.694              1.668              1.401
 Vibration    16          0.740              1.540              1.092
 Vibration    17          0.746              1.524              1.060
 Vibration    18          0.758              1.490              0.998
 Vibration    19          0.788              1.413              0.871
 Vibration    20          0.806              1.369              0.806
 Vibration    21          0.870              1.217              0.622
 Vibration    22          0.905              1.141              0.546
 Vibration    23          0.935              1.078              0.488

 Optimization completed.
    -- Stationary point found.
 Normal termination of Gaussian 16 at Sun Feb 21 06:26:46 2021.
