 Gaussian 16, Revision A.03,
 Gaussian 16:  ES64L-G16RevA.03 25-Dec-2016

 ----------------------------------------------------------------------
 # wB97XD def2tzvp, opt=(ts, noeigen, calcfc, maxcycles=70, maxstep=3),
  freq=noraman, scrf=(iefpcm, solvent=water)
 ----------------------------------------------------------------------

 ------------------------
 0_iteration/TS-688-0.out
 ------------------------
 Symbolic Z-matrix:
 Charge =  0 Multiplicity = 1

 SCF Done:  E(RwB97XD) =  -3362.81955368     A.U. after   15 cycles
 SCF Done:  E(RwB97XD) =  -3362.81955370     A.U. after    7 cycles
 Optimization completed.
    -- Stationary point found.
 Normal termination of Gaussian 16 at Fri Mar 26 00:15:28 2021.

 ---------------------------------------------------------------------
 #N Geom=AllCheck Guess=TCheck SCRF=Check GenChk RwB97XD/def2TZVP Freq
 ---------------------------------------------------------------------

 Structure from the checkpoint file:  "/beegfs/scratch/user/q/tla25/Gau-22955.chk"
 ------------------------
 0_iteration/TS-688-0.out
 ------------------------
 Charge =  0 Multiplicity = 1

                         Standard orientation:
 ---------------------------------------------------------------------
 Center     Atomic      Atomic             Coordinates (Angstroms)
 Number     Number       Type             X           Y           Z
 ---------------------------------------------------------------------
      1          6           0       -0.200892   -0.468069   -0.109828
      2          6           0        0.843404   -1.446971   -0.102122
      3          8           0        0.604521   -2.662883   -0.082783
      4          6           0       -0.012236    0.919224   -0.232864
      5          6           0        0.210472    3.087903    1.815728
      6          1           0        0.070814    3.327823    2.870322
      7          1           0        1.225894    3.346227    1.524775
      8          1           0       -0.493198    3.669125    1.222135
      9          7           0       -0.017220    1.664582    1.563102
     10          1           0        0.688140    1.090693    2.012340
     11          1           0       -0.920046    1.369387    1.918275
     12         35           0       -1.582961    1.890510   -0.904484
     13          6           0        1.223557    1.598909   -0.761367
     14          1           0        2.100145    1.357418   -0.167082
     15          1           0        1.400741    1.271705   -1.785429
     16          1           0        1.092018    2.677737   -0.765796
     17          6           0       -1.572144   -1.029198    0.094163
     18          6           0       -2.338025   -1.462846   -0.986344
     19          6           0       -3.606669   -1.987597   -0.798796
     20          6           0       -4.136013   -2.092434    0.481319
     21          6           0       -3.380857   -1.679942    1.568199
     22          6           0       -2.107621   -1.160352    1.372759
     23          1           0       -1.930833   -1.377481   -1.986780
     24          1           0       -4.186134   -2.314974   -1.653348
     25          1           0       -5.128660   -2.498880    0.629355
     26          1           0       -3.778859   -1.766726    2.571703
     27          1           0       -1.515653   -0.867147    2.232718
     28          6           0        2.300250   -1.073925   -0.077567
     29          6           0        2.908038   -0.744818    1.128533
     30          6           0        4.261537   -0.442948    1.171756
     31          6           0        5.016511   -0.471514    0.007768
     32          6           0        4.416475   -0.820358   -1.194917
     33          6           0        3.065197   -1.128322   -1.236125
     34          1           0        2.320794   -0.725459    2.039947
     35          1           0        4.726060   -0.184388    2.114944
     36          1           0        6.071022   -0.228801    0.038306
     37          1           0        5.003477   -0.850762   -2.104280
     38          1           0        2.596375   -1.392812   -2.176383
 ---------------------------------------------------------------------

 SCF Done:  E(RwB97XD) =  -3362.81955370     A.U. after    1 cycles

 The electronic state is 1-A.
 Alpha  occ. eigenvalues -- -483.12982 -62.67824 -56.46935 -56.46597 -56.46573
 Alpha  occ. eigenvalues --  -19.20894 -14.49090 -10.40848 -10.35951 -10.32081
 Alpha  occ. eigenvalues --  -10.29921 -10.29648 -10.29451 -10.29378 -10.29343
 Alpha  occ. eigenvalues --  -10.29252 -10.29157 -10.29141 -10.28742 -10.28672
 Alpha  occ. eigenvalues --  -10.28602 -10.28576 -10.28345 -10.27288  -8.81922
 Alpha  occ. eigenvalues --   -6.64048  -6.62979  -6.62903  -2.74437  -2.74147
 Alpha  occ. eigenvalues --   -2.74088  -2.73221  -2.73221  -1.11666  -1.04558
 Alpha  occ. eigenvalues --   -0.97056  -0.96702  -0.94142  -0.87456  -0.86442
 Alpha  occ. eigenvalues --   -0.85480  -0.84701  -0.84154  -0.80673  -0.79229
 Alpha  occ. eigenvalues --   -0.72911  -0.70826  -0.70011  -0.69690  -0.67831
 Alpha  occ. eigenvalues --   -0.63872  -0.63538  -0.61100  -0.59398  -0.57538
 Alpha  occ. eigenvalues --   -0.56338  -0.55771  -0.55265  -0.55002  -0.53929
 Alpha  occ. eigenvalues --   -0.53181  -0.52703  -0.51342  -0.50700  -0.50526
 Alpha  occ. eigenvalues --   -0.49932  -0.48779  -0.48167  -0.47504  -0.46300
 Alpha  occ. eigenvalues --   -0.45807  -0.44793  -0.44099  -0.43407  -0.42646
 Alpha  occ. eigenvalues --   -0.42271  -0.41949  -0.37762  -0.37420  -0.34380
 Alpha  occ. eigenvalues --   -0.34196  -0.33366  -0.32844  -0.31327  -0.28348
 Alpha virt. eigenvalues --    0.03062   0.04100   0.04955   0.05523   0.05655
 Alpha virt. eigenvalues --    0.05892   0.09503   0.12495   0.12943   0.13166
 Alpha virt. eigenvalues --    0.14256   0.15039   0.15166   0.16131   0.16646

 Mulliken charges:
               1
     1  C   -0.230356
     2  C    0.273710
     3  O   -0.501607
     4  C    0.096873
     5  C   -0.296345
     6  H    0.160886
     7  H    0.165033
     8  H    0.156369
     9  N   -0.306067
    10  H    0.268864
    11  H    0.281580
    12  Br  -0.106857
    13  C   -0.407706
    14  H    0.169800
    15  H    0.164366
    16  H    0.176041
    17  C    0.242276
    18  C   -0.250931
    19  C   -0.151236
    20  C   -0.133787
    21  C   -0.175442
    22  C   -0.255289
    23  H    0.137206
    24  H    0.138157
    25  H    0.141677
    26  H    0.138128
    27  H    0.152217
    28  C    0.172575
    29  C   -0.295816
    30  C   -0.137526
    31  C   -0.148573
    32  C   -0.139107
    33  C   -0.245211
    34  H    0.165432
    35  H    0.144730
    36  H    0.145535
    37  H    0.144178
    38  H    0.146222
 Sum of Mulliken charges =  -0.00000

 Dipole moment (field-independent basis, Debye):
    X=              2.2684    Y=              9.6898    Z=              4.5300  Tot=             10.9343
 Quadrupole moment (field-independent basis, Debye-Ang):
   XX=           -119.1284   YY=           -144.6964   ZZ=           -112.3239
   XY=              9.9753   XZ=             -1.8536   YZ=              9.8543

  Exact polarizability: 362.524  13.393 305.021   0.701  21.486 310.732
 Approx polarizability: 278.540  12.674 244.034   1.831  15.528 268.974

 ******    1 imaginary frequencies (negative Signs) ******

                      1                      2                      3
                      A                      A                      A
 Frequencies --   -359.1519                31.4390                36.5695
 Red. masses --      6.2498                 5.3103                 4.6173
 Frc consts  --      0.4750                 0.0031                 0.0036
 IR Inten    --    948.6505                 2.1223                 3.2086

                      4                      5                      6
                      A                      A                      A
 Frequencies --     51.4115                53.2366                62.9043
 Red. masses --      4.5387                 5.1471                 4.1170
 Frc consts  --      0.0071                 0.0086                 0.0096
 IR Inten    --      3.6404                 0.1248                 0.7181

                      7                      8                      9
                      A                      A                      A
 Frequencies --     70.3864                90.2871               107.0851
 Red. masses --      5.6252                 4.0051                 2.5616
 Frc consts  --      0.0164                 0.0192                 0.0173
 IR Inten    --      1.8286                 3.3060                 2.1698

                     10                     11                     12
                      A                      A                      A
 Frequencies --    152.6713               169.7088               200.3874
 Red. masses --      2.1988                 7.1584                 5.8095
 Frc consts  --      0.0302                 0.1215                 0.1374
 IR Inten    --      0.8518                 5.6667                 5.6330

                     13                     14                     15
                      A                      A                      A
 Frequencies --    201.8424               211.9841               245.7936
 Red. masses --      5.0655                 1.3741                 4.9365
 Frc consts  --      0.1216                 0.0364                 0.1757
 IR Inten    --      4.7701                 3.3422                 0.9863

                     16                     17                     18
                      A                      A                      A
 Frequencies --    256.9679               278.9714               292.7786
 Red. masses --      3.0427                 1.5432                 2.5178
 Frc consts  --      0.1184                 0.0708                 0.1272
 IR Inten    --     17.9570                22.9501                16.5623

                     19                     20                     21
                      A                      A                      A
 Frequencies --    331.9642               349.9870               366.4260
 Red. masses --      4.9498                 2.7726                 2.6108
 Frc consts  --      0.3214                 0.2001                 0.2065
 IR Inten    --     24.2725                 5.4229                42.0999

                     22                     23                     24
                      A                      A                      A
 Frequencies --    379.0631               414.3617               424.1876
 Red. masses --      5.0426                 2.8612                 2.8770
 Frc consts  --      0.4269                 0.2894                 0.3050
 IR Inten    --     25.6647                 0.5525                 0.0157

                     25                     26                     27
                      A                      A                      A
 Frequencies --    451.6871               522.8768               560.5888
 Red. masses --      4.0870                 4.0204                 3.6255
 Frc consts  --      0.4913                 0.6476                 0.6713
 IR Inten    --     10.8855                10.4204                10.0622

                     28                     29                     30
                      A                      A                      A
 Frequencies --    566.2919               634.3485               639.6097
 Red. masses --      6.2274                 6.3568                 5.5922
 Frc consts  --      1.1766                 1.5071                 1.3479
 IR Inten    --     86.0476                 2.2329                70.8395

                     31                     32                     33
                      A                      A                      A
 Frequencies --    642.1860               653.9018               695.5577
 Red. masses --      4.5642                 2.0446                 2.7766
 Frc consts  --      1.1090                 0.5151                 0.7915
 IR Inten    --     54.6165                27.3178                78.0261

                     34                     35                     36
                      A                      A                      A
 Frequencies --    727.6684               729.0255               742.6329
 Red. masses --      1.6077                 1.5699                 2.7304
 Frc consts  --      0.5015                 0.4916                 0.8872
 IR Inten    --     94.8969               106.7593                78.3258

                     37                     38                     39
                      A                      A                      A
 Frequencies --    785.8235               793.4416               809.1018
 Red. masses --      2.3051                 6.7149                 2.7756
 Frc consts  --      0.8387                 2.4907                 1.0706
 IR Inten    --     18.0059                61.3326                87.8611

                     40                     41                     42
                      A                      A                      A
 Frequencies --    873.6453               878.6500               879.8022
 Red. masses --      3.4700                 1.2751                 1.2658
 Frc consts  --      1.5604                 0.5800                 0.5773
 IR Inten    --     25.7773                 0.5435                 1.0664

                     43                     44                     45
                      A                      A                      A
 Frequencies --    950.0739               958.2703              1008.0599
 Red. masses --      1.4530                 1.5572                 1.4078
 Frc consts  --      0.7727                 0.8425                 0.8429
 IR Inten    --     20.4674                16.9148                 4.2691

                     46                     47                     48
                      A                      A                      A
 Frequencies --   1010.7773              1012.2495              1022.6445
 Red. masses --      1.3792                 1.4420                 2.0233
 Frc consts  --      0.8302                 0.8705                 1.2467
 IR Inten    --      0.1927                 7.0592                90.0918

                     49                     50                     51
                      A                      A                      A
 Frequencies --   1025.9080              1026.6642              1030.1802
 Red. masses --      5.2387                 1.8457                 1.9641
 Frc consts  --      3.2486                 1.1462                 1.2281
 IR Inten    --      2.3062                 1.4443                70.7544

                     52                     53                     54
                      A                      A                      A
 Frequencies --   1031.4239              1046.8739              1050.7616
 Red. masses --      1.3359                 1.4447                 2.5683
 Frc consts  --      0.8373                 0.9329                 1.6707
 IR Inten    --      0.7197                42.5274               101.7853

                     55                     56                     57
                      A                      A                      A
 Frequencies --   1060.3417              1069.4318              1074.4149
 Red. masses --      2.1346                 1.6898                 2.3012
 Frc consts  --      1.4141                 1.1386                 1.5651
 IR Inten    --     17.3196                40.7588                48.7813

                     58                     59                     60
                      A                      A                      A
 Frequencies --   1100.4953              1107.5082              1110.9152
 Red. masses --      1.7995                 1.5427                 1.5493
 Frc consts  --      1.2840                 1.1148                 1.1266
 IR Inten    --    101.8977                22.3860                11.9907

                     61                     62                     63
                      A                      A                      A
 Frequencies --   1168.6052              1181.1951              1183.2528
 Red. masses --      3.9005                 1.1355                 1.1407
 Frc consts  --      3.1384                 0.9335                 0.9410
 IR Inten    --     47.2436                 0.0259                 0.0160

                     64                     65                     66
                      A                      A                      A
 Frequencies --   1204.4029              1205.8845              1231.7673
 Red. masses --      1.1214                 1.1249                 1.4053
 Frc consts  --      0.9584                 0.9637                 1.2563
 IR Inten    --      0.0099                 0.8747                31.4645

                     67                     68                     69
                      A                      A                      A
 Frequencies --   1255.8669              1308.1914              1317.5770
 Red. masses --      3.5709                 4.4074                 4.2744
 Frc consts  --      3.3183                 4.4440                 4.3719
 IR Inten    --     80.5313                 3.4774                 8.2563

                     70                     71                     72
                      A                      A                      A
 Frequencies --   1346.2593              1355.8412              1358.4343
 Red. masses --      1.3333                 1.4502                 1.4721
 Frc consts  --      1.4237                 1.5707                 1.6006
 IR Inten    --      9.7694                10.0941                 7.6926

                     73                     74                     75
                      A                      A                      A
 Frequencies --   1375.8645              1416.7479              1442.6439
 Red. masses --      5.7492                 1.3354                 3.1240
 Frc consts  --      6.4123                 1.5792                 3.8307
 IR Inten    --   1496.0201                12.1513               284.0770

                     76                     77                     78
                      A                      A                      A
 Frequencies --   1458.7509              1480.1133              1485.3621
 Red. masses --      1.2560                 1.0711                 1.4300
 Frc consts  --      1.5748                 1.3825                 1.8588
 IR Inten    --     70.2195                10.1163                25.3426

                     79                     80                     81
                      A                      A                      A
 Frequencies --   1487.5676              1488.9159              1500.1854
 Red. masses --      1.9186                 1.6022                 1.0568
 Frc consts  --      2.5014                 2.0927                 1.4013
 IR Inten    --      5.6840                40.6990                14.4833

                     82                     83                     84
                      A                      A                      A
 Frequencies --   1506.4206              1541.9550              1544.4075
 Red. masses --      1.0362                 2.3681                 2.5295
 Frc consts  --      1.3854                 3.3173                 3.5548
 IR Inten    --     22.1067                19.4648                36.5378

                     85                     86                     87
                      A                      A                      A
 Frequencies --   1610.4191              1641.8034              1646.2653
 Red. masses --     11.1079                 1.1611                 4.5278
 Frc consts  --     16.9731                 1.8440                 7.2300
 IR Inten    --    719.3151                34.4828                 4.3381

                     88                     89                     90
                      A                      A                      A
 Frequencies --   1648.9476              1673.1181              1675.1982
 Red. masses --      5.7021                 6.0155                 5.8965
 Frc consts  --      9.1347                 9.9214                 9.7493
 IR Inten    --      2.4289                28.5698                 0.0689

                     91                     92                     93
                      A                      A                      A
 Frequencies --   3071.3340              3087.7901              3149.7776
 Red. masses --      1.0347                 1.0371                 1.1032
 Frc consts  --      5.7507                 5.8261                 6.4484
 IR Inten    --     43.3051                 6.3140                10.3788

                     94                     95                     96
                      A                      A                      A
 Frequencies --   3166.3296              3175.8470              3180.7720
 Red. masses --      1.1018                 1.1055                 1.0883
 Frc consts  --      6.5081                 6.5695                 6.4871
 IR Inten    --     11.2350                11.2311                16.8710

                     97                     98                     99
                      A                      A                      A
 Frequencies --   3183.0682              3183.6820              3189.3111
 Red. masses --      1.1018                 1.0896                 1.0867
 Frc consts  --      6.5770                 6.5070                 6.5125
 IR Inten    --      1.5559                11.0509                 2.3033

                    100                    101                    102
                      A                      A                      A
 Frequencies --   3192.9161              3199.1963              3202.1715
 Red. masses --      1.0874                 1.0906                 1.0905
 Frc consts  --      6.5312                 6.5768                 6.5880
 IR Inten    --      2.7039                11.7323                 4.7481

                    103                    104                    105
                      A                      A                      A
 Frequencies --   3206.8556              3210.9144              3218.4281
 Red. masses --      1.0949                 1.0947                 1.0987
 Frc consts  --      6.6343                 6.6499                 6.7055
 IR Inten    --     48.2823                35.4238                22.0104

                    106                    107                    108
                      A                      A                      A
 Frequencies --   3222.0886              3514.7856              3597.6343
 Red. masses --      1.0987                 1.0511                 1.0964
 Frc consts  --      6.7207                 7.6502                 8.3611
 IR Inten    --     20.1164                15.4690                64.8987

 - Thermochemistry -
 -------------------
 Temperature   298.150 Kelvin.  Pressure   1.00000 Atm.
 Atom     1 has atomic number  6 and mass  12.00000

 Molecular mass:   331.05718 amu.
 Principal axes and moments of inertia in atomic units:
                           1         2         3
     Eigenvalues --  4533.048198674.55349**********
           X            0.99871   0.04984  -0.01008
           Y           -0.04915   0.99699   0.05996
           Z            0.01304  -0.05939   0.99815
 This molecule is an asymmetric top.
 Rotational symmetry number  1.
 Warning -- assumption of classical behavior for rotation
           may cause significant error
 Rotational temperatures (Kelvin)      0.01911     0.00998     0.00806
 Rotational constants (GHZ):           0.39813     0.20805     0.16802
    1 imaginary frequencies ignored.
 Zero-point vibrational energy     818001.2 (Joules/Mol)
                                  195.50697 (Kcal/Mol)
 Warning -- explicit consideration of  27 degrees of freedom as
           vibrations may cause significant error
 Vibrational temperatures:     45.23    52.62    73.97    76.60    90.51
          (Kelvin)            101.27   129.90   154.07   219.66   244.17
                              288.31   290.41   305.00   353.64   369.72
                              401.38   421.24   477.62   503.55   527.21
                              545.39   596.17   610.31   649.88   752.30
                              806.56   814.77   912.69   920.26   923.96
                              940.82  1000.75  1046.95  1048.91  1068.48
                             1130.62  1141.59  1164.12  1256.98  1264.18
                             1265.84  1366.94  1378.74  1450.37  1454.28
                             1456.40  1471.36  1476.05  1477.14  1482.20
                             1483.99  1506.22  1511.81  1525.60  1538.67
                             1545.84  1583.37  1593.46  1598.36  1681.36
                             1699.48  1702.44  1732.87  1735.00  1772.24
                             1806.91  1882.20  1895.70  1936.97  1950.75
                             1954.48  1979.56  2038.38  2075.64  2098.82
                             2129.55  2137.10  2140.28  2142.22  2158.43
                             2167.40  2218.53  2222.06  2317.03  2362.19
                             2368.61  2372.47  2407.24  2410.24  4418.96
                             4442.64  4531.83  4555.64  4569.34  4576.42
                             4579.73  4580.61  4588.71  4593.89  4602.93
                             4607.21  4613.95  4619.79  4630.60  4635.87
                             5056.99  5176.19

 Zero-point correction=                           0.311560 (Hartree/Particle)
 Thermal correction to Energy=                    0.330658
 Thermal correction to Enthalpy=                  0.331603
 Thermal correction to Gibbs Free Energy=         0.262158
 Sum of electronic and zero-point Energies=          -3362.507994
 Sum of electronic and thermal Energies=             -3362.488895
 Sum of electronic and thermal Enthalpies=           -3362.487951
 Sum of electronic and thermal Free Energies=        -3362.557396

                     E (Thermal)             CV                S
                      KCal/Mol        Cal/Mol-Kelvin    Cal/Mol-Kelvin
 Total                  207.491             71.704            146.159
 Electronic               0.000              0.000              0.000
 Translational            0.889              2.981             43.286
 Rotational               0.889              2.981             34.401
 Vibrational            205.714             65.742             68.472
 Vibration     1          0.594              1.983              5.736
 Vibration     2          0.594              1.982              5.437
 Vibration     3          0.596              1.977              4.762
 Vibration     4          0.596              1.976              4.693
 Vibration     5          0.597              1.972              4.364
 Vibration     6          0.598              1.968              4.143
 Vibration     7          0.602              1.956              3.654
 Vibration     8          0.606              1.944              3.321
 Vibration     9          0.619              1.900              2.639
 Vibration    10          0.625              1.880              2.439
 Vibration    11          0.638              1.839              2.130
 Vibration    12          0.639              1.837              2.116
 Vibration    13          0.643              1.823              2.027
 Vibration    14          0.660              1.770              1.761
 Vibration    15          0.667              1.751              1.682
 Vibration    16          0.679              1.712              1.540
 Vibration    17          0.688              1.687              1.458
 Vibration    18          0.714              1.612              1.251
 Vibration    19          0.727              1.575              1.166
 Vibration    20          0.739              1.541              1.095
 Vibration    21          0.749              1.515              1.043
 Vibration    22          0.778              1.439              0.911
 Vibration    23          0.786              1.418              0.878
 Vibration    24          0.810              1.357              0.791
 Vibration    25          0.878              1.199              0.603
 Vibration    26          0.916              1.117              0.523
 Vibration    27          0.922              1.104              0.511

 Optimization completed.
    -- Stationary point found.
 Normal termination of Gaussian 16 at Fri Mar 26 03:06:36 2021.
