 Gaussian 16, Revision A.03,
 Gaussian 16:  ES64L-G16RevA.03 25-Dec-2016

 ----------------------------------------------------------------------
 # wB97XD def2tzvp, opt=(ts, noeigen, calcfc, maxcycles=70, maxstep=8),
  freq=noraman, scrf=(iefpcm, solvent=water)
 ----------------------------------------------------------------------

 ------------------------
 1_iteration/TS-613-1.out
 ------------------------
 Symbolic Z-matrix:
 Charge =  0 Multiplicity = 1

 SCF Done:  E(RwB97XD) =  -3187.13024339     A.U. after   15 cycles
 SCF Done:  E(RwB97XD) =  -3187.13131264     A.U. after   13 cycles
 SCF Done:  E(RwB97XD) =  -3187.13190244     A.U. after   13 cycles
 SCF Done:  E(RwB97XD) =  -3187.13205068     A.U. after   12 cycles
 SCF Done:  E(RwB97XD) =  -3187.13209250     A.U. after   12 cycles
 SCF Done:  E(RwB97XD) =  -3187.13209424     A.U. after   10 cycles
 SCF Done:  E(RwB97XD) =  -3187.13209480     A.U. after    9 cycles
 SCF Done:  E(RwB97XD) =  -3187.13209449     A.U. after    9 cycles
 SCF Done:  E(RwB97XD) =  -3187.13209460     A.U. after    7 cycles
 Optimization completed.
    -- Stationary point found.
 Normal termination of Gaussian 16 at Fri Feb 19 17:33:35 2021.

 ---------------------------------------------------------------------
 #N Geom=AllCheck Guess=TCheck SCRF=Check GenChk RwB97XD/def2TZVP Freq
 ---------------------------------------------------------------------

 Structure from the checkpoint file:  "/beegfs/scratch/user/q/tla25/Gau-5210.chk"
 ------------------------
 1_iteration/TS-613-1.out
 ------------------------
 Charge =  0 Multiplicity = 1

                         Standard orientation:
 ---------------------------------------------------------------------
 Center     Atomic      Atomic             Coordinates (Angstroms)
 Number     Number       Type             X           Y           Z
 ---------------------------------------------------------------------
      1          6           0        1.006578   -1.104787   -0.811750
      2          6           0        2.349161   -0.738669   -0.488938
      3          8           0        3.337301   -1.333681   -0.949567
      4          6           0       -0.155456   -0.609005   -0.156879
      5          6           0       -0.816034   -0.822765    2.714452
      6          1           0       -0.822533    0.239369    2.939468
      7          1           0       -1.823063   -1.164069    2.483875
      8          1           0       -0.442871   -1.369208    3.580327
      9          7           0        0.062574   -1.078720    1.563576
     10          1           0        0.190664   -2.077149    1.431837
     11          1           0        0.993500   -0.690026    1.725688
     12         35           0       -1.733863   -1.665877   -0.643376
     13          6           0       -0.519137    0.858394   -0.154404
     14          6           0        0.166263    1.720406   -1.007829
     15          6           0       -0.148706    3.070185   -1.059697
     16          6           0       -1.171024    3.577474   -0.275330
     17          6           0       -1.890027    2.720486    0.546620
     18          6           0       -1.573298    1.374663    0.599132
     19          1           0        0.941303    1.320413   -1.647391
     20          1           0        0.402629    3.720678   -1.726227
     21          1           0       -1.421334    4.629664   -0.317123
     22          1           0       -2.711244    3.098341    1.141677
     23          1           0       -2.181342    0.722383    1.207880
     24          1           0        0.919264   -2.032355   -1.355968
     25          7           0        2.559465    0.267573    0.456868
     26          6           0        3.908220    0.734374    0.706629
     27          1           0        1.867886    0.999416    0.478387
     28          1           0        3.870748    1.494487    1.485578
     29          1           0        4.531568   -0.087183    1.054768
     30          1           0        4.378094    1.163879   -0.183241
 ---------------------------------------------------------------------

 SCF Done:  E(RwB97XD) =  -3187.13209460     A.U. after    1 cycles

 The electronic state is 1-A.
 Alpha  occ. eigenvalues -- -483.13472 -62.68308 -56.47426 -56.47074 -56.47059
 Alpha  occ. eigenvalues --  -19.18916 -14.51153 -14.43927 -10.41279 -10.36627
 Alpha  occ. eigenvalues --  -10.32738 -10.31808 -10.30181 -10.30127 -10.30010
 Alpha  occ. eigenvalues --  -10.29886 -10.29789 -10.29722 -10.24356  -8.82403
 Alpha  occ. eigenvalues --   -6.64550  -6.63433  -6.63388  -2.74934  -2.74623
 Alpha  occ. eigenvalues --   -2.74588  -2.73684  -2.73683  -1.11401  -1.06490
 Alpha  occ. eigenvalues --   -1.00273  -0.98246  -0.93415  -0.86678  -0.86163
 Alpha  occ. eigenvalues --   -0.84297  -0.80252  -0.77752  -0.73709  -0.71485
 Alpha  occ. eigenvalues --   -0.67891  -0.65152  -0.64952  -0.62204  -0.59285
 Alpha  occ. eigenvalues --   -0.57761  -0.57260  -0.56253  -0.54376  -0.53203
 Alpha  occ. eigenvalues --   -0.52570  -0.51700  -0.50623  -0.49463  -0.49289
 Alpha  occ. eigenvalues --   -0.48332  -0.47908  -0.46023  -0.45409  -0.44941
 Alpha  occ. eigenvalues --   -0.43410  -0.43140  -0.38368  -0.38055  -0.34915
 Alpha  occ. eigenvalues --   -0.34035  -0.33730  -0.32479  -0.26742
 Alpha virt. eigenvalues --    0.01191   0.04453   0.05265   0.09127   0.10103
 Alpha virt. eigenvalues --    0.12813   0.12878   0.13778   0.14940   0.15351
 Alpha virt. eigenvalues --    0.16371   0.16989   0.17603   0.18285   0.18623

 Mulliken charges:
               1
     1  C   -0.590858
     2  C    0.354752
     3  O   -0.568376
     4  C    0.338367
     5  C   -0.333905
     6  H    0.177477
     7  H    0.170392
     8  H    0.171299
     9  N   -0.238463
    10  H    0.294587
    11  H    0.278058
    12  Br  -0.099011
    13  C    0.061238
    14  C   -0.267401
    15  C   -0.111969
    16  C   -0.144153
    17  C   -0.138131
    18  C   -0.297649
    19  H    0.184951
    20  H    0.148557
    21  H    0.149406
    22  H    0.147543
    23  H    0.191174
    24  H    0.124249
    25  N   -0.372561
    26  C   -0.272811
    27  H    0.260377
    28  H    0.136378
    29  H    0.128847
    30  H    0.117637
 Sum of Mulliken charges =  -0.00000

 Dipole moment (field-independent basis, Debye):
    X=             -5.9725    Y=              4.5360    Z=              8.8476  Tot=             11.5985
 Quadrupole moment (field-independent basis, Debye-Ang):
   XX=           -121.6347   YY=            -94.6063   ZZ=            -94.8298
   XY=             11.5231   XZ=              5.3785   YZ=            -10.9821

  Exact polarizability: 262.845  -1.806 252.633 -32.334   1.560 210.205
 Approx polarizability: 206.026  -1.227 201.071 -25.562   0.958 178.810

 ******    1 imaginary frequencies (negative Signs) ******

                      1                      2                      3
                      A                      A                      A
 Frequencies --   -354.0619                38.6997                70.9853
 Red. masses --      5.7483                 3.3364                 3.4771
 Frc consts  --      0.4246                 0.0029                 0.0103
 IR Inten    --    538.0141                 1.9775                 4.7121

                      4                      5                      6
                      A                      A                      A
 Frequencies --     75.1007                91.6466                96.8279
 Red. masses --      4.1741                 4.9592                 3.9827
 Frc consts  --      0.0139                 0.0245                 0.0220
 IR Inten    --      1.3111                10.8991                 3.6451

                      7                      8                      9
                      A                      A                      A
 Frequencies --    131.5365               158.6365               186.6829
 Red. masses --      5.2320                 1.1960                 4.6753
 Frc consts  --      0.0533                 0.0177                 0.0960
 IR Inten    --      5.0009                 0.7560                 7.1459

                     10                     11                     12
                      A                      A                      A
 Frequencies --    194.1472               218.5044               222.5876
 Red. masses --      3.2719                 3.3202                 3.1171
 Frc consts  --      0.0727                 0.0934                 0.0910
 IR Inten    --      5.0457                 2.4214                13.7040

                     13                     14                     15
                      A                      A                      A
 Frequencies --    275.2404               291.3066               311.1377
 Red. masses --      5.2742                 3.0799                 1.4204
 Frc consts  --      0.2354                 0.1540                 0.0810
 IR Inten    --      7.9403                26.4477                 9.1363

                     16                     17                     18
                      A                      A                      A
 Frequencies --    320.3184               361.5853               400.4508
 Red. masses --      2.8638                 5.2661                 4.2079
 Frc consts  --      0.1731                 0.4057                 0.3976
 IR Inten    --     27.9932                16.2301                 6.9689

                     19                     20                     21
                      A                      A                      A
 Frequencies --    437.4849               461.2999               529.7647
 Red. masses --      3.0541                 3.0692                 1.6622
 Frc consts  --      0.3444                 0.3848                 0.2749
 IR Inten    --      0.8308                19.8055               112.7843

                     22                     23                     24
                      A                      A                      A
 Frequencies --    569.4264               592.8982               601.9017
 Red. masses --      2.8971                 2.3069                 2.0005
 Frc consts  --      0.5535                 0.4778                 0.4270
 IR Inten    --    231.3486               125.7980                38.2796

                     25                     26                     27
                      A                      A                      A
 Frequencies --    637.4467               684.7068               734.8631
 Red. masses --      6.0084                 3.2404                 1.7704
 Frc consts  --      1.4384                 0.8951                 0.5633
 IR Inten    --      9.1883                33.5947                65.4228

                     28                     29                     30
                      A                      A                      A
 Frequencies --    737.5876               759.8059               787.6399
 Red. masses --      1.7268                 3.3661                 5.7569
 Frc consts  --      0.5535                 1.1449                 2.1043
 IR Inten    --     18.8771                67.7832                96.4365

                     31                     32                     33
                      A                      A                      A
 Frequencies --    794.8037               881.9816               887.8887
 Red. masses --      2.2661                 3.1531                 1.2690
 Frc consts  --      0.8434                 1.4452                 0.5894
 IR Inten    --     87.7741               146.9663                 3.8780

                     34                     35                     36
                      A                      A                      A
 Frequencies --    903.8958               984.2200              1026.3504
 Red. masses --      2.4206                 1.3904                 2.6074
 Frc consts  --      1.1652                 0.7936                 1.6182
 IR Inten    --      9.9613                 1.6229                 1.7465

                     37                     38                     39
                      A                      A                      A
 Frequencies --   1029.1756              1038.7651              1042.3356
 Red. masses --      1.8779                 1.3643                 3.3825
 Frc consts  --      1.1719                 0.8674                 2.1652
 IR Inten    --      0.5208                 3.0255                83.3188

                     40                     41                     42
                      A                      A                      A
 Frequencies --   1065.9203              1099.7228              1120.0432
 Red. masses --      2.2996                 1.2491                 1.7437
 Frc consts  --      1.5394                 0.8901                 1.2888
 IR Inten    --     10.3601                 5.4852                36.0024

                     43                     44                     45
                      A                      A                      A
 Frequencies --   1131.9103              1133.0763              1149.0772
 Red. masses --      1.8277                 1.3937                 1.6900
 Frc consts  --      1.3797                 1.0542                 1.3147
 IR Inten    --     41.5896               119.5960                 9.4404

                     46                     47                     48
                      A                      A                      A
 Frequencies --   1165.3801              1178.2454              1186.8728
 Red. masses --      1.7793                 2.3322                 1.1256
 Frc consts  --      1.4237                 1.9076                 0.9342
 IR Inten    --     17.7212                57.7489                 0.2245

                     49                     50                     51
                      A                      A                      A
 Frequencies --   1217.6246              1289.6463              1302.5304
 Red. masses --      1.1277                 1.9201                 2.4460
 Frc consts  --      0.9851                 1.8816                 2.4450
 IR Inten    --     16.0963               362.7607               281.8976

                     52                     53                     54
                      A                      A                      A
 Frequencies --   1324.1794              1339.0198              1362.7690
 Red. masses --      4.2379                 1.4108                 1.5010
 Frc consts  --      4.3782                 1.4904                 1.6424
 IR Inten    --     11.3648               135.7766                 6.1470

                     55                     56                     57
                      A                      A                      A
 Frequencies --   1376.2561              1393.1054              1454.2595
 Red. masses --      1.3496                 2.5352                 1.2113
 Frc consts  --      1.5061                 2.8989                 1.5094
 IR Inten    --     45.1661               400.5449                20.1829

                     58                     59                     60
                      A                      A                      A
 Frequencies --   1457.0247              1477.5826              1493.0090
 Red. masses --      1.1780                 1.0820                 2.2562
 Frc consts  --      1.4734                 1.3919                 2.9632
 IR Inten    --      2.4475                38.5398                56.0707

                     61                     62                     63
                      A                      A                      A
 Frequencies --   1500.2133              1503.8268              1510.2931
 Red. masses --      1.1584                 1.0425                 1.0416
 Frc consts  --      1.5361                 1.3891                 1.3999
 IR Inten    --     40.2010                13.9133                20.2118

                     64                     65                     66
                      A                      A                      A
 Frequencies --   1528.4632              1542.0230              1630.1916
 Red. masses --      1.4003                 2.1941                 1.9235
 Frc consts  --      1.9274                 3.0739                 3.0118
 IR Inten    --    235.8296                 5.3129               999.1154

                     67                     68                     69
                      A                      A                      A
 Frequencies --   1640.9611              1652.1667              1672.9453
 Red. masses --      1.7521                 5.6095                 5.7862
 Frc consts  --      2.7797                 9.0216                 9.5414
 IR Inten    --    296.9405                27.7296                 1.3711

                     70                     71                     72
                      A                      A                      A
 Frequencies --   3037.3731              3080.2129              3118.3126
 Red. masses --      1.0457                 1.0344                 1.0900
 Frc consts  --      5.6838                 5.7823                 6.2445
 IR Inten    --    103.3510                24.2909                41.8439

                     73                     74                     75
                      A                      A                      A
 Frequencies --   3156.2120              3160.8059              3193.9281
 Red. masses --      1.1046                 1.1044                 1.1064
 Frc consts  --      6.4829                 6.5011                 6.6497
 IR Inten    --     25.0295                10.1428                 9.0012

                     76                     77                     78
                      A                      A                      A
 Frequencies --   3201.8642              3211.3094              3220.7206
 Red. masses --      1.0866                 1.0902                 1.0935
 Frc consts  --      6.5635                 6.6242                 6.6831
 IR Inten    --      0.1129                10.4980                12.3589

                     79                     80                     81
                      A                      A                      A
 Frequencies --   3227.9456              3232.1400              3249.4650
 Red. masses --      1.0968                 1.0888                 1.0920
 Frc consts  --      6.7331                 6.7016                 6.7933
 IR Inten    --     18.1946                 2.5356                 4.2552

                     82                     83                     84
                      A                      A                      A
 Frequencies --   3428.7729              3553.2740              3623.0717
 Red. masses --      1.0630                 1.0861                 1.0757
 Frc consts  --      7.3634                 8.0792                 8.3192
 IR Inten    --    127.7508                80.5008                74.3258

 - Thermochemistry -
 -------------------
 Temperature   298.150 Kelvin.  Pressure   1.00000 Atm.
 Atom     1 has atomic number  6 and mass  12.00000

 Molecular mass:   270.03677 amu.
 Principal axes and moments of inertia in atomic units:
                           1         2         3
     Eigenvalues --  3769.766284362.345446208.45989
           X            0.98726  -0.15810  -0.01780
           Y            0.15737   0.98686  -0.03671
           Z            0.02338   0.03344   0.99917
 This molecule is an asymmetric top.
 Rotational symmetry number  1.
 Warning -- assumption of classical behavior for rotation
           may cause significant error
 Rotational temperatures (Kelvin)      0.02298     0.01985     0.01395
 Rotational constants (GHZ):           0.47874     0.41371     0.29069
    1 imaginary frequencies ignored.
 Zero-point vibrational energy     652942.0 (Joules/Mol)
                                  156.05689 (Kcal/Mol)
 Warning -- explicit consideration of  23 degrees of freedom as
           vibrations may cause significant error
 Vibrational temperatures:     55.68   102.13   108.05   131.86   139.31
          (Kelvin)            189.25   228.24   268.60   279.33   314.38
                              320.25   396.01   419.13   447.66   460.87
                              520.24   576.16   629.44   663.71   762.21
                              819.28   853.05   866.00   917.14   985.14
                             1057.30  1061.22  1093.19  1133.24  1143.55
                             1268.97  1277.47  1300.50  1416.07  1476.69
                             1480.75  1494.55  1499.69  1533.62  1582.26
                             1611.49  1628.57  1630.24  1653.27  1676.72
                             1695.23  1707.65  1751.89  1855.51  1874.05
                             1905.20  1926.55  1960.72  1980.13  2004.37
                             2092.36  2096.33  2125.91  2148.11  2158.47
                             2163.67  2172.97  2199.12  2218.63  2345.48
                             2360.98  2377.10  2407.00  4370.10  4431.74
                             4486.56  4541.09  4547.69  4595.35  4606.77
                             4620.36  4633.90  4644.29  4650.33  4675.26
                             4933.24  5112.37  5212.79

 Zero-point correction=                           0.248692 (Hartree/Particle)
 Thermal correction to Energy=                    0.263920
 Thermal correction to Enthalpy=                  0.264865
 Thermal correction to Gibbs Free Energy=         0.205429
 Sum of electronic and zero-point Energies=          -3186.883402
 Sum of electronic and thermal Energies=             -3186.868174
 Sum of electronic and thermal Enthalpies=           -3186.867230
 Sum of electronic and thermal Free Energies=        -3186.926666

                     E (Thermal)             CV                S
                      KCal/Mol        Cal/Mol-Kelvin    Cal/Mol-Kelvin
 Total                  165.613             56.633            125.093
 Electronic               0.000              0.000              0.000
 Translational            0.889              2.981             42.679
 Rotational               0.889              2.981             32.990
 Vibrational            163.835             50.671             49.424
 Vibration     1          0.594              1.981              5.325
 Vibration     2          0.598              1.968              4.126
 Vibration     3          0.599              1.966              4.015
 Vibration     4          0.602              1.955              3.625
 Vibration     5          0.603              1.951              3.517
 Vibration     6          0.612              1.922              2.923
 Vibration     7          0.621              1.893              2.566
 Vibration     8          0.632              1.858              2.261
 Vibration     9          0.635              1.848              2.188
 Vibration    10          0.646              1.813              1.971
 Vibration    11          0.648              1.807              1.938
 Vibration    12          0.677              1.719              1.563
 Vibration    13          0.687              1.690              1.466
 Vibration    14          0.700              1.652              1.356
 Vibration    15          0.706              1.635              1.308
 Vibration    16          0.736              1.551              1.115
 Vibration    17          0.766              1.469              0.961
 Vibration    18          0.798              1.388              0.835
 Vibration    19          0.819              1.336              0.762
 Vibration    20          0.885              1.184              0.588
 Vibration    21          0.925              1.097              0.505
 Vibration    22          0.950              1.047              0.462
 Vibration    23          0.960              1.028              0.446

 Optimization completed.
    -- Stationary point found.
 Normal termination of Gaussian 16 at Fri Feb 19 18:39:56 2021.
