 Gaussian 16, Revision A.03,
 Gaussian 16:  ES64L-G16RevA.03 25-Dec-2016

 ----------------------------------------------------------------------
 # wB97XD def2tzvp, opt=(ts, noeigen, calcfc, maxcycles=70, maxstep=1),
  freq=noraman, scrf=(iefpcm, solvent=water)
 ----------------------------------------------------------------------

 ------------------------
 0_iteration/TS-691-0.out
 ------------------------
 Symbolic Z-matrix:
 Charge =  0 Multiplicity = 1

 SCF Done:  E(RwB97XD) =  -2956.10312269     A.U. after   14 cycles
 SCF Done:  E(RwB97XD) =  -2956.10311484     A.U. after   10 cycles
 SCF Done:  E(RwB97XD) =  -2956.10311173     A.U. after   10 cycles
 SCF Done:  E(RwB97XD) =  -2956.10311410     A.U. after   10 cycles
 SCF Done:  E(RwB97XD) =  -2956.10312457     A.U. after    9 cycles
 SCF Done:  E(RwB97XD) =  -2956.10315074     A.U. after    9 cycles
 SCF Done:  E(RwB97XD) =  -2956.10318972     A.U. after   10 cycles
 SCF Done:  E(RwB97XD) =  -2956.10324004     A.U. after    9 cycles
 SCF Done:  E(RwB97XD) =  -2956.10330082     A.U. after    9 cycles
 SCF Done:  E(RwB97XD) =  -2956.10337152     A.U. after    9 cycles
 SCF Done:  E(RwB97XD) =  -2956.10609937     A.U. after   10 cycles
 SCF Done:  E(RwB97XD) =  -2956.10614037     A.U. after   10 cycles
 SCF Done:  E(RwB97XD) =  -2956.10617312     A.U. after   10 cycles
 SCF Done:  E(RwB97XD) =  -2956.10619612     A.U. after   10 cycles
 SCF Done:  E(RwB97XD) =  -2956.10620514     A.U. after   10 cycles
 SCF Done:  E(RwB97XD) =  -2956.10620557     A.U. after    9 cycles
 SCF Done:  E(RwB97XD) =  -2956.10620568     A.U. after    8 cycles
 SCF Done:  E(RwB97XD) =  -2956.10620567     A.U. after    6 cycles
 SCF Done:  E(RwB97XD) =  -2956.10620563     A.U. after    6 cycles
 Optimization completed.
    -- Stationary point found.
 Normal termination of Gaussian 16 at Thu Feb 18 17:00:18 2021.

 ---------------------------------------------------------------------
 #N Geom=AllCheck Guess=TCheck SCRF=Check GenChk RwB97XD/def2TZVP Freq
 ---------------------------------------------------------------------

 Structure from the checkpoint file:  "/beegfs/scratch/user/q/tla25/Gau-110975.chk"
 ------------------------
 0_iteration/TS-691-0.out
 ------------------------
 Charge =  0 Multiplicity = 1

                         Standard orientation:
 ---------------------------------------------------------------------
 Center     Atomic      Atomic             Coordinates (Angstroms)
 Number     Number       Type             X           Y           Z
 ---------------------------------------------------------------------
      1          6           0       -0.841246   -0.597550   -0.394778
      2          6           0       -2.214393   -0.631512    0.019226
      3          8           0       -2.706022   -0.086106    1.019163
      4          6           0        0.171018    0.098142    0.259373
      5          6           0       -0.712528    2.558468   -0.629644
      6          1           0       -0.623797    3.350569   -1.371525
      7          1           0       -1.557548    1.917623   -0.883390
      8          1           0       -0.872654    2.998535    0.351356
      9          7           0        0.488162    1.726959   -0.600364
     10          1           0        0.754398    1.444358   -1.537272
     11          1           0        1.278777    2.211307   -0.187166
     12         35           0        1.969695   -0.661738   -0.088949
     13          6           0        0.066560    0.554365    1.687333
     14          1           0       -0.860287    1.105065    1.826039
     15          1           0        0.029574   -0.320420    2.336267
     16          1           0        0.919850    1.165924    1.975690
     17          1           0       -0.593070   -1.090854   -1.325153
     18          7           0       -3.056132   -1.332580   -0.825211
     19          1           0       -3.947536   -1.583406   -0.432372
     20          1           0       -2.659541   -2.001168   -1.462614
 ---------------------------------------------------------------------

 SCF Done:  E(RwB97XD) =  -2956.10620563     A.U. after    1 cycles

 The electronic state is 1-A.
 Alpha  occ. eigenvalues -- -483.12378 -62.67250 -56.46343 -56.46018 -56.46008
 Alpha  occ. eigenvalues --  -19.19074 -14.49636 -14.42784 -10.39717 -10.37089
 Alpha  occ. eigenvalues --  -10.31881 -10.28320 -10.24669  -8.81368  -6.63454
 Alpha  occ. eigenvalues --   -6.62424  -6.62393  -2.73846  -2.73560  -2.73536
 Alpha  occ. eigenvalues --   -2.72702  -2.72701  -1.11454  -1.05097  -0.98144
 Alpha  occ. eigenvalues --   -0.93128  -0.84355  -0.80783  -0.79282  -0.70074
 Alpha  occ. eigenvalues --   -0.63818  -0.62999  -0.59452  -0.57827  -0.56749
 Alpha  occ. eigenvalues --   -0.55244  -0.52363  -0.49936  -0.49537  -0.49029
 Alpha  occ. eigenvalues --   -0.47603  -0.45451  -0.44452  -0.43367  -0.37273
 Alpha  occ. eigenvalues --   -0.37078  -0.34674  -0.32683  -0.27400
 Alpha virt. eigenvalues --    0.04943   0.07129   0.10302   0.12830   0.14396
 Alpha virt. eigenvalues --    0.14825   0.16168   0.16782   0.17656   0.18818
 Alpha virt. eigenvalues --    0.20005   0.20596   0.21126   0.22021   0.23016

 Mulliken charges:
               1
     1  C   -0.495516
     2  C    0.349065
     3  O   -0.562492
     4  C    0.175817
     5  C   -0.306397
     6  H    0.162569
     7  H    0.157600
     8  H    0.162845
     9  N   -0.286375
    10  H    0.285973
    11  H    0.293136
    12  Br  -0.160567
    13  C   -0.380728
    14  H    0.157085
    15  H    0.148457
    16  H    0.144898
    17  H    0.131929
    18  N   -0.499950
    19  H    0.256653
    20  H    0.265997
 Sum of Mulliken charges =  -0.00000

 Dipole moment (field-independent basis, Debye):
    X=              3.5297    Y=              4.3400    Z=             -3.8188  Tot=              6.7733
 Quadrupole moment (field-independent basis, Debye-Ang):
   XX=            -78.6584   YY=            -53.4802   ZZ=            -66.5862
   XY=              9.3239   XZ=              7.1833   YZ=              0.0065

  Exact polarizability: 180.276   9.950 141.448  -1.921   5.602 121.992
 Approx polarizability: 135.710   4.121 114.439  -3.492   5.946 105.885

 ******    1 imaginary frequencies (negative Signs) ******

                      1                      2                      3
                      A                      A                      A
 Frequencies --   -374.9377                61.6345                75.3058
 Red. masses --      5.1855                 4.6496                 3.2618
 Frc consts  --      0.4295                 0.0104                 0.0109
 IR Inten    --    748.9702                20.0801                 2.5023

                      4                      5                      6
                      A                      A                      A
 Frequencies --     92.1047               171.4291               182.7052
 Red. masses --      2.4323                 4.1630                 4.2224
 Frc consts  --      0.0122                 0.0721                 0.0830
 IR Inten    --     10.2476                 7.9095                10.4629

                      7                      8                      9
                      A                      A                      A
 Frequencies --    200.4721               243.8358               269.8823
 Red. masses --      1.1266                 3.8695                 2.3033
 Frc consts  --      0.0267                 0.1355                 0.0988
 IR Inten    --      1.6765                 3.6433                13.2962

                     10                     11                     12
                      A                      A                      A
 Frequencies --    287.2465               307.6379               331.0452
 Red. masses --      2.5785                 1.6804                 2.6928
 Frc consts  --      0.1253                 0.0937                 0.1739
 IR Inten    --     14.9382                12.3620                19.4107

                     13                     14                     15
                      A                      A                      A
 Frequencies --    402.5926               416.8548               459.3153
 Red. masses --      1.3093                 3.1624                 1.0745
 Frc consts  --      0.1250                 0.3238                 0.1336
 IR Inten    --    430.4790                99.1033                53.1285

                     16                     17                     18
                      A                      A                      A
 Frequencies --    492.8271               579.5442               684.9078
 Red. masses --      2.7652                 3.5424                 1.2568
 Frc consts  --      0.3957                 0.7010                 0.3474
 IR Inten    --     54.4617               109.1458                57.9626

                     19                     20                     21
                      A                      A                      A
 Frequencies --    718.3085               748.8118               791.4335
 Red. masses --      2.0470                 2.0365                 7.1055
 Frc consts  --      0.6223                 0.6728                 2.6223
 IR Inten    --     27.7766                86.6624                91.1295

                     22                     23                     24
                      A                      A                      A
 Frequencies --    895.4545              1002.8246              1043.1065
 Red. masses --      4.1309                 1.1965                 1.7403
 Frc consts  --      1.9516                 0.7089                 1.1156
 IR Inten    --     75.9315                25.4390               116.5630

                     25                     26                     27
                      A                      A                      A
 Frequencies --   1049.5753              1064.3809              1078.4272
 Red. masses --      1.2717                 1.9063                 2.6647
 Frc consts  --      0.8254                 1.2725                 1.8259
 IR Inten    --     15.1951                82.6449                14.4578

                     28                     29                     30
                      A                      A                      A
 Frequencies --   1086.2545              1119.1010              1240.3582
 Red. masses --      1.4607                 2.0549                 1.3714
 Frc consts  --      1.0155                 1.5163                 1.2431
 IR Inten    --    176.0886                46.0043                37.6786

                     31                     32                     33
                      A                      A                      A
 Frequencies --   1288.5499              1339.7341              1378.2246
 Red. masses --      1.9976                 1.3638                 1.9468
 Frc consts  --      1.9541                 1.4422                 2.1788
 IR Inten    --    289.5076                 1.0150                80.1552

                     34                     35                     36
                      A                      A                      A
 Frequencies --   1426.2145              1448.9224              1463.8679
 Red. masses --      1.5169                 1.2371                 1.0728
 Frc consts  --      1.8179                 1.5302                 1.3545
 IR Inten    --     22.6466               193.3621                13.0295

                     37                     38                     39
                      A                      A                      A
 Frequencies --   1475.2452              1490.9614              1500.8872
 Red. masses --      1.5572                 1.1742                 1.2801
 Frc consts  --      1.9968                 1.5378                 1.6990
 IR Inten    --    786.6550               171.1782               361.1790

                     40                     41                     42
                      A                      A                      A
 Frequencies --   1504.9140              1618.7328              1639.8071
 Red. masses --      1.0475                 1.2615                 1.0914
 Frc consts  --      1.3977                 1.9475                 1.7291
 IR Inten    --     41.7840               195.8874                82.6604

                     43                     44                     45
                      A                      A                      A
 Frequencies --   1657.3477              3073.5637              3078.6340
 Red. masses --      5.0607                 1.0332                 1.0363
 Frc consts  --      8.1900                 5.7505                 5.7871
 IR Inten    --    632.6266                35.0288                15.1900

                     46                     47                     48
                      A                      A                      A
 Frequencies --   3152.4593              3153.4527              3176.0986
 Red. masses --      1.1046                 1.1030                 1.1054
 Frc consts  --      6.4677                 6.4625                 6.5700
 IR Inten    --      4.6067                18.4230                12.4887

                     49                     50                     51
                      A                      A                      A
 Frequencies --   3183.4830              3199.0066              3510.4999
 Red. masses --      1.1018                 1.0882                 1.0510
 Frc consts  --      6.5787                 6.5615                 7.6311
 IR Inten    --      0.7267                 6.3212                49.2815

                     52                     53                     54
                      A                      A                      A
 Frequencies --   3595.2632              3607.0609              3725.0085
 Red. masses --      1.0968                 1.0464                 1.1020
 Frc consts  --      8.3529                 8.0218                 9.0095
 IR Inten    --     50.6890                55.3853                43.2205

 - Thermochemistry -
 -------------------
 Temperature   298.150 Kelvin.  Pressure   1.00000 Atm.
 Atom     1 has atomic number  6 and mass  12.00000

 Molecular mass:   194.00547 amu.
 Principal axes and moments of inertia in atomic units:
                           1         2         3
     Eigenvalues --  1170.589962695.476223184.54694
           X            0.99898   0.04238   0.01556
           Y           -0.04244   0.99909   0.00376
           Z           -0.01539  -0.00442   0.99987
 This molecule is an asymmetric top.
 Rotational symmetry number  1.
 Warning -- assumption of classical behavior for rotation
           may cause significant error
 Rotational temperatures (Kelvin)      0.07399     0.03213     0.02720
 Rotational constants (GHZ):           1.54174     0.66954     0.56672
    1 imaginary frequencies ignored.
 Zero-point vibrational energy     435352.9 (Joules/Mol)
                                  104.05183 (Kcal/Mol)
 Warning -- explicit consideration of  16 degrees of freedom as
           vibrations may cause significant error
 Vibrational temperatures:     88.68   108.35   132.52   246.65   262.87
          (Kelvin)            288.43   350.83   388.30   413.28   442.62
                              476.30   579.24   599.76   660.85   709.07
                              833.83   985.43  1033.49  1077.37  1138.70
                             1288.36  1442.84  1500.80  1510.10  1531.41
                             1551.62  1562.88  1610.14  1784.60  1853.94
                             1927.58  1982.96  2052.00  2084.68  2106.18
                             2122.55  2145.16  2159.44  2165.24  2329.00
                             2359.32  2384.55  4422.17  4429.47  4535.69
                             4537.12  4569.70  4580.32  4602.66  5050.83
                             5172.78  5189.76  5359.46

 Zero-point correction=                           0.165817 (Hartree/Particle)
 Thermal correction to Energy=                    0.176938
 Thermal correction to Enthalpy=                  0.177883
 Thermal correction to Gibbs Free Energy=         0.128238
 Sum of electronic and zero-point Energies=          -2955.940388
 Sum of electronic and thermal Energies=             -2955.929267
 Sum of electronic and thermal Enthalpies=           -2955.928323
 Sum of electronic and thermal Free Energies=        -2955.977967

                     E (Thermal)             CV                S
                      KCal/Mol        Cal/Mol-Kelvin    Cal/Mol-Kelvin
 Total                  111.031             39.543            104.486
 Electronic               0.000              0.000              0.000
 Translational            0.889              2.981             41.693
 Rotational               0.889              2.981             30.686
 Vibrational            109.253             33.581             32.106
 Vibration     1          0.597              1.973              4.404
 Vibration     2          0.599              1.965              4.010
 Vibration     3          0.602              1.955              3.615
 Vibration     4          0.626              1.878              2.420
 Vibration     5          0.630              1.863              2.301
 Vibration     6          0.638              1.839              2.129
 Vibration     7          0.659              1.773              1.775
 Vibration     8          0.674              1.729              1.597
 Vibration     9          0.684              1.697              1.490
 Vibration    10          0.698              1.659              1.375
 Vibration    11          0.713              1.613              1.255
 Vibration    12          0.768              1.465              0.953
 Vibration    13          0.780              1.434              0.903
 Vibration    14          0.817              1.340              0.768
 Vibration    15          0.849              1.266              0.676
 Vibration    16          0.936              1.076              0.486

 Optimization completed.
    -- Stationary point found.
 Normal termination of Gaussian 16 at Thu Feb 18 17:12:01 2021.
