 Gaussian 16, Revision A.03,
 Gaussian 16:  ES64L-G16RevA.03 25-Dec-2016

 ----------------------------------------------------------------------
 # wB97XD def2tzvp, opt=(ts, noeigen, calcfc, maxcycles=70, maxstep=8),
  freq=noraman, scrf=(iefpcm, solvent=water)
 ----------------------------------------------------------------------

 ------------------------
 1_iteration/TS-619-1.out
 ------------------------
 Symbolic Z-matrix:
 Charge =  0 Multiplicity = 1

 SCF Done:  E(RwB97XD) =  -3187.14400541     A.U. after   16 cycles
 SCF Done:  E(RwB97XD) =  -3187.14407668     A.U. after   12 cycles
 SCF Done:  E(RwB97XD) =  -3187.14377184     A.U. after   14 cycles
 SCF Done:  E(RwB97XD) =  -3187.14400305     A.U. after   13 cycles
 SCF Done:  E(RwB97XD) =  -3187.14410956     A.U. after   14 cycles
 SCF Done:  E(RwB97XD) =  -3187.14413046     A.U. after   12 cycles
 SCF Done:  E(RwB97XD) =  -3187.14413119     A.U. after   10 cycles
 SCF Done:  E(RwB97XD) =  -3187.14413127     A.U. after    8 cycles
 SCF Done:  E(RwB97XD) =  -3187.14413134     A.U. after    7 cycles
 Optimization completed.
    -- Stationary point found.
 Normal termination of Gaussian 16 at Sat Feb 20 11:16:57 2021.

 ---------------------------------------------------------------------
 #N Geom=AllCheck Guess=TCheck SCRF=Check GenChk RwB97XD/def2TZVP Freq
 ---------------------------------------------------------------------

 Structure from the checkpoint file:  "/beegfs/scratch/user/q/tla25/Gau-29018.chk"
 ------------------------
 1_iteration/TS-619-1.out
 ------------------------
 Charge =  0 Multiplicity = 1

                         Standard orientation:
 ---------------------------------------------------------------------
 Center     Atomic      Atomic             Coordinates (Angstroms)
 Number     Number       Type             X           Y           Z
 ---------------------------------------------------------------------
      1          6           0        1.196423    0.993585   -0.236959
      2          6           0        0.641814    2.316736   -0.514297
      3          8           0        1.289327    3.146039   -1.167546
      4          6           0        0.465133   -0.104319    0.157753
      5          6           0        1.031312    0.533132    2.794295
      6          1           0        1.462630    1.366398    2.237820
      7          1           0        0.036901    0.814991    3.130519
      8          1           0        1.656132    0.305673    3.655878
      9          7           0        0.953950   -0.611888    1.890751
     10          1           0        1.871222   -1.019399    1.751284
     11          1           0        0.355361   -1.355535    2.234465
     12         35           0        1.144064   -1.914511   -0.641457
     13          6           0       -1.026996   -0.183701    0.082526
     14          6           0       -1.600695   -0.096007   -1.189289
     15          6           0       -2.971557   -0.118319   -1.352941
     16          6           0       -3.805033   -0.237842   -0.246998
     17          6           0       -3.249432   -0.336930    1.015601
     18          6           0       -1.869512   -0.314360    1.180526
     19          1           0       -0.953657   -0.001196   -2.051571
     20          1           0       -3.393237   -0.042304   -2.346809
     21          1           0       -4.879765   -0.255064   -0.372948
     22          1           0       -3.885224   -0.430505    1.886237
     23          1           0       -1.483644   -0.379580    2.186461
     24          6           0        2.689721    0.883535   -0.425274
     25          1           0        3.136579    0.161026    0.260168
     26          1           0        2.957278    0.565340   -1.438219
     27          1           0        3.166002    1.846384   -0.249061
     28          7           0       -0.562302    2.704711    0.002836
     29          1           0       -1.188577    2.059446    0.445968
     30          1           0       -0.963464    3.541065   -0.383589
 ---------------------------------------------------------------------

 SCF Done:  E(RwB97XD) =  -3187.14413134     A.U. after    1 cycles

 The electronic state is 1-A.
 Alpha  occ. eigenvalues -- -483.11278 -62.66126 -56.45207 -56.44907 -56.44897
 Alpha  occ. eigenvalues --  -19.19612 -14.50326 -14.43373 -10.39993 -10.37775
 Alpha  occ. eigenvalues --  -10.32251 -10.32048 -10.30559 -10.29992 -10.29931
 Alpha  occ. eigenvalues --  -10.29848 -10.29773 -10.26928 -10.26569  -8.80214
 Alpha  occ. eigenvalues --   -6.62240  -6.61301  -6.61267  -2.72628  -2.72384
 Alpha  occ. eigenvalues --   -2.72356  -2.71596  -2.71596  -1.12231  -1.05750
 Alpha  occ. eigenvalues --   -0.99285  -0.97888  -0.92575  -0.86511  -0.86118
 Alpha  occ. eigenvalues --   -0.84847  -0.79762  -0.78017  -0.72769  -0.71658
 Alpha  occ. eigenvalues --   -0.69294  -0.65623  -0.64226  -0.61960  -0.59715
 Alpha  occ. eigenvalues --   -0.58443  -0.57534  -0.56666  -0.54735  -0.53189
 Alpha  occ. eigenvalues --   -0.51826  -0.51222  -0.50761  -0.49537  -0.48766
 Alpha  occ. eigenvalues --   -0.47287  -0.47222  -0.46417  -0.45036  -0.44498
 Alpha  occ. eigenvalues --   -0.43055  -0.42602  -0.37466  -0.36734  -0.35210
 Alpha  occ. eigenvalues --   -0.34576  -0.33534  -0.33001  -0.26993
 Alpha virt. eigenvalues --    0.00511   0.04290   0.06708   0.06776   0.09993
 Alpha virt. eigenvalues --    0.12665   0.13099   0.13758   0.14440   0.15313
 Alpha virt. eigenvalues --    0.16564   0.16955   0.17623   0.17762   0.18871

 Mulliken charges:
               1
     1  C   -0.204235
     2  C    0.283275
     3  O   -0.524878
     4  C    0.212196
     5  C   -0.289426
     6  H    0.161198
     7  H    0.156961
     8  H    0.166809
     9  N   -0.295852
    10  H    0.286937
    11  H    0.296863
    12  Br  -0.245864
    13  C    0.026811
    14  C   -0.264220
    15  C   -0.123592
    16  C   -0.134264
    17  C   -0.162778
    18  C   -0.161407
    19  H    0.159150
    20  H    0.148641
    21  H    0.149487
    22  H    0.148868
    23  H    0.136328
    24  C   -0.378638
    25  H    0.114020
    26  H    0.125031
    27  H    0.132749
    28  N   -0.451448
    29  H    0.268509
    30  H    0.262767
 Sum of Mulliken charges =  -0.00000

 Dipole moment (field-independent basis, Debye):
    X=             -4.8445    Y=             -4.2100    Z=              8.7708  Tot=             10.8683
 Quadrupole moment (field-independent basis, Debye-Ang):
   XX=            -93.0764   YY=           -124.9787   ZZ=            -88.3038
   XY=            -12.3177   XZ=             10.8669   YZ=              2.7936

  Exact polarizability: 264.152  -2.084 247.553 -10.648  -9.376 235.775
 Approx polarizability: 206.789  -1.022 194.422  -9.252  -9.245 201.488

 ******    1 imaginary frequencies (negative Signs) ******

                      1                      2                      3
                      A                      A                      A
 Frequencies --   -397.8117                37.3723                57.7827
 Red. masses --      5.4520                 3.7109                 6.3289
 Frc consts  --      0.5084                 0.0031                 0.0125
 IR Inten    --    395.1750                 2.1171                14.4576

                      4                      5                      6
                      A                      A                      A
 Frequencies --     74.3596                86.8831               101.2425
 Red. masses --      4.4250                 3.0280                 1.3029
 Frc consts  --      0.0144                 0.0135                 0.0079
 IR Inten    --     11.9541                 2.4633                 2.5297

                      7                      8                      9
                      A                      A                      A
 Frequencies --    114.7553               123.5672               147.5091
 Red. masses --      1.1664                 3.4724                 3.0848
 Frc consts  --      0.0090                 0.0312                 0.0395
 IR Inten    --      1.5595                 8.2375                14.9933

                     10                     11                     12
                      A                      A                      A
 Frequencies --    158.5911               166.3052               216.5062
 Red. masses --      5.7925                 3.3299                 5.1667
 Frc consts  --      0.0858                 0.0543                 0.1427
 IR Inten    --     43.8026                15.3386               104.9611

                     13                     14                     15
                      A                      A                      A
 Frequencies --    238.0860               273.0566               297.5372
 Red. masses --      3.2256                 3.3205                 3.2588
 Frc consts  --      0.1077                 0.1459                 0.1700
 IR Inten    --     17.3563                56.6850                10.8446

                     16                     17                     18
                      A                      A                      A
 Frequencies --    301.4882               336.2251               356.8251
 Red. masses --      1.4330                 2.9806                 3.6799
 Frc consts  --      0.0767                 0.1985                 0.2761
 IR Inten    --    298.0167                21.1824                23.8285

                     19                     20                     21
                      A                      A                      A
 Frequencies --    368.8628               420.7020               478.0645
 Red. masses --      3.2461                 2.8415                 1.8146
 Frc consts  --      0.2602                 0.2963                 0.2443
 IR Inten    --     28.0438                 0.7475                14.8373

                     22                     23                     24
                      A                      A                      A
 Frequencies --    514.6657               520.2702               579.5966
 Red. masses --      3.7138                 1.8795                 2.9927
 Frc consts  --      0.5796                 0.2997                 0.5923
 IR Inten    --     89.8410                40.4286               113.4298

                     25                     26                     27
                      A                      A                      A
 Frequencies --    602.0631               638.1146               660.0888
 Red. masses --      2.6565                 6.2448                 4.8999
 Frc consts  --      0.5673                 1.4982                 1.2579
 IR Inten    --     65.0925                28.3024               279.9172

                     28                     29                     30
                      A                      A                      A
 Frequencies --    688.1261               722.4516               748.3886
 Red. masses --      2.0082                 1.6364                 2.9638
 Frc consts  --      0.5603                 0.5032                 0.9780
 IR Inten    --     18.8802                69.6803               192.6698

                     31                     32                     33
                      A                      A                      A
 Frequencies --    785.1968               816.5430               871.8296
 Red. masses --      6.7912                 2.5837                 1.2559
 Frc consts  --      2.4669                 1.0150                 0.5624
 IR Inten    --     43.4842                23.0733                 0.4542

                     34                     35                     36
                      A                      A                      A
 Frequencies --    893.6863               960.0255              1001.9249
 Red. masses --      2.5322                 1.4349                 1.1391
 Frc consts  --      1.1916                 0.7792                 0.6737
 IR Inten    --     78.2230                 3.2630                61.2070

                     37                     38                     39
                      A                      A                      A
 Frequencies --   1015.8947              1024.3465              1027.1753
 Red. masses --      1.3876                 3.1096                 2.8234
 Frc consts  --      0.8438                 1.9224                 1.7552
 IR Inten    --      5.9371                74.2095                52.2860

                     40                     41                     42
                      A                      A                      A
 Frequencies --   1037.0257              1055.9186              1066.8132
 Red. masses --      1.3272                 1.4474                 1.8526
 Frc consts  --      0.8409                 0.9508                 1.2422
 IR Inten    --      0.7494                44.0229                 5.8405

                     43                     44                     45
                      A                      A                      A
 Frequencies --   1070.6283              1074.3557              1090.8131
 Red. masses --      1.3343                 3.2771                 1.9796
 Frc consts  --      0.9011                 2.2286                 1.3878
 IR Inten    --     56.0753                98.5743               111.5705

                     46                     47                     48
                      A                      A                      A
 Frequencies --   1126.4867              1184.3869              1189.4422
 Red. masses --      1.5776                 3.1303                 1.1516
 Frc consts  --      1.1795                 2.5871                 0.9599
 IR Inten    --      7.3071                14.2639                 0.4718

                     49                     50                     51
                      A                      A                      A
 Frequencies --   1222.1116              1225.0573              1239.2393
 Red. masses --      1.1353                 1.5502                 2.7947
 Frc consts  --      0.9990                 1.3708                 2.5287
 IR Inten    --      5.0876                84.5965                34.9154

                     52                     53                     54
                      A                      A                      A
 Frequencies --   1320.3681              1334.7854              1364.7995
 Red. masses --      4.4063                 1.3208                 1.4357
 Frc consts  --      4.5260                 1.3865                 1.5757
 IR Inten    --     14.4379                 3.4205                 5.1738

                     55                     56                     57
                      A                      A                      A
 Frequencies --   1384.5616              1415.4788              1444.4642
 Red. masses --      4.3887                 1.2534                 1.1930
 Frc consts  --      4.9569                 1.4796                 1.4665
 IR Inten    --    910.6569                 0.6478                37.3363

                     58                     59                     60
                      A                      A                      A
 Frequencies --   1468.3369              1483.1390              1489.8969
 Red. masses --      1.0755                 1.3406                 1.7999
 Frc consts  --      1.3662                 1.7374                 2.3540
 IR Inten    --     61.3263                28.8750                12.9578

                     61                     62                     63
                      A                      A                      A
 Frequencies --   1493.4507              1500.3045              1517.7298
 Red. masses --      1.0741                 1.0638                 2.3321
 Frc consts  --      1.4115                 1.4108                 3.1650
 IR Inten    --     32.5075                11.8145               372.8143

                     64                     65                     66
                      A                      A                      A
 Frequencies --   1551.9926              1613.2836              1642.6722
 Red. masses --      2.8544                 1.6874                 1.2409
 Frc consts  --      4.0509                 2.5875                 1.9728
 IR Inten    --    177.4882               425.9470                59.8774

                     67                     68                     69
                      A                      A                      A
 Frequencies --   1644.8374              1652.7140              1674.5344
 Red. masses --      2.9505                 3.5355                 5.7471
 Frc consts  --      4.7031                 5.6898                 9.4948
 IR Inten    --    791.1130                13.5640                 2.1650

                     70                     71                     72
                      A                      A                      A
 Frequencies --   3031.7643              3072.0227              3094.2687
 Red. masses --      1.0467                 1.0350                 1.0918
 Frc consts  --      5.6684                 5.7550                 6.1589
 IR Inten    --     71.9453                37.4219                48.2681

                     73                     74                     75
                      A                      A                      A
 Frequencies --   3144.1464              3152.5567              3180.1106
 Red. masses --      1.0986                 1.1022                 1.1061
 Frc consts  --      6.3990                 6.4541                 6.5905
 IR Inten    --     28.9044                 3.1042                13.9468

                     76                     77                     78
                      A                      A                      A
 Frequencies --   3202.7357              3210.9587              3219.3863
 Red. masses --      1.0865                 1.0894                 1.0937
 Frc consts  --      6.5660                 6.6176                 6.6787
 IR Inten    --      0.3518                 4.6199                16.7742

                     79                     80                     81
                      A                      A                      A
 Frequencies --   3227.3159              3244.5109              3522.1691
 Red. masses --      1.0978                 1.0929                 1.0522
 Frc consts  --      6.7367                 6.7786                 7.6908
 IR Inten    --     17.8173                13.5443                47.6484

                     82                     83                     84
                      A                      A                      A
 Frequencies --   3597.2121              3625.0170              3748.3365
 Red. masses --      1.0953                 1.0462                 1.1032
 Frc consts  --      8.3508                 8.1000                 9.1325
 IR Inten    --     58.0756                58.5237               111.8332

 - Thermochemistry -
 -------------------
 Temperature   298.150 Kelvin.  Pressure   1.00000 Atm.
 Atom     1 has atomic number  6 and mass  12.00000

 Molecular mass:   270.03677 amu.
 Principal axes and moments of inertia in atomic units:
                           1         2         3
     Eigenvalues --  3566.301454245.382195463.13179
           X            0.99088   0.13156   0.02896
           Y           -0.13073   0.99099  -0.02896
           Z           -0.03251   0.02491   0.99916
 This molecule is an asymmetric top.
 Rotational symmetry number  1.
 Warning -- assumption of classical behavior for rotation
           may cause significant error
 Rotational temperatures (Kelvin)      0.02429     0.02040     0.01585
 Rotational constants (GHZ):           0.50605     0.42511     0.33035
    1 imaginary frequencies ignored.
 Zero-point vibrational energy     647647.8 (Joules/Mol)
                                  154.79153 (Kcal/Mol)
 Warning -- explicit consideration of  24 degrees of freedom as
           vibrations may cause significant error
 Vibrational temperatures:     53.77    83.14   106.99   125.01   145.67
          (Kelvin)            165.11   177.79   212.23   228.18   239.28
                              311.50   342.55   392.87   428.09   433.77
                              483.75   513.39   530.71   605.30   687.83
                              740.49   748.55   833.91   866.23   918.10
                              949.72   990.06  1039.45  1076.76  1129.72
                             1174.82  1254.37  1285.82  1381.26  1441.55
                             1461.65  1473.81  1477.88  1492.05  1519.23
                             1534.91  1540.40  1545.76  1569.44  1620.76
                             1704.07  1711.34  1758.35  1762.58  1782.99
                             1899.72  1920.46  1963.64  1992.08  2036.56
                             2078.26  2112.61  2133.91  2143.63  2148.74
                             2158.60  2183.67  2232.97  2321.16  2363.44
                             2366.55  2377.89  2409.28  4362.03  4419.96
                             4451.96  4523.73  4535.83  4575.47  4608.02
                             4619.85  4631.98  4643.39  4668.13  5067.62
                             5175.59  5215.59  5393.02

 Zero-point correction=                           0.246676 (Hartree/Particle)
 Thermal correction to Energy=                    0.262856
 Thermal correction to Enthalpy=                  0.263800
 Thermal correction to Gibbs Free Energy=         0.202181
 Sum of electronic and zero-point Energies=          -3186.897455
 Sum of electronic and thermal Energies=             -3186.881275
 Sum of electronic and thermal Enthalpies=           -3186.880331
 Sum of electronic and thermal Free Energies=        -3186.941951

                     E (Thermal)             CV                S
                      KCal/Mol        Cal/Mol-Kelvin    Cal/Mol-Kelvin
 Total                  164.945             58.956            129.689
 Electronic               0.000              0.000              0.000
 Translational            0.889              2.981             42.679
 Rotational               0.889              2.981             32.781
 Vibrational            163.167             52.994             54.229
 Vibration     1          0.594              1.982              5.394
 Vibration     2          0.596              1.974              4.532
 Vibration     3          0.599              1.966              4.034
 Vibration     4          0.601              1.958              3.729
 Vibration     5          0.604              1.948              3.430
 Vibration     6          0.608              1.937              3.187
 Vibration     7          0.610              1.929              3.044
 Vibration     8          0.617              1.905              2.704
 Vibration     9          0.621              1.893              2.567
 Vibration    10          0.624              1.884              2.477
 Vibration    11          0.645              1.816              1.988
 Vibration    12          0.656              1.782              1.817
 Vibration    13          0.676              1.723              1.577
 Vibration    14          0.691              1.678              1.431
 Vibration    15          0.693              1.671              1.409
 Vibration    16          0.717              1.603              1.230
 Vibration    17          0.732              1.561              1.136
 Vibration    18          0.741              1.536              1.085
 Vibration    19          0.783              1.425              0.890
 Vibration    20          0.835              1.299              0.715
 Vibration    21          0.870              1.218              0.622
 Vibration    22          0.875              1.205              0.609
 Vibration    23          0.936              1.075              0.486
 Vibration    24          0.960              1.027              0.446

 Optimization completed.
    -- Stationary point found.
 Normal termination of Gaussian 16 at Sat Feb 20 12:27:31 2021.
