 Gaussian 16, Revision A.03,
 Gaussian 16:  ES64L-G16RevA.03 25-Dec-2016

 ----------------------------------------------------------------------
 # wB97XD def2tzvp, opt=(ts, noeigen, calcfc, maxcycles=70, maxstep=3),
  freq=noraman, scrf=(iefpcm, solvent=water)
 ----------------------------------------------------------------------

 ------------------------
 0_iteration/TS-685-0.out
 ------------------------
 Symbolic Z-matrix:
 Charge =  0 Multiplicity = 1

 SCF Done:  E(RwB97XD) =  -3226.46266529     A.U. after   15 cycles
 SCF Done:  E(RwB97XD) =  -3226.46265368     A.U. after   11 cycles
 SCF Done:  E(RwB97XD) =  -3226.46266214     A.U. after   10 cycles
 SCF Done:  E(RwB97XD) =  -3226.46269241     A.U. after   10 cycles
 SCF Done:  E(RwB97XD) =  -3226.46276990     A.U. after   11 cycles
 SCF Done:  E(RwB97XD) =  -3226.46288906     A.U. after   11 cycles
 SCF Done:  E(RwB97XD) =  -3226.46303339     A.U. after   11 cycles
 SCF Done:  E(RwB97XD) =  -3226.46318936     A.U. after   11 cycles
 SCF Done:  E(RwB97XD) =  -3226.46332980     A.U. after   10 cycles
 SCF Done:  E(RwB97XD) =  -3226.46344224     A.U. after   10 cycles
 SCF Done:  E(RwB97XD) =  -3226.46349289     A.U. after   10 cycles
 SCF Done:  E(RwB97XD) =  -3226.46350485     A.U. after   10 cycles
 SCF Done:  E(RwB97XD) =  -3226.46350712     A.U. after   10 cycles
 SCF Done:  E(RwB97XD) =  -3226.46350753     A.U. after    9 cycles
 SCF Done:  E(RwB97XD) =  -3226.46350710     A.U. after    9 cycles
 SCF Done:  E(RwB97XD) =  -3226.46350756     A.U. after    9 cycles
 Optimization completed.
    -- Stationary point found.
 Normal termination of Gaussian 16 at Fri Mar 26 13:07:50 2021.

 ---------------------------------------------------------------------
 #N Geom=AllCheck Guess=TCheck SCRF=Check GenChk RwB97XD/def2TZVP Freq
 ---------------------------------------------------------------------

 Structure from the checkpoint file:  "/beegfs/scratch/user/q/tla25/Gau-62957.chk"
 ------------------------
 0_iteration/TS-685-0.out
 ------------------------
 Charge =  0 Multiplicity = 1

                         Standard orientation:
 ---------------------------------------------------------------------
 Center     Atomic      Atomic             Coordinates (Angstroms)
 Number     Number       Type             X           Y           Z
 ---------------------------------------------------------------------
      1          6           0        0.171912    0.626506   -0.156395
      2          6           0        0.922946    1.854723   -0.375114
      3          8           0        0.438718    2.982057   -0.560456
      4          6           0       -1.217039    0.621813   -0.076297
      5          6           0       -1.256530    1.336848    2.584023
      6          1           0       -1.220935    0.980275    3.612054
      7          1           0       -0.249610    1.605106    2.258037
      8          1           0       -1.895677    2.213913    2.527573
      9          7           0       -1.761428    0.305711    1.682026
     10          1           0       -1.367538   -0.603175    1.900450
     11          1           0       -2.771350    0.218589    1.720415
     12         35           0       -2.105866   -1.037305   -0.808854
     13          6           0       -2.081000    1.802545   -0.419601
     14          1           0       -1.761985    2.675604    0.142663
     15          1           0       -1.969257    2.036796   -1.476981
     16          1           0       -3.128698    1.586428   -0.217842
     17          6           0        0.935786   -0.640838    0.052755
     18          6           0        1.354331   -1.410053   -1.035054
     19          6           0        2.071628   -2.582146   -0.854377
     20          6           0        2.389177   -3.014225    0.426684
     21          6           0        1.994188   -2.258846    1.519833
     22          6           0        1.282003   -1.081657    1.330462
     23          1           0        1.104837   -1.077877   -2.035652
     24          1           0        2.382162   -3.161950   -1.714817
     25          1           0        2.946784   -3.931163    0.570204
     26          1           0        2.246333   -2.579902    2.522865
     27          1           0        1.009751   -0.484572    2.193281
     28          7           0        2.284305    1.724428   -0.372595
     29          6           0        3.155202    2.838354   -0.651888
     30          1           0        2.690245    0.812675   -0.276815
     31          1           0        3.003624    3.233723   -1.659907
     32          1           0        2.994647    3.654294    0.055207
     33          1           0        4.186450    2.501336   -0.563407
 ---------------------------------------------------------------------

 SCF Done:  E(RwB97XD) =  -3226.46350756     A.U. after    1 cycles

 The electronic state is 1-A.
 Alpha  occ. eigenvalues -- -483.11715 -62.66571 -56.45660 -56.45348 -56.45334
 Alpha  occ. eigenvalues --  -19.18862 -14.49739 -14.43609 -10.39615 -10.36971
 Alpha  occ. eigenvalues --  -10.32050 -10.30256 -10.29863 -10.29009 -10.28946
 Alpha  occ. eigenvalues --  -10.28900 -10.28884 -10.28656 -10.28168 -10.25899
 Alpha  occ. eigenvalues --   -8.80671  -6.62729  -6.61750  -6.61704  -2.73121
 Alpha  occ. eigenvalues --   -2.72859  -2.72822  -2.72029  -2.72028  -1.11697
 Alpha  occ. eigenvalues --   -1.05260  -1.00341  -0.96735  -0.92821  -0.87005
 Alpha  occ. eigenvalues --   -0.84975  -0.83685  -0.81055  -0.79470  -0.77702
 Alpha  occ. eigenvalues --   -0.70338  -0.69625  -0.67853  -0.64492  -0.64083
 Alpha  occ. eigenvalues --   -0.61576  -0.58848  -0.57160  -0.56197  -0.55245
 Alpha  occ. eigenvalues --   -0.53982  -0.53030  -0.52803  -0.52066  -0.50781
 Alpha  occ. eigenvalues --   -0.50070  -0.49615  -0.48423  -0.47554  -0.46873
 Alpha  occ. eigenvalues --   -0.46004  -0.45522  -0.44292  -0.43324  -0.42315
 Alpha  occ. eigenvalues --   -0.42170  -0.37055  -0.36749  -0.34186  -0.33812
 Alpha  occ. eigenvalues --   -0.32496  -0.31647  -0.26769
 Alpha virt. eigenvalues --    0.04547   0.05018   0.05122   0.07673   0.10013
 Alpha virt. eigenvalues --    0.12419   0.13365   0.13758   0.14280   0.15345
 Alpha virt. eigenvalues --    0.15631   0.16505   0.16833   0.18133   0.18192

 Mulliken charges:
               1
     1  C   -0.271235
     2  C    0.360779
     3  O   -0.564489
     4  C    0.118341
     5  C   -0.334953
     6  H    0.169936
     7  H    0.163680
     8  H    0.172071
     9  N   -0.284711
    10  H    0.286855
    11  H    0.293993
    12  Br  -0.191250
    13  C   -0.341014
    14  H    0.152760
    15  H    0.144406
    16  H    0.143543
    17  C    0.144094
    18  C   -0.236399
    19  C   -0.137254
    20  C   -0.131569
    21  C   -0.168851
    22  C   -0.277702
    23  H    0.138067
    24  H    0.140538
    25  H    0.143328
    26  H    0.139993
    27  H    0.171220
    28  N   -0.318099
    29  C   -0.259305
    30  H    0.256894
    31  H    0.118944
    32  H    0.121583
    33  H    0.135807
 Sum of Mulliken charges =   0.00000

 Dipole moment (field-independent basis, Debye):
    X=             -1.1438    Y=             -3.0218    Z=              6.5230  Tot=              7.2793
 Quadrupole moment (field-independent basis, Debye-Ang):
   XX=            -94.6956   YY=           -122.4436   ZZ=            -95.5411
   XY=             -7.8792   XZ=            -10.7095   YZ=              4.6277

  Exact polarizability: 263.631  -3.825 268.994  -4.626   3.345 242.347
 Approx polarizability: 202.867  -6.839 216.371  -2.384   2.769 205.347

 ******    1 imaginary frequencies (negative Signs) ******

                      1                      2                      3
                      A                      A                      A
 Frequencies --   -375.9734                35.7705                40.1048
 Red. masses --      5.7863                 4.2442                 3.4168
 Frc consts  --      0.4819                 0.0032                 0.0032
 IR Inten    --    592.5871                 7.0816                19.8985

                      4                      5                      6
                      A                      A                      A
 Frequencies --     51.3545                65.8755                72.8633
 Red. masses --      4.9936                 5.3387                 2.4279
 Frc consts  --      0.0078                 0.0137                 0.0076
 IR Inten    --     13.2546                 0.6862                 5.8009

                      7                      8                      9
                      A                      A                      A
 Frequencies --     86.6917               126.9730               138.1191
 Red. masses --      3.1068                 2.0141                 2.7158
 Frc consts  --      0.0138                 0.0191                 0.0305
 IR Inten    --      4.6193                 3.5088                 1.5778

                     10                     11                     12
                      A                      A                      A
 Frequencies --    139.7799               165.0676               199.2539
 Red. masses --      2.2730                 3.3817                 1.9675
 Frc consts  --      0.0262                 0.0543                 0.0460
 IR Inten    --      5.4665                 2.9609                17.2817

                     13                     14                     15
                      A                      A                      A
 Frequencies --    207.4198               256.4694               258.8113
 Red. masses --      1.8203                 4.5171                 3.0079
 Frc consts  --      0.0461                 0.1751                 0.1187
 IR Inten    --      9.3331                21.8927                24.4367

                     16                     17                     18
                      A                      A                      A
 Frequencies --    294.5428               304.8678               306.5366
 Red. masses --      2.9195                 3.1690                 1.7658
 Frc consts  --      0.1492                 0.1735                 0.0978
 IR Inten    --      7.2668                28.9237                14.4284

                     19                     20                     21
                      A                      A                      A
 Frequencies --    353.2400               360.9497               380.5189
 Red. masses --      1.4495                 2.0763                 2.2496
 Frc consts  --      0.1066                 0.1594                 0.1919
 IR Inten    --     77.8726                18.2770                 9.4906

                     22                     23                     24
                      A                      A                      A
 Frequencies --    403.0509               425.3502               459.2650
 Red. masses --      3.9233                 2.8707                 3.5082
 Frc consts  --      0.3755                 0.3060                 0.4360
 IR Inten    --     50.9882                 0.1634                30.6988

                     25                     26                     27
                      A                      A                      A
 Frequencies --    535.4025               579.3715               612.5510
 Red. masses --      4.0660                 4.2615                 2.8995
 Frc consts  --      0.6867                 0.8428                 0.6410
 IR Inten    --     22.2781                69.4322               243.5199

                     28                     29                     30
                      A                      A                      A
 Frequencies --    641.1031               677.2323               726.3289
 Red. masses --      6.0461                 5.4818                 1.5690
 Frc consts  --      1.4641                 1.4813                 0.4877
 IR Inten    --      4.8793                 7.6387               210.6349

                     31                     32                     33
                      A                      A                      A
 Frequencies --    731.8178               791.8341               795.5851
 Red. masses --      1.5690                 5.6085                 2.7316
 Frc consts  --      0.4951                 2.0719                 1.0187
 IR Inten    --     25.9692                33.4569                11.3930

                     34                     35                     36
                      A                      A                      A
 Frequencies --    822.9493               881.3495               954.7731
 Red. masses --      3.4211                 1.2460                 1.4607
 Frc consts  --      1.3651                 0.5702                 0.7845
 IR Inten    --     21.7225                 0.0361                10.2419

                     37                     38                     39
                      A                      A                      A
 Frequencies --    978.0617              1006.4348              1014.7486
 Red. masses --      4.3093                 1.4098                 1.4334
 Frc consts  --      2.4288                 0.8413                 0.8696
 IR Inten    --     27.0977                14.0721                 0.5268

                     40                     41                     42
                      A                      A                      A
 Frequencies --   1025.8486              1029.0466              1031.1981
 Red. masses --      2.6804                 1.5796                 1.8794
 Frc consts  --      1.6620                 0.9855                 1.1775
 IR Inten    --     13.4009                 9.0331                12.8961

                     43                     44                     45
                      A                      A                      A
 Frequencies --   1049.9991              1060.7591              1072.7589
 Red. masses --      1.2677                 2.0647                 1.8641
 Frc consts  --      0.8234                 1.3688                 1.2639
 IR Inten    --     10.8385                50.1377               112.0092

                     46                     47                     48
                      A                      A                      A
 Frequencies --   1078.0142              1107.8112              1109.1823
 Red. masses --      2.2217                 1.6963                 1.7572
 Frc consts  --      1.5212                 1.2265                 1.2737
 IR Inten    --     11.3095                99.9403                57.9349

                     49                     50                     51
                      A                      A                      A
 Frequencies --   1156.0495              1170.2027              1181.8452
 Red. masses --      1.2904                 2.4403                 1.1322
 Frc consts  --      1.0161                 1.9688                 0.9318
 IR Inten    --      3.3186                 4.4759                 0.1497

                     52                     53                     54
                      A                      A                      A
 Frequencies --   1186.3989              1205.7748              1230.8888
 Red. masses --      2.3573                 1.1205                 1.3742
 Frc consts  --      1.9549                 0.9598                 1.2267
 IR Inten    --     62.2522                 0.2147                50.1675

                     55                     56                     57
                      A                      A                      A
 Frequencies --   1268.1048              1303.6420              1310.2477
 Red. masses --      2.6345                 4.4176                 4.1546
 Frc consts  --      2.4961                 4.4234                 4.2023
 IR Inten    --     95.3578                49.2009               674.8555

                     58                     59                     60
                      A                      A                      A
 Frequencies --   1337.2247              1354.5157              1414.7838
 Red. masses --      1.3127                 1.4664                 1.3788
 Frc consts  --      1.3830                 1.5851                 1.6261
 IR Inten    --      8.2933                 1.4074               216.3550

                     61                     62                     63
                      A                      A                      A
 Frequencies --   1443.3337              1455.6287              1463.2474
 Red. masses --      1.5381                 1.2347                 1.6439
 Frc consts  --      1.8879                 1.5414                 2.0738
 IR Inten    --    243.8803                63.1656               234.3828

                     64                     65                     66
                      A                      A                      A
 Frequencies --   1471.7088              1473.6962              1485.0577
 Red. masses --      1.0642                 1.0512                 1.9729
 Frc consts  --      1.3580                 1.3451                 2.5636
 IR Inten    --     30.9111                14.1525                13.7599

                     67                     68                     69
                      A                      A                      A
 Frequencies --   1488.3983              1500.0780              1503.2519
 Red. masses --      1.3085                 1.0411                 1.0405
 Frc consts  --      1.7080                 1.3803                 1.3853
 IR Inten    --    133.0039                13.3841                15.8121

                     70                     71                     72
                      A                      A                      A
 Frequencies --   1506.9451              1536.8405              1542.8121
 Red. masses --      1.1271                 1.7761                 2.3664
 Frc consts  --      1.5081                 2.4717                 3.3187
 IR Inten    --     46.7242               540.2638                21.1387

                     73                     74                     75
                      A                      A                      A
 Frequencies --   1642.5727              1644.4881              1651.2613
 Red. masses --      5.6168                 1.1159                 6.0759
 Frc consts  --      8.9287                 1.7781                 9.7609
 IR Inten    --      5.1384               119.2844               669.0122

                     76                     77                     78
                      A                      A                      A
 Frequencies --   1670.9455              3039.6547              3066.9713
 Red. masses --      5.9907                 1.0383                 1.0360
 Frc consts  --      9.8550                 5.6525                 5.7416
 IR Inten    --      3.5297               106.2961                36.5221

                     79                     80                     81
                      A                      A                      A
 Frequencies --   3083.0115              3096.0467              3146.1418
 Red. masses --      1.0365                 1.1013                 1.1015
 Frc consts  --      5.8048                 6.2195                 6.4238
 IR Inten    --     16.8090                52.8889                 6.5930

                     82                     83                     84
                      A                      A                      A
 Frequencies --   3150.9473              3158.9506              3179.1398
 Red. masses --      1.1009                 1.1033                 1.1051
 Frc consts  --      6.4399                 6.4867                 6.5805
 IR Inten    --     27.2177                15.1852                11.6553

                     85                     86                     87
                      A                      A                      A
 Frequencies --   3185.4925              3186.6436              3191.4198
 Red. masses --      1.1012                 1.0874                 1.0873
 Frc consts  --      6.5836                 6.5059                 6.5249
 IR Inten    --      1.9366                10.6854                 1.6755

                     88                     89                     90
                      A                      A                      A
 Frequencies --   3201.3111              3208.7689              3219.9995
 Red. masses --      1.0909                 1.0950                 1.0988
 Frc consts  --      6.5873                 6.6427                 6.7125
 IR Inten    --     11.5205                42.5422                19.3211

                     91                     92                     93
                      A                      A                      A
 Frequencies --   3513.4736              3594.2796              3688.1283
 Red. masses --      1.0512                 1.0967                 1.0778
 Frc consts  --      7.6456                 8.3477                 8.6374
 IR Inten    --     41.8975                70.7881                77.2485

 - Thermochemistry -
 -------------------
 Temperature   298.150 Kelvin.  Pressure   1.00000 Atm.
 Atom     1 has atomic number  6 and mass  12.00000

 Molecular mass:   284.05242 amu.
 Principal axes and moments of inertia in atomic units:
                           1         2         3
     Eigenvalues --  4159.126494725.529526646.18143
           X            0.97960  -0.19566  -0.04592
           Y            0.19545   0.98067  -0.00914
           Z            0.04682  -0.00002   0.99890
 This molecule is an asymmetric top.
 Rotational symmetry number  1.
 Warning -- assumption of classical behavior for rotation
           may cause significant error
 Rotational temperatures (Kelvin)      0.02083     0.01833     0.01303
 Rotational constants (GHZ):           0.43392     0.38191     0.27155
    1 imaginary frequencies ignored.
 Zero-point vibrational energy     723485.7 (Joules/Mol)
                                  172.91723 (Kcal/Mol)
 Warning -- explicit consideration of  26 degrees of freedom as
           vibrations may cause significant error
 Vibrational temperatures:     51.47    57.70    73.89    94.78   104.83
          (Kelvin)            124.73   182.69   198.72   201.11   237.50
                              286.68   298.43   369.00   372.37   423.78
                              438.64   441.04   508.23   519.33   547.48
                              579.90   611.98   660.78   770.32   833.59
                              881.32   922.40   974.39  1045.03  1052.92
                             1139.27  1144.67  1184.04  1268.07  1373.71
                             1407.21  1448.04  1460.00  1475.97  1480.57
                             1483.66  1510.71  1526.20  1543.46  1551.02
                             1593.89  1595.87  1663.30  1683.66  1700.41
                             1706.96  1734.84  1770.97  1824.52  1875.65
                             1885.15  1923.97  1948.85  2035.56  2076.64
                             2094.33  2105.29  2117.46  2120.32  2136.67
                             2141.47  2158.28  2162.84  2168.16  2211.17
                             2219.76  2363.30  2366.05  2375.80  2404.12
                             4373.39  4412.69  4435.77  4454.52  4526.60
                             4533.51  4545.03  4574.07  4583.21  4584.87
                             4591.74  4605.97  4616.70  4632.86  5055.10
                             5171.37  5306.39

 Zero-point correction=                           0.275561 (Hartree/Particle)
 Thermal correction to Energy=                    0.293057
 Thermal correction to Enthalpy=                  0.294001
 Thermal correction to Gibbs Free Energy=         0.228624
 Sum of electronic and zero-point Energies=          -3226.187946
 Sum of electronic and thermal Energies=             -3226.170451
 Sum of electronic and thermal Enthalpies=           -3226.169507
 Sum of electronic and thermal Free Energies=        -3226.234884

                     E (Thermal)             CV                S
                      KCal/Mol        Cal/Mol-Kelvin    Cal/Mol-Kelvin
 Total                  183.896             63.147            137.597
 Electronic               0.000              0.000              0.000
 Translational            0.889              2.981             42.830
 Rotational               0.889              2.981             33.235
 Vibrational            182.118             57.186             61.533
 Vibration     1          0.594              1.982              5.481
 Vibration     2          0.594              1.981              5.254
 Vibration     3          0.596              1.977              4.765
 Vibration     4          0.597              1.971              4.273
 Vibration     5          0.599              1.967              4.074
 Vibration     6          0.601              1.958              3.733
 Vibration     7          0.611              1.926              2.991
 Vibration     8          0.614              1.915              2.830
 Vibration     9          0.615              1.914              2.807
 Vibration    10          0.623              1.885              2.491
 Vibration    11          0.637              1.841              2.140
 Vibration    12          0.641              1.829              2.066
 Vibration    13          0.666              1.752              1.686
 Vibration    14          0.668              1.748              1.670
 Vibration    15          0.689              1.684              1.448
 Vibration    16          0.696              1.664              1.390
 Vibration    17          0.697              1.661              1.381
 Vibration    18          0.729              1.569              1.152
 Vibration    19          0.735              1.553              1.118
 Vibration    20          0.750              1.512              1.037
 Vibration    21          0.768              1.464              0.952
 Vibration    22          0.787              1.415              0.874
 Vibration    23          0.817              1.340              0.768
 Vibration    24          0.890              1.172              0.575
 Vibration    25          0.936              1.076              0.487
 Vibration    26          0.972              1.005              0.429

 Optimization completed.
    -- Stationary point found.
 Normal termination of Gaussian 16 at Fri Mar 26 14:36:53 2021.
