 Gaussian 16, Revision A.03,
 Gaussian 16:  ES64L-G16RevA.03 25-Dec-2016

 ----------------------------------------------------------------------
 # wB97XD def2tzvp, opt=(ts, noeigen, calcfc, maxcycles=70, maxstep=8),
  freq=noraman, scrf=(iefpcm, solvent=water)
 ----------------------------------------------------------------------

 ------------------------
 1_iteration/TS-694-1.out
 ------------------------
 Symbolic Z-matrix:
 Charge =  0 Multiplicity = 1

 SCF Done:  E(RwB97XD) =  -3034.71508508     A.U. after   14 cycles
 SCF Done:  E(RwB97XD) =  -3034.71611125     A.U. after   13 cycles
 SCF Done:  E(RwB97XD) =  -3034.71624541     A.U. after   12 cycles
 SCF Done:  E(RwB97XD) =  -3034.71631464     A.U. after   11 cycles
 SCF Done:  E(RwB97XD) =  -3034.71631935     A.U. after    9 cycles
 SCF Done:  E(RwB97XD) =  -3034.71631994     A.U. after    9 cycles
 SCF Done:  E(RwB97XD) =  -3034.71631989     A.U. after    8 cycles
 SCF Done:  E(RwB97XD) =  -3034.71632000     A.U. after    8 cycles
 Optimization completed.
    -- Stationary point found.
 Normal termination of Gaussian 16 at Fri Feb 19 12:10:17 2021.

 ---------------------------------------------------------------------
 #N Geom=AllCheck Guess=TCheck SCRF=Check GenChk RwB97XD/def2TZVP Freq
 ---------------------------------------------------------------------

 Structure from the checkpoint file:  "/beegfs/scratch/user/q/tla25/Gau-25895.chk"
 ------------------------
 1_iteration/TS-694-1.out
 ------------------------
 Charge =  0 Multiplicity = 1

                         Standard orientation:
 ---------------------------------------------------------------------
 Center     Atomic      Atomic             Coordinates (Angstroms)
 Number     Number       Type             X           Y           Z
 ---------------------------------------------------------------------
      1          6           0       -0.568097   -0.498510    0.021751
      2          6           0       -1.759416    0.292159    0.165438
      3          8           0       -1.724856    1.518493    0.425983
      4          6           0        0.671854    0.043936    0.380116
      5          6           0        2.077485    2.443249   -0.682489
      6          1           0        2.079247    3.157412   -1.507467
      7          1           0        2.011273    2.992399    0.253886
      8          1           0        3.008760    1.877930   -0.700378
      9          7           0        0.950507    1.520409   -0.783691
     10          1           0        0.051761    1.965407   -0.590698
     11          1           0        0.899650    1.080324   -1.694531
     12         35           0        2.165005   -1.107811   -0.100726
     13          6           0        0.924106    0.718778    1.701181
     14          1           0        0.126242    1.434956    1.888429
     15          1           0        0.908347   -0.040420    2.483548
     16          1           0        1.888953    1.221605    1.732100
     17          1           0       -0.584664   -1.374605   -0.606234
     18          7           0       -2.967391   -0.325328   -0.026392
     19          6           0       -3.082094   -1.738499   -0.304880
     20          6           0       -4.168303    0.457170   -0.211525
     21          1           0       -2.383758   -2.309533    0.304940
     22          1           0       -4.092573   -2.063702   -0.056487
     23          1           0       -2.900002   -1.973953   -1.360186
     24          1           0       -3.948914    1.500198   -0.006863
     25          1           0       -4.541185    0.364111   -1.237438
     26          1           0       -4.954475    0.118053    0.467938
 ---------------------------------------------------------------------

 SCF Done:  E(RwB97XD) =  -3034.71632000     A.U. after    1 cycles

 The electronic state is 1-A.
 Alpha  occ. eigenvalues -- -483.12803 -62.67664 -56.46764 -56.46432 -56.46419
 Alpha  occ. eigenvalues --  -19.19178 -14.47833 -14.44670 -10.39437 -10.36771
 Alpha  occ. eigenvalues --  -10.31643 -10.30415 -10.29893 -10.28214 -10.24459
 Alpha  occ. eigenvalues --   -8.81779  -6.63886  -6.62829  -6.62789  -2.74281
 Alpha  occ. eigenvalues --   -2.73981  -2.73950  -2.73094  -2.73094  -1.11693
 Alpha  occ. eigenvalues --   -1.03559  -1.02080  -0.93512  -0.84703  -0.82359
 Alpha  occ. eigenvalues --   -0.80426  -0.79081  -0.76401  -0.66430  -0.62964
 Alpha  occ. eigenvalues --   -0.61077  -0.58475  -0.56912  -0.56033  -0.55204
 Alpha  occ. eigenvalues --   -0.54744  -0.52944  -0.49728  -0.49388  -0.48161
 Alpha  occ. eigenvalues --   -0.47708  -0.47594  -0.46853  -0.45545  -0.44554
 Alpha  occ. eigenvalues --   -0.44419  -0.42287  -0.37347  -0.37031  -0.33173
 Alpha  occ. eigenvalues --   -0.31297  -0.26700
 Alpha virt. eigenvalues --    0.05793   0.06408   0.10542   0.12298   0.13828
 Alpha virt. eigenvalues --    0.15270   0.15512   0.16666   0.17444   0.17695
 Alpha virt. eigenvalues --    0.18408   0.18994   0.19173   0.19686   0.20532

 Mulliken charges:
               1
     1  C   -0.574423
     2  C    0.375649
     3  O   -0.621640
     4  C    0.240359
     5  C   -0.295542
     6  H    0.154734
     7  H    0.160675
     8  H    0.149288
     9  N   -0.310038
    10  H    0.272288
    11  H    0.274830
    12  Br  -0.126522
    13  C   -0.422102
    14  H    0.160406
    15  H    0.146510
    16  H    0.146422
    17  H    0.152207
    18  N   -0.115601
    19  C   -0.303747
    20  C   -0.279218
    21  H    0.145840
    22  H    0.140434
    23  H    0.133687
    24  H    0.142613
    25  H    0.123203
    26  H    0.129685
 Sum of Mulliken charges =  -0.00000

 Dipole moment (field-independent basis, Debye):
    X=              1.6901    Y=              1.2626    Z=             -2.8283  Tot=              3.5285
 Quadrupole moment (field-independent basis, Debye-Ang):
   XX=            -74.9545   YY=            -78.4929   ZZ=            -77.8586
   XY=             14.2938   XZ=              1.7212   YZ=             -3.3638

  Exact polarizability: 230.926  11.279 179.905  -4.925  -0.084 142.389
 Approx polarizability: 164.393   4.033 148.614  -4.258   1.163 121.946

 ******    1 imaginary frequencies (negative Signs) ******

                      1                      2                      3
                      A                      A                      A
 Frequencies --   -395.0230                48.3557                71.5529
 Red. masses --      5.9841                 2.6726                 3.0676
 Frc consts  --      0.5502                 0.0037                 0.0093
 IR Inten    --    929.6185                10.5667                 5.7909

                      4                      5                      6
                      A                      A                      A
 Frequencies --     89.6791               104.7555               118.7791
 Red. masses --      2.9744                 1.8550                 2.0065
 Frc consts  --      0.0141                 0.0120                 0.0167
 IR Inten    --      3.8221                 7.1462                 4.0794

                      7                      8                      9
                      A                      A                      A
 Frequencies --    141.0616               148.9463               182.7761
 Red. masses --      1.5335                 1.4239                 2.7268
 Frc consts  --      0.0180                 0.0186                 0.0537
 IR Inten    --     14.8385                16.6381                12.3953

                     10                     11                     12
                      A                      A                      A
 Frequencies --    208.0190               217.9030               240.1118
 Red. masses --      1.6694                 2.2303                 7.6545
 Frc consts  --      0.0426                 0.0624                 0.2600
 IR Inten    --      0.9858                 1.7159                 1.6554

                     13                     14                     15
                      A                      A                      A
 Frequencies --    248.5626               276.9576               288.3473
 Red. masses --      2.5825                 1.6152                 1.6883
 Frc consts  --      0.0940                 0.0730                 0.0827
 IR Inten    --      7.0168                33.0087                11.0282

                     16                     17                     18
                      A                      A                      A
 Frequencies --    308.5243               390.8766               422.2618
 Red. masses --      2.9881                 3.5980                 2.6491
 Frc consts  --      0.1676                 0.3239                 0.2783
 IR Inten    --      5.0221                27.8194                 2.0807

                     19                     20                     21
                      A                      A                      A
 Frequencies --    459.4615               486.6243               610.0379
 Red. masses --      3.0607                 3.9349                 4.9091
 Frc consts  --      0.3807                 0.5490                 1.0764
 IR Inten    --     76.6021                14.0538                16.5136

                     22                     23                     24
                      A                      A                      A
 Frequencies --    627.1359               669.2603               732.1427
 Red. masses --      1.2289                 2.3822                 1.6085
 Frc consts  --      0.2848                 0.6287                 0.5080
 IR Inten    --    174.1288                20.3171                45.2270

                     25                     26                     27
                      A                      A                      A
 Frequencies --    781.8311               887.6505               944.7306
 Red. masses --      9.0360                 4.7907                 2.6877
 Frc consts  --      3.2543                 2.2240                 1.4134
 IR Inten    --    117.0117                11.7676               167.8486

                     28                     29                     30
                      A                      A                      A
 Frequencies --   1030.2834              1036.9502              1054.4439
 Red. masses --      1.2784                 1.7605                 1.4274
 Frc consts  --      0.7995                 1.1154                 0.9351
 IR Inten    --     17.3326                24.3401                56.2158

                     31                     32                     33
                      A                      A                      A
 Frequencies --   1066.2212              1083.5691              1097.5951
 Red. masses --      1.4800                 1.3979                 2.2678
 Frc consts  --      0.9913                 0.9671                 1.6097
 IR Inten    --    264.9170                 6.4193                50.3083

                     34                     35                     36
                      A                      A                      A
 Frequencies --   1115.5006              1131.4643              1169.3037
 Red. masses --      1.7876                 1.2346                 1.4547
 Frc consts  --      1.3105                 0.9312                 1.1719
 IR Inten    --    337.0249                 3.6255                56.1104

                     37                     38                     39
                      A                      A                      A
 Frequencies --   1198.6632              1221.4722              1311.8805
 Red. masses --      1.8964                 1.4124                 5.3544
 Frc consts  --      1.6053                 1.2415                 5.4293
 IR Inten    --    149.8601                58.8239                26.7654

                     40                     41                     42
                      A                      A                      A
 Frequencies --   1337.9241              1347.2724              1403.8789
 Red. masses --      1.8083                 1.3397                 1.5141
 Frc consts  --      1.9072                 1.4328                 1.7582
 IR Inten    --    230.4306                32.9460                65.6419

                     43                     44                     45
                      A                      A                      A
 Frequencies --   1427.3527              1429.5699              1446.2607
 Red. masses --      2.1158                 1.2402                 1.4220
 Frc consts  --      2.5398                 1.4934                 1.7524
 IR Inten    --     19.8819               160.5211               515.4154

                     46                     47                     48
                      A                      A                      A
 Frequencies --   1459.8838              1471.9378              1482.9034
 Red. masses --      1.2735                 1.2824                 1.0781
 Frc consts  --      1.5992                 1.6370                 1.3968
 IR Inten    --    140.3271               244.2441                94.1840

                     49                     50                     51
                      A                      A                      A
 Frequencies --   1485.1277              1491.4425              1494.1206
 Red. masses --      1.0539                 1.1171                 1.0429
 Frc consts  --      1.3696                 1.4640                 1.3717
 IR Inten    --      3.7584                93.3604                16.1136

                     52                     53                     54
                      A                      A                      A
 Frequencies --   1497.5604              1504.2495              1506.0070
 Red. masses --      1.0673                 1.0341                 1.1461
 Frc consts  --      1.4103                 1.3786                 1.5316
 IR Inten    --     43.6267                16.1640                55.0806

                     55                     56                     57
                      A                      A                      A
 Frequencies --   1533.7319              1595.9744              1653.8880
 Red. masses --      1.4449                 5.4611                 1.0879
 Frc consts  --      2.0025                 8.1956                 1.7532
 IR Inten    --    272.5718               631.8103                44.0513

                     58                     59                     60
                      A                      A                      A
 Frequencies --   3015.2559              3022.9264              3064.1212
 Red. masses --      1.0482                 1.0454                 1.0353
 Frc consts  --      5.6147                 5.6285                 5.7273
 IR Inten    --     77.3394               157.6885                55.7421

                     61                     62                     63
                      A                      A                      A
 Frequencies --   3074.9750              3079.4401              3102.9593
 Red. masses --      1.0354                 1.0985                 1.0866
 Frc consts  --      5.7683                 6.1373                 6.1642
 IR Inten    --     17.6062                73.6322                41.9101

                     64                     65                     66
                      A                      A                      A
 Frequencies --   3138.7714              3145.8886              3151.6769
 Red. masses --      1.1034                 1.1036                 1.1021
 Frc consts  --      6.4045                 6.4348                 6.4497
 IR Inten    --     16.3867                19.8259                16.4754

                     67                     68                     69
                      A                      A                      A
 Frequencies --   3169.6119              3174.9247              3185.3223
 Red. masses --      1.1044                 1.1034                 1.0958
 Frc consts  --      6.5372                 6.5531                 6.5509
 IR Inten    --     15.2733                 2.2889                 4.7072

                     70                     71                     72
                      A                      A                      A
 Frequencies --   3243.7303              3426.2348              3582.2485
 Red. masses --      1.0890                 1.0632                 1.0866
 Frc consts  --      6.7507                 7.3536                 8.2153
 IR Inten    --      0.7433               119.1757                56.0270

 - Thermochemistry -
 -------------------
 Temperature   298.150 Kelvin.  Pressure   1.00000 Atm.
 Atom     1 has atomic number  6 and mass  12.00000

 Molecular mass:   222.03677 amu.
 Principal axes and moments of inertia in atomic units:
                           1         2         3
     Eigenvalues --  1470.082984208.105975111.84986
           X            0.99759   0.06889   0.00801
           Y           -0.06885   0.99761  -0.00620
           Z           -0.00842   0.00564   0.99995
 This molecule is an asymmetric top.
 Rotational symmetry number  1.
 Warning -- assumption of classical behavior for rotation
           may cause significant error
 Rotational temperatures (Kelvin)      0.05892     0.02058     0.01694
 Rotational constants (GHZ):           1.22765     0.42887     0.35305
    1 imaginary frequencies ignored.
 Zero-point vibrational energy     582407.1 (Joules/Mol)
                                  139.19864 (Kcal/Mol)
 Warning -- explicit consideration of  20 degrees of freedom as
           vibrations may cause significant error
 Vibrational temperatures:     69.57   102.95   129.03   150.72   170.90
          (Kelvin)            202.96   214.30   262.97   299.29   313.51
                              345.47   357.63   398.48   414.87   443.90
                              562.38   607.54   661.06   700.14   877.71
                              902.31   962.92  1053.39  1124.88  1277.13
                             1359.26  1482.35  1491.94  1517.11  1534.05
                             1559.01  1579.19  1604.96  1627.92  1682.37
                             1724.61  1757.43  1887.50  1924.97  1938.42
                             2019.87  2053.64  2056.83  2080.85  2100.45
                             2117.79  2133.57  2136.77  2145.85  2149.71
                             2154.66  2164.28  2166.81  2206.70  2296.25
                             2379.58  4338.28  4349.32  4408.59  4424.20
                             4430.63  4464.47  4515.99  4526.23  4534.56
                             4560.36  4568.01  4582.97  4667.00  4929.59
                             5154.06

 Zero-point correction=                           0.221827 (Hartree/Particle)
 Thermal correction to Energy=                    0.235918
 Thermal correction to Enthalpy=                  0.236862
 Thermal correction to Gibbs Free Energy=         0.180294
 Sum of electronic and zero-point Energies=          -3034.494493
 Sum of electronic and thermal Energies=             -3034.480402
 Sum of electronic and thermal Enthalpies=           -3034.479458
 Sum of electronic and thermal Free Energies=        -3034.536026

                     E (Thermal)             CV                S
                      KCal/Mol        Cal/Mol-Kelvin    Cal/Mol-Kelvin
 Total                  148.041             49.182            119.058
 Electronic               0.000              0.000              0.000
 Translational            0.889              2.981             42.096
 Rotational               0.889              2.981             31.825
 Vibrational            146.263             43.221             45.137
 Vibration     1          0.595              1.978              4.884
 Vibration     2          0.598              1.968              4.110
 Vibration     3          0.602              1.956              3.667
 Vibration     4          0.605              1.945              3.364
 Vibration     5          0.609              1.934              3.120
 Vibration     6          0.615              1.912              2.789
 Vibration     7          0.618              1.904              2.686
 Vibration     8          0.630              1.863              2.300
 Vibration     9          0.641              1.828              2.061
 Vibration    10          0.646              1.814              1.976
 Vibration    11          0.657              1.779              1.802
 Vibration    12          0.662              1.765              1.741
 Vibration    13          0.678              1.716              1.552
 Vibration    14          0.685              1.695              1.484
 Vibration    15          0.698              1.657              1.370
 Vibration    16          0.759              1.490              0.997
 Vibration    17          0.785              1.422              0.884
 Vibration    18          0.817              1.340              0.768
 Vibration    19          0.843              1.280              0.692
 Vibration    20          0.969              1.011              0.433

 Optimization completed.
    -- Stationary point found.
 Normal termination of Gaussian 16 at Fri Feb 19 12:35:19 2021.
