 Gaussian 16, Revision A.03,
 Gaussian 16:  ES64L-G16RevA.03 25-Dec-2016

 ----------------------------------------------------------------------
 # wB97XD def2tzvp, opt=(ts, noeigen, calcfc, maxcycles=70, maxstep=3),
  freq=noraman, scrf=(iefpcm, solvent=water)
 ----------------------------------------------------------------------

 ------------------------
 0_iteration/TS-668-0.out
 ------------------------
 Symbolic Z-matrix:
 Charge =  0 Multiplicity = 1

 SCF Done:  E(RwB97XD) =  -5549.57238201     A.U. after   15 cycles
 SCF Done:  E(RwB97XD) =  -5549.57217537     A.U. after   11 cycles
 SCF Done:  E(RwB97XD) =  -5549.57200204     A.U. after   11 cycles
 SCF Done:  E(RwB97XD) =  -5549.57187077     A.U. after   11 cycles
 SCF Done:  E(RwB97XD) =  -5549.57178714     A.U. after   11 cycles
 SCF Done:  E(RwB97XD) =  -5549.57175754     A.U. after   11 cycles
 SCF Done:  E(RwB97XD) =  -5549.57181831     A.U. after   11 cycles
 SCF Done:  E(RwB97XD) =  -5549.57197035     A.U. after   11 cycles
 SCF Done:  E(RwB97XD) =  -5549.57216365     A.U. after   11 cycles
 SCF Done:  E(RwB97XD) =  -5549.57238096     A.U. after   11 cycles
 SCF Done:  E(RwB97XD) =  -5549.57258316     A.U. after   11 cycles
 SCF Done:  E(RwB97XD) =  -5549.57276900     A.U. after   11 cycles
 SCF Done:  E(RwB97XD) =  -5549.57291370     A.U. after   11 cycles
 SCF Done:  E(RwB97XD) =  -5549.57301992     A.U. after   10 cycles
 SCF Done:  E(RwB97XD) =  -5549.57309131     A.U. after   10 cycles
 SCF Done:  E(RwB97XD) =  -5549.57310874     A.U. after   11 cycles
 SCF Done:  E(RwB97XD) =  -5549.57310968     A.U. after    9 cycles
 SCF Done:  E(RwB97XD) =  -5549.57310988     A.U. after    7 cycles
 SCF Done:  E(RwB97XD) =  -5549.57310993     A.U. after    6 cycles
 Optimization completed.
    -- Stationary point found.
 Normal termination of Gaussian 16 at Tue Apr 13 13:50:58 2021.

 ---------------------------------------------------------------------
 #N Geom=AllCheck Guess=TCheck SCRF=Check GenChk RwB97XD/def2TZVP Freq
 ---------------------------------------------------------------------

 Structure from the checkpoint file:  "/beegfs/scratch/user/q/tla25/Gau-166214.chk"
 ------------------------
 0_iteration/TS-668-0.out
 ------------------------
 Charge =  0 Multiplicity = 1

                         Standard orientation:
 ---------------------------------------------------------------------
 Center     Atomic      Atomic             Coordinates (Angstroms)
 Number     Number       Type             X           Y           Z
 ---------------------------------------------------------------------
      1          6           0        0.573497    0.042088   -0.173592
      2          6           0        1.723905    0.886840   -0.386142
      3          8           0        1.651879    2.059055   -0.724564
      4          6           0       -0.669000    0.602952   -0.356609
      5          6           0       -2.399400    2.439378    1.135868
      6          1           0       -2.603041    2.971526    2.065936
      7          1           0       -2.157336    3.163418    0.358899
      8          1           0       -3.289893    1.888116    0.840177
      9          7           0       -1.284806    1.506631    1.279228
     10          1           0       -0.435263    1.979654    1.564646
     11          1           0       -1.481105    0.778659    1.956593
     12         35           0       -2.200605   -0.472335   -0.729249
     13          1           0       -0.689674    1.521738   -0.925397
     14         35           0        0.782453   -1.685353    0.583245
     15          8           0        2.900671    0.274367   -0.190984
     16          6           0        4.065309    1.068692   -0.395248
     17          1           0        4.907263    0.416184   -0.180583
     18          1           0        4.118370    1.421442   -1.425046
     19          1           0        4.073383    1.924832    0.279034
 ---------------------------------------------------------------------

 SCF Done:  E(RwB97XD) =  -5549.57310993     A.U. after    1 cycles

 The electronic state is 1-A.
 Alpha  occ. eigenvalues -- -483.14017-483.12702 -62.68872 -62.67535 -56.47991
 Alpha  occ. eigenvalues --  -56.47635 -56.47615 -56.46649 -56.46296 -56.46292
 Alpha  occ. eigenvalues --  -19.29224 -19.22337 -14.48331 -10.41209 -10.39075
 Alpha  occ. eigenvalues --  -10.33066 -10.31892 -10.31722  -8.82994  -8.81653
 Alpha  occ. eigenvalues --   -6.65164  -6.64023  -6.63959  -6.63801  -6.62666
 Alpha  occ. eigenvalues --   -6.62655  -2.75554  -2.75229  -2.75179  -2.74256
 Alpha  occ. eigenvalues --   -2.74255  -2.74194  -2.73857  -2.73848  -2.72930
 Alpha  occ. eigenvalues --   -2.72930  -1.20819  -1.11114  -1.03784  -0.95322
 Alpha  occ. eigenvalues --   -0.89772  -0.83871  -0.81809  -0.78782  -0.70838
 Alpha  occ. eigenvalues --   -0.64189  -0.63360  -0.60968  -0.57646  -0.56835
 Alpha  occ. eigenvalues --   -0.56178  -0.54132  -0.52203  -0.50117  -0.49115
 Alpha  occ. eigenvalues --   -0.48151  -0.46629  -0.45613  -0.44097  -0.40253
 Alpha  occ. eigenvalues --   -0.39450  -0.38804  -0.37701  -0.36792  -0.35393
 Alpha  occ. eigenvalues --   -0.28260
 Alpha virt. eigenvalues --    0.03520   0.05526   0.09377   0.10933   0.13514
 Alpha virt. eigenvalues --    0.14362   0.15405   0.16100   0.16649   0.17727
 Alpha virt. eigenvalues --    0.19139   0.19673   0.20046   0.20864   0.21565

 Mulliken charges:
               1
     1  C   -0.225182
     2  C    0.434930
     3  O   -0.497018
     4  C   -0.046965
     5  C   -0.270855
     6  H    0.153578
     7  H    0.151451
     8  H    0.150495
     9  N   -0.355903
    10  H    0.283291
    11  H    0.285797
    12  Br  -0.056287
    13  H    0.190696
    14  Br  -0.115660
    15  O   -0.295212
    16  C   -0.193658
    17  H    0.142519
    18  H    0.132461
    19  H    0.131521
 Sum of Mulliken charges =  -0.00000

 Dipole moment (field-independent basis, Debye):
    X=             -3.2683    Y=              3.7481    Z=              4.0593  Tot=              6.4193
 Quadrupole moment (field-independent basis, Debye-Ang):
   XX=            -72.8444   YY=            -85.1278   ZZ=            -80.0307
   XY=             -6.1062   XZ=             -4.6150   YZ=              7.8338

  Exact polarizability: 204.950  -6.745 167.339  -7.295   1.347 129.095
 Approx polarizability: 150.245  -2.650 141.412  -3.124  -2.001 113.131

 ******    1 imaginary frequencies (negative Signs) ******

                      1                      2                      3
                      A                      A                      A
 Frequencies --   -352.0883                38.5366                57.7445
 Red. masses --      6.5979                 4.5535                 3.1363
 Frc consts  --      0.4819                 0.0040                 0.0062
 IR Inten    --    892.8750                 1.8553                 3.2243

                      4                      5                      6
                      A                      A                      A
 Frequencies --     66.8169                93.7532               112.0550
 Red. masses --      2.7181                 4.8135                 6.9130
 Frc consts  --      0.0071                 0.0249                 0.0511
 IR Inten    --      6.2715                 6.2781                 1.4582

                      7                      8                      9
                      A                      A                      A
 Frequencies --    126.7963               148.4496               166.7956
 Red. masses --      4.7826                 2.7347                 1.4486
 Frc consts  --      0.0453                 0.0355                 0.0237
 IR Inten    --      1.6579                 2.5558                 1.1471

                     10                     11                     12
                      A                      A                      A
 Frequencies --    175.8874               187.0509               253.9667
 Red. masses --      1.4431                 3.2393                 3.9948
 Frc consts  --      0.0263                 0.0668                 0.1518
 IR Inten    --      5.4065                16.4833                13.6340

                     13                     14                     15
                      A                      A                      A
 Frequencies --    288.1898               313.1313               408.1641
 Red. masses --      4.5318                 4.6569                11.3160
 Frc consts  --      0.2218                 0.2690                 1.1107
 IR Inten    --      5.6590                22.9206                25.9472

                     16                     17                     18
                      A                      A                      A
 Frequencies --    438.5861               577.8564               629.5318
 Red. masses --      7.4386                 2.6394                 2.4181
 Frc consts  --      0.8430                 0.5193                 0.5646
 IR Inten    --    143.7730                 3.3338                15.6428

                     19                     20                     21
                      A                      A                      A
 Frequencies --    719.0078               784.2887               799.5288
 Red. masses --      3.3957                10.7604                 4.1265
 Frc consts  --      1.0343                 3.8997                 1.5542
 IR Inten    --     98.0690                58.3402               107.0967

                     22                     23                     24
                      A                      A                      A
 Frequencies --    979.0865              1000.6759              1028.7308
 Red. masses --      4.0551                 1.1077                 1.1025
 Frc consts  --      2.2903                 0.6535                 0.6874
 IR Inten    --      9.1728                13.8293               111.5224

                     25                     26                     27
                      A                      A                      A
 Frequencies --   1071.8299              1104.9238              1124.5491
 Red. masses --      4.8051                 5.8597                 1.1481
 Frc consts  --      3.2524                 4.2150                 0.8555
 IR Inten    --    153.7920               226.3310                40.4244

                     28                     29                     30
                      A                      A                      A
 Frequencies --   1183.2264              1214.0981              1218.6945
 Red. masses --      1.2812                 1.3663                 1.4203
 Frc consts  --      1.0568                 1.1866                 1.2429
 IR Inten    --      1.6520                14.9672                36.6896

                     31                     32                     33
                      A                      A                      A
 Frequencies --   1225.9157              1315.3801              1344.0820
 Red. masses --      1.4498                 6.4152                 1.3298
 Frc consts  --      1.2838                 6.5397                 1.4154
 IR Inten    --    111.1442              1064.3790                17.6122

                     34                     35                     36
                      A                      A                      A
 Frequencies --   1433.6307              1465.9939              1481.0839
 Red. masses --      4.6347                 1.2806                 1.1805
 Frc consts  --      5.6123                 1.6216                 1.5257
 IR Inten    --    836.6029                81.7387                87.6303

                     37                     38                     39
                      A                      A                      A
 Frequencies --   1483.0975              1491.0264              1495.7203
 Red. masses --      1.0693                 1.0402                 1.0743
 Frc consts  --      1.3857                 1.3625                 1.4160
 IR Inten    --     30.2927                16.2980                14.3800

                     40                     41                     42
                      A                      A                      A
 Frequencies --   1506.3040              1640.9536              1693.3785
 Red. masses --      1.0325                 1.0922                10.6263
 Frc consts  --      1.3802                 1.7329                17.9531
 IR Inten    --     10.5411                44.3333               529.1847

                     43                     44                     45
                      A                      A                      A
 Frequencies --   3066.1935              3066.5453              3143.1257
 Red. masses --      1.0313                 1.0333                 1.1044
 Frc consts  --      5.7129                 5.7253                 6.4284
 IR Inten    --     68.6203                36.2869                15.7406

                     46                     47                     48
                      A                      A                      A
 Frequencies --   3144.2633              3165.3020              3177.8617
 Red. masses --      1.1070                 1.1053                 1.1057
 Frc consts  --      6.4484                 6.5245                 6.5792
 IR Inten    --     33.5728                13.1698                22.3211

                     49                     50                     51
                      A                      A                      A
 Frequencies --   3225.9198              3524.5927              3609.4307
 Red. masses --      1.0903                 1.0504                 1.0967
 Frc consts  --      6.6851                 7.6883                 8.4185
 IR Inten    --      3.8474                26.9569                47.9963

 - Thermochemistry -
 -------------------
 Temperature   298.150 Kelvin.  Pressure   1.00000 Atm.
 Atom     1 has atomic number  6 and mass  12.00000

 Molecular mass:   272.90000 amu.
 Principal axes and moments of inertia in atomic units:
                           1         2         3
     Eigenvalues --  2167.904194149.756695361.65966
           X            0.99920  -0.00323  -0.03977
           Y            0.00522   0.99873   0.05011
           Z            0.03956  -0.05027   0.99795
 This molecule is an asymmetric top.
 Rotational symmetry number  1.
 Warning -- assumption of classical behavior for rotation
           may cause significant error
 Rotational temperatures (Kelvin)      0.03995     0.02087     0.01615
 Rotational constants (GHZ):           0.83248     0.43490     0.33660
    1 imaginary frequencies ignored.
 Zero-point vibrational energy     376894.0 (Joules/Mol)
                                   90.07982 (Kcal/Mol)
 Warning -- explicit consideration of  16 degrees of freedom as
           vibrations may cause significant error
 Vibrational temperatures:     55.45    83.08    96.13   134.89   161.22
          (Kelvin)            182.43   213.59   239.98   253.06   269.12
                              365.40   414.64   450.53   587.26   631.03
                              831.41   905.76  1034.49  1128.42  1150.34
                             1408.69  1439.75  1480.11  1542.12  1589.74
                             1617.98  1702.40  1746.82  1753.43  1763.82
                             1892.54  1933.83  2062.67  2109.24  2130.95
                             2133.85  2145.25  2152.01  2167.24  2360.97
                             2436.39  4411.57  4412.07  4522.26  4523.89
                             4554.16  4572.23  4641.38  5071.10  5193.17

 Zero-point correction=                           0.143551 (Hartree/Particle)
 Thermal correction to Energy=                    0.156237
 Thermal correction to Enthalpy=                  0.157181
 Thermal correction to Gibbs Free Energy=         0.101429
 Sum of electronic and zero-point Energies=          -5549.429559
 Sum of electronic and thermal Energies=             -5549.416873
 Sum of electronic and thermal Enthalpies=           -5549.415929
 Sum of electronic and thermal Free Energies=        -5549.471681

                     E (Thermal)             CV                S
                      KCal/Mol        Cal/Mol-Kelvin    Cal/Mol-Kelvin
 Total                   98.040             41.009            117.341
 Electronic               0.000              0.000              0.000
 Translational            0.889              2.981             42.711
 Rotational               0.889              2.981             32.245
 Vibrational             96.263             35.047             42.385
 Vibration     1          0.594              1.981              5.333
 Vibration     2          0.596              1.974              4.533
 Vibration     3          0.598              1.970              4.245
 Vibration     4          0.603              1.954              3.580
 Vibration     5          0.607              1.939              3.233
 Vibration     6          0.611              1.926              2.994
 Vibration     7          0.618              1.904              2.692
 Vibration     8          0.624              1.883              2.471
 Vibration     9          0.628              1.872              2.372
 Vibration    10          0.632              1.858              2.257
 Vibration    11          0.665              1.756              1.703
 Vibration    12          0.685              1.696              1.485
 Vibration    13          0.701              1.649              1.346
 Vibration    14          0.773              1.452              0.933
 Vibration    15          0.799              1.386              0.831
 Vibration    16          0.934              1.079              0.489

 Optimization completed.
    -- Stationary point found.
 Normal termination of Gaussian 16 at Tue Apr 13 13:57:13 2021.
