 Gaussian 16, Revision C.01,
 Gaussian 16:  ES64L-G16RevC.01  3-Jul-2019

 ----------------------------------------------------------------------
 # wb97xd def2tzvp opt=(ts, noeigen, calcfc, maxcycles=100, maxstep=1)
 freq=noraman scrf=(iefpcm, solvent=water)
 ----------------------------------------------------------------------

 -----------
 TS-64-3.out
 -----------
 Symbolic Z-matrix:
 Charge =  0 Multiplicity = 1

 SCF Done:  E(RwB97XD) =  -789.214084484     A.U. after   15 cycles
 SCF Done:  E(RwB97XD) =  -789.214122032     A.U. after   11 cycles
 SCF Done:  E(RwB97XD) =  -789.214146063     A.U. after   11 cycles
 SCF Done:  E(RwB97XD) =  -789.214158882     A.U. after   11 cycles
 SCF Done:  E(RwB97XD) =  -789.214162247     A.U. after   10 cycles
 SCF Done:  E(RwB97XD) =  -789.214162489     A.U. after    7 cycles
 Optimization completed.
    -- Stationary point found.
 Normal termination of Gaussian 16 at Sat Jun 11 15:05:59 2022.

 ---------------------------------------------------------------------
 #N Geom=AllCheck Guess=TCheck SCRF=Check GenChk RwB97XD/def2TZVP Freq
 ---------------------------------------------------------------------

 Structure from the checkpoint file:  "/local/jobs/108100/Gau-3507857.chk"
 -----------
 TS-64-3.out
 -----------
 Charge =  0 Multiplicity = 1

                         Standard orientation:
 ---------------------------------------------------------------------
 Center     Atomic      Atomic             Coordinates (Angstroms)
 Number     Number       Type             X           Y           Z
 ---------------------------------------------------------------------
      1          6           0       -0.039583    1.488721   -0.218107
      2          6           0       -1.436858    1.614522   -0.411738
      3          8           0       -2.025780    2.690662   -0.638106
      4          6           0        0.499804    0.231146    0.129558
      5          6           0        0.818764   -1.328474    2.500130
      6          1           0        0.655573   -1.431573    3.572998
      7          1           0        0.231485   -2.080699    1.974794
      8          1           0        1.872527   -1.488249    2.280236
      9          7           0        0.427307   -0.005291    2.018379
     10          1           0       -0.547316    0.192064    2.215666
     11          1           0        0.979635    0.730304    2.443535
     12          6           0        1.916851   -0.140407   -0.145395
     13          6           0        3.007280    0.564491    0.360155
     14          6           0        4.302165    0.169141    0.064055
     15          6           0        4.528938   -0.933377   -0.748045
     16          6           0        3.451348   -1.645164   -1.253328
     17          6           0        2.156818   -1.255055   -0.945276
     18          1           0        2.851353    1.423076    1.000242
     19          1           0        5.137712    0.725111    0.470035
     20          1           0        5.541165   -1.239204   -0.979886
     21          1           0        3.616969   -2.511528   -1.881022
     22          1           0        1.318048   -1.821742   -1.332703
     23          1           0       -0.162766   -0.607604   -0.046047
     24          6           0        0.801557    2.735039   -0.283413
     25          1           0        1.099083    3.101413    0.706121
     26          1           0        1.718898    2.583402   -0.856889
     27          1           0        0.230256    3.530621   -0.759632
     28          6           0       -2.311719    0.382569   -0.349799
     29          6           0       -2.347450   -0.532679   -1.397356
     30          6           0       -3.197008   -1.628639   -1.347393
     31          6           0       -4.015688   -1.826303   -0.244207
     32          6           0       -3.986952   -0.917087    0.804102
     33          6           0       -3.144811    0.184259    0.746957
     34          1           0       -1.699462   -0.387914   -2.253985
     35          1           0       -3.216936   -2.331924   -2.170678
     36          1           0       -4.674132   -2.684676   -0.202085
     37          1           0       -4.623095   -1.064492    1.668022
     38          1           0       -3.134638    0.899130    1.562073
 ---------------------------------------------------------------------

 SCF Done:  E(RwB97XD) =  -789.214162489     A.U. after    1 cycles

 The electronic state is 1-A.
 Alpha  occ. eigenvalues --  -19.19480 -14.48610 -10.34130 -10.33960 -10.31891
 Alpha  occ. eigenvalues --  -10.30568 -10.29480 -10.29454 -10.29445 -10.29363
 Alpha  occ. eigenvalues --  -10.29319 -10.29251 -10.29090 -10.29069 -10.29013
 Alpha  occ. eigenvalues --  -10.28960 -10.28875 -10.26258 -10.25606  -1.09873
 Alpha  occ. eigenvalues --   -1.04108  -0.97388  -0.96519  -0.90964  -0.86414
 Alpha  occ. eigenvalues --   -0.85621  -0.85111  -0.84662  -0.79501  -0.78121
 Alpha  occ. eigenvalues --   -0.74471  -0.70979  -0.70430  -0.69879  -0.67447
 Alpha  occ. eigenvalues --   -0.63685  -0.62948  -0.60624  -0.59399  -0.56860
 Alpha  occ. eigenvalues --   -0.56525  -0.55551  -0.55040  -0.54525  -0.53010
 Alpha  occ. eigenvalues --   -0.52481  -0.51856  -0.51267  -0.50956  -0.49257
 Alpha  occ. eigenvalues --   -0.48711  -0.48279  -0.47336  -0.46445  -0.45816
 Alpha  occ. eigenvalues --   -0.44662  -0.44311  -0.43469  -0.43264  -0.42776
 Alpha  occ. eigenvalues --   -0.42080  -0.41808  -0.34236  -0.34131  -0.33860
 Alpha  occ. eigenvalues --   -0.33506  -0.30876  -0.26358
 Alpha virt. eigenvalues --    0.02508   0.04863   0.05062   0.05265   0.08109
 Alpha virt. eigenvalues --    0.09659   0.12301   0.12914   0.12979   0.14314
 Alpha virt. eigenvalues --    0.14912   0.15305   0.16260   0.16495   0.17387

 Mulliken charges:
               1
     1  C   -0.146472
     2  C    0.186320
     3  O   -0.545809
     4  C   -0.176368
     5  C   -0.284072
     6  H    0.157973
     7  H    0.151998
     8  H    0.159055
     9  N   -0.287782
    10  H    0.268611
    11  H    0.280417
    12  C    0.278471
    13  C   -0.316235
    14  C   -0.125841
    15  C   -0.148337
    16  C   -0.143886
    17  C   -0.222703
    18  H    0.168335
    19  H    0.144926
    20  H    0.145939
    21  H    0.144089
    22  H    0.145466
    23  H    0.194264
    24  C   -0.417873
    25  H    0.118464
    26  H    0.136317
    27  H    0.127704
    28  C    0.228693
    29  C   -0.251692
    30  C   -0.128754
    31  C   -0.152506
    32  C   -0.142256
    33  C   -0.274228
    34  H    0.143238
    35  H    0.143011
    36  H    0.144138
    37  H    0.142807
    38  H    0.154575
 Sum of Mulliken charges =  -0.00000

 Dipole moment (field-independent basis, Debye):
    X=              6.0601    Y=             -7.9721    Z=              6.9577  Tot=             12.1938
 Quadrupole moment (field-independent basis, Debye-Ang):
   XX=           -112.2973   YY=           -126.4777   ZZ=            -98.4127
   XY=             16.8276   XZ=             -3.7629   YZ=             10.4152

  Exact polarizability:     342.311      -5.500     295.827      -2.213      14.015     258.999
 Approx polarizability:     255.650      -0.861     243.520      -4.487      16.110     220.150

 ******    1 imaginary frequencies (negative Signs) ******

                      1                      2                      3
                      A                      A                      A
 Frequencies --   -362.9701                27.9266                34.8916
 Red. masses --      6.3942                 4.0515                 2.7830
 Frc consts  --      0.4963                 0.0019                 0.0020
 IR Inten    --   1024.1726                 1.3834                 0.5960

                      4                      5                      6
                      A                      A                      A
 Frequencies --     39.1458                49.9515                62.3255
 Red. masses --      3.3735                 4.1145                 4.0289
 Frc consts  --      0.0030                 0.0060                 0.0092
 IR Inten    --      0.5555                 3.5199                 4.3858

                      7                      8                      9
                      A                      A                      A
 Frequencies --     69.5326               102.3811               131.7366
 Red. masses --      4.1106                 3.5156                 3.0380
 Frc consts  --      0.0117                 0.0217                 0.0311
 IR Inten    --      3.4501                 8.8609                 3.7492

                     10                     11                     12
                      A                      A                      A
 Frequencies --    148.4783               183.0885               195.9932
 Red. masses --      1.8491                 1.3023                 1.8102
 Frc consts  --      0.0240                 0.0257                 0.0410
 IR Inten    --      2.4694                 0.8264                 1.4508

                     13                     14                     15
                      A                      A                      A
 Frequencies --    212.5958               228.6950               256.2178
 Red. masses --      2.9302                 3.5615                 3.2978
 Frc consts  --      0.0780                 0.1097                 0.1276
 IR Inten    --      4.5213                 3.3449                19.6069

                     16                     17                     18
                      A                      A                      A
 Frequencies --    290.0707               335.7009               348.0108
 Red. masses --      3.4648                 4.2270                 3.7700
 Frc consts  --      0.1718                 0.2807                 0.2690
 IR Inten    --      6.8458                 2.5032                10.0972

                     19                     20                     21
                      A                      A                      A
 Frequencies --    361.3276               387.5273               416.8061
 Red. masses --      4.1966                 5.1011                 2.8872
 Frc consts  --      0.3228                 0.4514                 0.2955
 IR Inten    --     16.3671                17.2751                 0.4007

                     22                     23                     24
                      A                      A                      A
 Frequencies --    422.7757               476.3112               563.2028
 Red. masses --      2.8678                 4.4342                 2.6758
 Frc consts  --      0.3020                 0.5927                 0.5001
 IR Inten    --      2.1781                67.1655               187.4286

                     25                     26                     27
                      A                      A                      A
 Frequencies --    577.5872               616.0942               635.8353
 Red. masses --      3.2684                 2.7607                 6.3462
 Frc consts  --      0.6424                 0.6174                 1.5117
 IR Inten    --      1.7970                12.9371                 0.3089

                     28                     29                     30
                      A                      A                      A
 Frequencies --    635.9832               657.5136               693.9904
 Red. masses --      6.0844                 3.0283                 3.2205
 Frc consts  --      1.4500                 0.7714                 0.9139
 IR Inten    --     11.1937                98.1061                19.9897

                     31                     32                     33
                      A                      A                      A
 Frequencies --    727.3792               730.4873               774.3388
 Red. masses --      1.5294                 1.5299                 4.3144
 Frc consts  --      0.4768                 0.4810                 1.5242
 IR Inten    --     98.8002                85.0040                 7.1087

                     34                     35                     36
                      A                      A                      A
 Frequencies --    774.7784               808.1325               813.4798
 Red. masses --      3.1048                 2.2738                 2.8994
 Frc consts  --      1.0981                 0.8749                 1.1305
 IR Inten    --     47.9153                38.9769                38.8616

                     37                     38                     39
                      A                      A                      A
 Frequencies --    866.4552               878.5203               882.1598
 Red. masses --      3.9544                 1.2482                 1.2454
 Frc consts  --      1.7492                 0.5676                 0.5710
 IR Inten    --     16.9676                 0.2721                 0.1799

                     40                     41                     42
                      A                      A                      A
 Frequencies --    930.4642               960.6921               964.7990
 Red. masses --      2.5111                 1.4402                 1.6396
 Frc consts  --      1.2809                 0.7831                 0.8992
 IR Inten    --     14.4903                14.3513                53.1342

                     43                     44                     45
                      A                      A                      A
 Frequencies --   1008.1277              1011.8391              1014.6115
 Red. masses --      1.1293                 1.3643                 1.3789
 Frc consts  --      0.6763                 0.8230                 0.8363
 IR Inten    --     12.0886                 0.6993                 3.2059

                     46                     47                     48
                      A                      A                      A
 Frequencies --   1025.1262              1026.9984              1028.5304
 Red. masses --      5.8383                 5.8025                 1.4307
 Frc consts  --      3.6148                 3.6058                 0.8917
 IR Inten    --      6.3479                 0.3531                55.8719

                     49                     50                     51
                      A                      A                      A
 Frequencies --   1030.9442              1033.3479              1042.9318
 Red. masses --      1.5475                 1.5084                 1.1820
 Frc consts  --      0.9691                 0.9490                 0.7575
 IR Inten    --     67.0211                59.1687               109.2165

                     52                     53                     54
                      A                      A                      A
 Frequencies --   1060.5113              1063.3544              1065.5000
 Red. masses --      1.7597                 2.0604                 2.0280
 Frc consts  --      1.1660                 1.3726                 1.3565
 IR Inten    --     52.7952                14.4124                 0.0542

                     55                     56                     57
                      A                      A                      A
 Frequencies --   1079.3312              1109.0964              1118.2278
 Red. masses --      2.6480                 1.5523                 1.5837
 Frc consts  --      1.8175                 1.1250                 1.1667
 IR Inten    --    119.8054                12.7627                20.7568

                     58                     59                     60
                      A                      A                      A
 Frequencies --   1182.2359              1184.9781              1191.7402
 Red. masses --      1.1370                 1.1428                 1.1462
 Frc consts  --      0.9363                 0.9455                 0.9591
 IR Inten    --      0.0230                 1.2590                85.2289

                     61                     62                     63
                      A                      A                      A
 Frequencies --   1203.4413              1206.2746              1214.3259
 Red. masses --      2.4298                 1.1801                 1.1294
 Frc consts  --      2.0733                 1.0117                 0.9812
 IR Inten    --      4.3865                 0.4305                 0.7144

                     64                     65                     66
                      A                      A                      A
 Frequencies --   1225.8800              1251.6462              1303.7341
 Red. masses --      1.4753                 2.3907                 2.4247
 Frc consts  --      1.3062                 2.2067                 2.4282
 IR Inten    --     45.5631                16.6315                64.5180

                     67                     68                     69
                      A                      A                      A
 Frequencies --   1317.4371              1340.9148              1345.7129
 Red. masses --      4.4013                 1.8863                 1.8229
 Frc consts  --      4.5008                 1.9984                 1.9449
 IR Inten    --      3.7459                83.6104                68.8068

                     70                     71                     72
                      A                      A                      A
 Frequencies --   1358.2667              1368.5708              1396.6285
 Red. masses --      1.4536                 1.3864                 1.3077
 Frc consts  --      1.5800                 1.5299                 1.5028
 IR Inten    --      1.1921                80.1465                39.3221

                     73                     74                     75
                      A                      A                      A
 Frequencies --   1434.5904              1455.8249              1467.3829
 Red. masses --      5.0808                 1.6114                 1.4076
 Frc consts  --      6.1608                 2.0122                 1.7858
 IR Inten    --     79.2514               371.0026               144.8191

                     76                     77                     78
                      A                      A                      A
 Frequencies --   1485.6883              1488.3847              1491.3800
 Red. masses --      1.8345                 1.2571                 1.0413
 Frc consts  --      2.3857                 1.6408                 1.3646
 IR Inten    --     26.3898                50.9988                18.9110

                     79                     80                     81
                      A                      A                      A
 Frequencies --   1499.5132              1504.9795              1514.9451
 Red. masses --      1.3151                 1.0532                 1.7622
 Frc consts  --      1.7423                 1.4055                 2.3828
 IR Inten    --     13.2521                29.2304               354.4545

                     82                     83                     84
                      A                      A                      A
 Frequencies --   1540.1803              1549.5535              1586.2829
 Red. masses --      2.3760                 2.4474                 9.7656
 Frc consts  --      3.3208                 3.4623                14.4781
 IR Inten    --      6.0420                73.9384              1081.5485

                     85                     86                     87
                      A                      A                      A
 Frequencies --   1640.6111              1647.3864              1655.0817
 Red. masses --      1.0915                 5.7290                 5.6712
 Frc consts  --      1.7310                 9.1605                 9.1530
 IR Inten    --     59.3782                 5.9344                 0.6311

                     88                     89                     90
                      A                      A                      A
 Frequencies --   1673.3198              1678.1739              3016.3491
 Red. masses --      5.8903                 5.8736                 1.0501
 Frc consts  --      9.7172                 9.7460                 5.6292
 IR Inten    --      2.3928                 0.3038                93.4384

                     91                     92                     93
                      A                      A                      A
 Frequencies --   3068.6272              3081.3758              3140.1096
 Red. masses --      1.0334                 1.0887                 1.0973
 Frc consts  --      5.7335                 6.0907                 6.3747
 IR Inten    --     45.0296                49.4511                19.9466

                     94                     95                     96
                      A                      A                      A
 Frequencies --   3147.1243              3166.2688              3185.3226
 Red. masses --      1.1055                 1.1051                 1.0885
 Frc consts  --      6.4510                 6.5276                 6.5069
 IR Inten    --     16.9316                13.3587                 8.9549

                     97                     98                     99
                      A                      A                      A
 Frequencies --   3186.0757              3189.7705              3190.9201
 Red. masses --      1.0875                 1.0876                 1.0878
 Frc consts  --      6.5042                 6.5199                 6.5260
 IR Inten    --      6.4180                 4.0069                 7.5284

                    100                    101                    102
                      A                      A                      A
 Frequencies --   3199.0245              3200.1908              3207.7482
 Red. masses --      1.0874                 1.0906                 1.0912
 Frc consts  --      6.5563                 6.5808                 6.6156
 IR Inten    --      0.3264                 6.0652                13.8023

                    103                    104                    105
                      A                      A                      A
 Frequencies --   3208.3239              3216.0947              3220.1771
 Red. masses --      1.0947                 1.0946                 1.0987
 Frc consts  --      6.6391                 6.6706                 6.7124
 IR Inten    --     40.7295                34.0103                21.1568

                    106                    107                    108
                      A                      A                      A
 Frequencies --   3224.5193              3522.5655              3604.6114
 Red. masses --      1.0987                 1.0510                 1.0962
 Frc consts  --      6.7305                 7.6837                 8.3919
 IR Inten    --     14.8611                12.5529                55.4332

 - Thermochemistry -
 -------------------
 Temperature   298.150 Kelvin.  Pressure   1.00000 Atm.
 Atom     1 has atomic number  6 and mass  12.00000

 Molecular mass:   253.14666 amu.
 Principal axes and moments of inertia in atomic units:
                           1         2         3
     Eigenvalues --  2877.064427656.026048393.04270
           X            0.99992   0.01281  -0.00111
           Y           -0.01280   0.99981   0.01439
           Z            0.00129  -0.01437   0.99990
 This molecule is an asymmetric top.
 Rotational symmetry number  1.
 Warning -- assumption of classical behavior for rotation
           may cause significant error
 Rotational temperatures (Kelvin)      0.03010     0.01131     0.01032
 Rotational constants (GHZ):           0.62729     0.23573     0.21503
    1 imaginary frequencies ignored.
 Zero-point vibrational energy     845593.1 (Joules/Mol)
                                  202.10160 (Kcal/Mol)
 Warning -- explicit consideration of  25 degrees of freedom as
           vibrations may cause significant error
 Vibrational temperatures:     40.18    50.20    56.32    71.87    89.67
          (Kelvin)            100.04   147.30   189.54   213.63   263.42
                              281.99   305.88   329.04   368.64   417.35
                              483.00   500.71   519.87   557.57   599.69
                              608.28   685.31   810.32   831.02   886.42
                              914.83   915.04   946.02   998.50  1046.54
                             1051.01  1114.10  1114.73  1162.72  1170.42
                             1246.64  1263.99  1269.23  1338.73  1382.22
                             1388.13  1450.47  1455.81  1459.80  1474.93
                             1477.62  1479.83  1483.30  1486.76  1500.55
                             1525.84  1529.93  1533.02  1552.92  1595.74
                             1608.88  1700.97  1704.92  1714.65  1731.48
                             1735.56  1747.14  1763.77  1800.84  1875.78
                             1895.50  1929.28  1936.18  1954.24  1969.07
                             2009.44  2064.06  2094.61  2111.24  2137.57
                             2141.45  2145.76  2157.46  2165.33  2179.67
                             2215.98  2229.46  2282.31  2360.47  2370.22
                             2381.29  2407.53  2414.52  4339.85  4415.07
                             4433.41  4517.92  4528.01  4555.55  4582.97
                             4584.05  4589.37  4591.02  4602.68  4604.36
                             4615.23  4616.06  4627.24  4633.12  4639.36
                             5068.19  5186.23

 Zero-point correction=                           0.322069 (Hartree/Particle)
 Thermal correction to Energy=                    0.339958
 Thermal correction to Enthalpy=                  0.340903
 Thermal correction to Gibbs Free Energy=         0.274029
 Sum of electronic and zero-point Energies=           -788.892093
 Sum of electronic and thermal Energies=              -788.874204
 Sum of electronic and thermal Enthalpies=            -788.873260
 Sum of electronic and thermal Free Energies=         -788.940133

                     E (Thermal)             CV                S
                      KCal/Mol        Cal/Mol-Kelvin    Cal/Mol-Kelvin
 Total                  213.327             67.265            140.747
 Electronic               0.000              0.000              0.000
 Translational            0.889              2.981             42.487
 Rotational               0.889              2.981             33.580
 Vibrational            211.550             61.304             64.680
 Vibration     1          0.593              1.984              5.972
 Vibration     2          0.594              1.983              5.530
 Vibration     3          0.594              1.981              5.302
 Vibration     4          0.595              1.978              4.819
 Vibration     5          0.597              1.972              4.382
 Vibration     6          0.598              1.969              4.167
 Vibration     7          0.604              1.947              3.408
 Vibration     8          0.612              1.922              2.921
 Vibration     9          0.618              1.904              2.692
 Vibration    10          0.631              1.863              2.297
 Vibration    11          0.636              1.845              2.170
 Vibration    12          0.644              1.822              2.021
 Vibration    13          0.651              1.797              1.889
 Vibration    14          0.666              1.752              1.687
 Vibration    15          0.686              1.692              1.474
 Vibration    16          0.717              1.604              1.233
 Vibration    17          0.726              1.579              1.175
 Vibration    18          0.736              1.552              1.116
 Vibration    19          0.756              1.497              1.010
 Vibration    20          0.780              1.434              0.903
 Vibration    21          0.785              1.421              0.883
 Vibration    22          0.833              1.303              0.720
 Vibration    23          0.919              1.111              0.517
 Vibration    24          0.934              1.080              0.490
 Vibration    25          0.976              0.998              0.423

 Optimization completed.
    -- Stationary point found.
 Normal termination of Gaussian 16 at Sat Jun 11 16:23:15 2022.
