 Gaussian 16, Revision A.03,
 Gaussian 16:  ES64L-G16RevA.03 25-Dec-2016

 ----------------------------------------------------------------------
 # wB97XD def2tzvp, opt=(ts, noeigen, calcfc, maxcycles=70, maxstep=5),
  freq=noraman, scrf=(iefpcm, solvent=water)
 ----------------------------------------------------------------------

 ------------------------
 2_iteration/TS-600-2.out
 ------------------------
 Symbolic Z-matrix:
 Charge =  0 Multiplicity = 1

 SCF Done:  E(RwB97XD) =  -1477.37473166     A.U. after   15 cycles
 SCF Done:  E(RwB97XD) =  -1477.37473174     A.U. after    7 cycles
 Optimization completed.
    -- Stationary point found.
 Normal termination of Gaussian 16 at Wed Feb 17 12:55:46 2021.

 ---------------------------------------------------------------------
 #N Geom=AllCheck Guess=TCheck SCRF=Check GenChk RwB97XD/def2TZVP Freq
 ---------------------------------------------------------------------

 Structure from the checkpoint file:  "/beegfs/scratch/user/q/tla25/Gau-6753.chk"
 ------------------------
 2_iteration/TS-600-2.out
 ------------------------
 Charge =  0 Multiplicity = 1

                         Standard orientation:
 ---------------------------------------------------------------------
 Center     Atomic      Atomic             Coordinates (Angstroms)
 Number     Number       Type             X           Y           Z
 ---------------------------------------------------------------------
      1          6           0        1.149176    0.703081   -0.135196
      2          6           0       -0.058467    1.432304    0.123650
      3          8           0       -0.069536    2.638114    0.370323
      4          6           0        1.340767   -0.592434   -0.625607
      5          6           0        1.711567   -1.439517    2.081185
      6          1           0        1.378282   -2.027254    2.936426
      7          1           0        2.796051   -1.490747    2.012352
      8          1           0        1.418958   -0.398750    2.228413
      9          7           0        1.122944   -1.915683    0.836877
     10          1           0        1.510408   -2.806367    0.546640
     11          1           0        0.118444   -2.027198    0.916671
     12          6           0        2.701417   -1.037381   -1.089451
     13          1           0        3.439062   -0.919391   -0.298966
     14          1           0        2.673408   -2.075579   -1.410956
     15          1           0        3.007632   -0.419239   -1.934360
     16         17           0        0.083744   -1.274493   -1.677760
     17         17           0        2.613050    1.621758    0.210453
     18          6           0       -1.383020    0.719506    0.149957
     19          6           0       -2.344324    1.007868   -0.812295
     20          6           0       -3.588014    0.400984   -0.758198
     21          6           0       -3.890778   -0.481319    0.271606
     22          6           0       -2.947578   -0.743642    1.253228
     23          6           0       -1.696903   -0.144407    1.191446
     24          1           0       -2.108044    1.695018   -1.615368
     25          1           0       -4.325597    0.616553   -1.520921
     26          1           0       -4.863688   -0.954102    0.313037
     27          1           0       -3.183775   -1.411922    2.071477
     28          1           0       -0.974024   -0.329923    1.977086
 ---------------------------------------------------------------------

 SCF Done:  E(RwB97XD) =  -1477.37473174     A.U. after    1 cycles

 The electronic state is 1-A.
 Alpha  occ. eigenvalues -- -101.70568-101.68937 -19.22079 -14.48663 -10.41651
 Alpha  occ. eigenvalues --  -10.37160 -10.32396 -10.32010 -10.30372 -10.29731
 Alpha  occ. eigenvalues --  -10.29581 -10.29508 -10.29453 -10.29389 -10.29304
 Alpha  occ. eigenvalues --   -9.59169  -9.57470  -7.33823  -7.32952  -7.32899
 Alpha  occ. eigenvalues --   -7.32110  -7.31253  -7.31238  -1.13114  -1.04677
 Alpha  occ. eigenvalues --   -0.99410  -0.97083  -0.95040  -0.87178  -0.85869
 Alpha  occ. eigenvalues --   -0.85655  -0.81209  -0.79204  -0.73231  -0.71046
 Alpha  occ. eigenvalues --   -0.69034  -0.64060  -0.63214  -0.60335  -0.58525
 Alpha  occ. eigenvalues --   -0.57846  -0.55876  -0.55336  -0.54990  -0.53562
 Alpha  occ. eigenvalues --   -0.51535  -0.51114  -0.50637  -0.49979  -0.48455
 Alpha  occ. eigenvalues --   -0.47948  -0.47151  -0.46781  -0.44711  -0.44574
 Alpha  occ. eigenvalues --   -0.43250  -0.41792  -0.40931  -0.39210  -0.38688
 Alpha  occ. eigenvalues --   -0.34764  -0.34299  -0.32449  -0.28780
 Alpha virt. eigenvalues --    0.01666   0.04646   0.04804   0.06801   0.10059
 Alpha virt. eigenvalues --    0.12264   0.13051   0.14042   0.14539   0.14869
 Alpha virt. eigenvalues --    0.16080   0.16672   0.17206   0.18179   0.18819

 Mulliken charges:
               1
     1  C   -0.174116
     2  C    0.196354
     3  O   -0.458362
     4  C    0.211483
     5  C   -0.322266
     6  H    0.166432
     7  H    0.166754
     8  H    0.160884
     9  N   -0.345652
    10  H    0.287904
    11  H    0.278918
    12  C   -0.380210
    13  H    0.152917
    14  H    0.153388
    15  H    0.163508
    16  Cl  -0.085878
    17  Cl  -0.162817
    18  C    0.169437
    19  C   -0.225607
    20  C   -0.131497
    21  C   -0.154195
    22  C   -0.131110
    23  C   -0.310780
    24  H    0.143129
    25  H    0.145860
    26  H    0.146508
    27  H    0.145265
    28  H    0.193749
 Sum of Mulliken charges =  -0.00000

 Dipole moment (field-independent basis, Debye):
    X=              1.0400    Y=            -11.4672    Z=              1.6899  Tot=             11.6376
 Quadrupole moment (field-independent basis, Debye-Ang):
   XX=            -91.1819   YY=           -109.7210   ZZ=            -95.8123
   XY=             -8.7612   XZ=              2.7622   YZ=            -11.3254

  Exact polarizability: 257.127   7.658 242.674  13.376 -14.617 203.115
 Approx polarizability: 202.029   9.492 204.513  12.122 -11.456 176.490

 ******    1 imaginary frequencies (negative Signs) ******

                      1                      2                      3
                      A                      A                      A
 Frequencies --   -352.8337                37.6789                53.6875
 Red. masses --      5.6072                 5.7965                 5.4091
 Frc consts  --      0.4113                 0.0048                 0.0092
 IR Inten    --    815.4507                 3.0420                 4.7931

                      4                      5                      6
                      A                      A                      A
 Frequencies --     71.0817                73.9348               100.9737
 Red. masses --      5.8986                 3.6774                 4.0362
 Frc consts  --      0.0176                 0.0118                 0.0242
 IR Inten    --      3.3768                 0.8790                 2.5778

                      7                      8                      9
                      A                      A                      A
 Frequencies --    151.0526               173.0786               193.6042
 Red. masses --      3.3072                 6.8248                 4.3698
 Frc consts  --      0.0445                 0.1205                 0.0965
 IR Inten    --      8.3245                 2.6642                 2.9064

                     10                     11                     12
                      A                      A                      A
 Frequencies --    212.9525               230.0321               253.9214
 Red. masses --      1.3131                 3.5587                 3.7212
 Frc consts  --      0.0351                 0.1109                 0.1414
 IR Inten    --      5.4236                 3.8427                 5.5016

                     13                     14                     15
                      A                      A                      A
 Frequencies --    268.0301               279.5146               301.3719
 Red. masses --      1.8264                 4.0281                 2.0867
 Frc consts  --      0.0773                 0.1854                 0.1117
 IR Inten    --      5.0046                12.7687                15.1175

                     16                     17                     18
                      A                      A                      A
 Frequencies --    323.3218               343.5142               363.3113
 Red. masses --      3.1413                 4.5068                 5.8609
 Frc consts  --      0.1935                 0.3133                 0.4558
 IR Inten    --     14.5460                 2.5771                10.5325

                     19                     20                     21
                      A                      A                      A
 Frequencies --    394.8773               419.8642               497.3811
 Red. masses --      5.0960                 2.9421                 3.9704
 Frc consts  --      0.4682                 0.3056                 0.5787
 IR Inten    --     10.5905                 1.4129                24.1136

                     22                     23                     24
                      A                      A                      A
 Frequencies --    532.4983               577.9273               634.9446
 Red. masses --      4.5047                 4.8617                 6.4075
 Frc consts  --      0.7526                 0.9567                 1.5220
 IR Inten    --     97.9357                12.1159                 0.2837

                     25                     26                     27
                      A                      A                      A
 Frequencies --    658.8963               672.1485               729.9009
 Red. masses --      1.3929                 5.2273                 1.6374
 Frc consts  --      0.3563                 1.3914                 0.5140
 IR Inten    --     78.9842                50.7822                94.7976

                     28                     29                     30
                      A                      A                      A
 Frequencies --    753.4686               772.7672               807.8794
 Red. masses --      3.4982                 6.4784                 3.1690
 Frc consts  --      1.1701                 2.2794                 1.2186
 IR Inten    --     91.4111                94.5298                83.1426

                     31                     32                     33
                      A                      A                      A
 Frequencies --    848.4116               882.1842               961.4362
 Red. masses --      4.9794                 1.2503                 1.4498
 Frc consts  --      2.1117                 0.5733                 0.7896
 IR Inten    --     75.5053                 1.1214                19.7775

                     34                     35                     36
                      A                      A                      A
 Frequencies --    995.3049              1013.3513              1025.2143
 Red. masses --      1.1027                 1.3927                 2.4549
 Frc consts  --      0.6436                 0.8426                 1.5202
 IR Inten    --     19.1504                 5.7282                31.7407

                     37                     38                     39
                      A                      A                      A
 Frequencies --   1028.3685              1032.2030              1049.8442
 Red. masses --      1.4537                 1.3445                 2.1662
 Frc consts  --      0.9058                 0.8440                 1.4067
 IR Inten    --     42.2139                 3.7709                30.0420

                     40                     41                     42
                      A                      A                      A
 Frequencies --   1053.6195              1064.0181              1085.5047
 Red. masses --      1.7884                 1.7946                 3.8861
 Frc consts  --      1.1697                 1.1971                 2.6979
 IR Inten    --     99.1459                15.2134                 8.2971

                     43                     44                     45
                      A                      A                      A
 Frequencies --   1108.1649              1112.5138              1174.7649
 Red. masses --      2.9271                 1.6817                 3.3760
 Frc consts  --      2.1179                 1.2263                 2.7451
 IR Inten    --     42.1525                25.2478                12.1588

                     46                     47                     48
                      A                      A                      A
 Frequencies --   1184.6840              1207.2830              1216.6110
 Red. masses --      1.1431                 1.1257                 1.3987
 Frc consts  --      0.9452                 0.9667                 1.2198
 IR Inten    --      0.0787                 1.8810                22.8291

                     49                     50                     51
                      A                      A                      A
 Frequencies --   1319.4540              1340.0270              1341.7486
 Red. masses --      4.0921                 1.4169                 4.4436
 Frc consts  --      4.1974                 1.4991                 4.7133
 IR Inten    --     25.5468                 6.0210               185.2889

                     52                     53                     54
                      A                      A                      A
 Frequencies --   1359.1343              1406.9158              1426.7048
 Red. masses --      1.4957                 2.0368                 1.9282
 Frc consts  --      1.6279                 2.3754                 2.3124
 IR Inten    --      7.6304               646.2942               570.0123

                     55                     56                     57
                      A                      A                      A
 Frequencies --   1463.6048              1472.8401              1488.5674
 Red. masses --      1.1998                 1.0602                 1.6592
 Frc consts  --      1.5143                 1.3550                 2.1661
 IR Inten    --     42.0590                 3.4053                 5.5734

                     58                     59                     60
                      A                      A                      A
 Frequencies --   1489.9496              1497.4868              1508.2379
 Red. masses --      1.3499                 1.0405                 1.0329
 Frc consts  --      1.7656                 1.3747                 1.3844
 IR Inten    --     55.6574                21.2231                15.5827

                     61                     62                     63
                      A                      A                      A
 Frequencies --   1541.8949              1646.9743              1647.6912
 Red. masses --      2.3335                 5.9446                 1.1496
 Frc consts  --      3.2687                 9.5004                 1.8389
 IR Inten    --      6.8547               385.7099                27.3209

                     64                     65                     66
                      A                      A                      A
 Frequencies --   1653.7281              1675.0986              3064.9159
 Red. masses --      7.6136                 5.8815                 1.0337
 Frc consts  --     12.2679                 9.7235                 5.7209
 IR Inten    --    328.9763                 0.0916                27.9601

                     67                     68                     69
                      A                      A                      A
 Frequencies --   3078.6459              3139.1183              3157.0487
 Red. masses --      1.0367                 1.1045                 1.1008
 Frc consts  --      5.7894                 6.4125                 6.4642
 IR Inten    --      5.8912                11.9349                 8.2076

                     70                     71                     72
                      A                      A                      A
 Frequencies --   3165.7535              3178.6891              3192.3543
 Red. masses --      1.1050                 1.1047                 1.0871
 Frc consts  --      6.5245                 6.5766                 6.5272
 IR Inten    --     14.8743                 9.8568                 4.9210

                     73                     74                     75
                      A                      A                      A
 Frequencies --   3197.5076              3205.6461              3214.1104
 Red. masses --      1.0876                 1.0912                 1.0951
 Frc consts  --      6.5512                 6.6066                 6.6656
 IR Inten    --      0.7739                 7.8059                34.8466

                     76                     77                     78
                      A                      A                      A
 Frequencies --   3223.8331              3521.9506              3604.4058
 Red. masses --      1.0989                 1.0506                 1.0961
 Frc consts  --      6.7291                 7.6783                 8.3904
 IR Inten    --     17.2033                48.3228                76.5202

 - Thermochemistry -
 -------------------
 Temperature   298.150 Kelvin.  Pressure   1.00000 Atm.
 Atom     1 has atomic number  6 and mass  12.00000

 Molecular mass:   245.03742 amu.
 Principal axes and moments of inertia in atomic units:
                           1         2         3
     Eigenvalues --  2556.512434832.084595454.38514
           X            0.99938  -0.03468   0.00633
           Y            0.03517   0.99303  -0.11251
           Z           -0.00239   0.11266   0.99363
 This molecule is an asymmetric top.
 Rotational symmetry number  1.
 Warning -- assumption of classical behavior for rotation
           may cause significant error
 Rotational temperatures (Kelvin)      0.03388     0.01792     0.01588
 Rotational constants (GHZ):           0.70594     0.37349     0.33088
    1 imaginary frequencies ignored.
 Zero-point vibrational energy     581092.8 (Joules/Mol)
                                  138.88452 (Kcal/Mol)
 Warning -- explicit consideration of  22 degrees of freedom as
           vibrations may cause significant error
 Vibrational temperatures:     54.21    77.24   102.27   106.38   145.28
          (Kelvin)            217.33   249.02   278.55   306.39   330.96
                              365.34   385.64   402.16   433.61   465.19
                              494.24   522.72   568.14   604.09   715.62
                              766.15   831.51   913.54   948.00   967.07
                             1050.16  1084.07  1111.84  1162.36  1220.68
                             1269.27  1383.29  1432.02  1457.99  1475.05
                             1479.59  1485.11  1510.49  1515.92  1530.88
                             1561.80  1594.40  1600.66  1690.22  1704.50
                             1737.01  1750.43  1898.40  1928.00  1930.48
                             1955.49  2024.24  2052.71  2105.80  2119.09
                             2141.72  2143.71  2154.55  2170.02  2218.44
                             2369.63  2370.66  2379.35  2410.09  4409.73
                             4429.48  4516.49  4542.29  4554.81  4573.42
                             4593.09  4600.50  4612.21  4624.39  4638.38
                             5067.30  5185.94

 Zero-point correction=                           0.221327 (Hartree/Particle)
 Thermal correction to Energy=                    0.236569
 Thermal correction to Enthalpy=                  0.237513
 Thermal correction to Gibbs Free Energy=         0.178139
 Sum of electronic and zero-point Energies=          -1477.153405
 Sum of electronic and thermal Energies=             -1477.138163
 Sum of electronic and thermal Enthalpies=           -1477.137219
 Sum of electronic and thermal Free Energies=        -1477.196593

                     E (Thermal)             CV                S
                      KCal/Mol        Cal/Mol-Kelvin    Cal/Mol-Kelvin
 Total                  148.449             56.052            124.964
 Electronic               0.000              0.000              0.000
 Translational            0.889              2.981             42.390
 Rotational               0.889              2.981             32.577
 Vibrational            146.672             50.090             49.997
 Vibration     1          0.594              1.982              5.378
 Vibration     2          0.596              1.976              4.677
 Vibration     3          0.598              1.968              4.123
 Vibration     4          0.599              1.966              4.046
 Vibration     5          0.604              1.948              3.435
 Vibration     6          0.618              1.902              2.659
 Vibration     7          0.627              1.876              2.402
 Vibration     8          0.635              1.849              2.193
 Vibration     9          0.644              1.821              2.018
 Vibration    10          0.652              1.795              1.879
 Vibration    11          0.665              1.756              1.703
 Vibration    12          0.673              1.732              1.609
 Vibration    13          0.680              1.711              1.537
 Vibration    14          0.693              1.671              1.409
 Vibration    15          0.708              1.629              1.293
 Vibration    16          0.722              1.588              1.196
 Vibration    17          0.737              1.548              1.108
 Vibration    18          0.762              1.481              0.982
 Vibration    19          0.783              1.427              0.892
 Vibration    20          0.853              1.256              0.665
 Vibration    21          0.887              1.178              0.582
 Vibration    22          0.934              1.079              0.489

 Optimization completed.
    -- Stationary point found.
 Normal termination of Gaussian 16 at Wed Feb 17 13:53:13 2021.
