 Gaussian 16, Revision A.03,
 Gaussian 16:  ES64L-G16RevA.03 25-Dec-2016

 ----------------------------------------------------------------------
 # wB97XD def2tzvp, opt=(ts, noeigen, calcfc, maxcycles=70, maxstep=5),
  freq=noraman, scrf=(iefpcm, solvent=water)
 ----------------------------------------------------------------------

 ------------------------
 2_iteration/TS-648-2.out
 ------------------------
 Symbolic Z-matrix:
 Charge =  0 Multiplicity = 1

 SCF Done:  E(RwB97XD) =  -3323.51011697     A.U. after   15 cycles
 Optimization completed.
    -- Stationary point found.
 Normal termination of Gaussian 16 at Sat Feb 20 20:26:40 2021.

 ---------------------------------------------------------------------
 #N Geom=AllCheck Guess=TCheck SCRF=Check GenChk RwB97XD/def2TZVP Freq
 ---------------------------------------------------------------------

 Structure from the checkpoint file:  "/beegfs/scratch/user/q/tla25/Gau-29483.chk"
 ------------------------
 2_iteration/TS-648-2.out
 ------------------------
 Charge =  0 Multiplicity = 1

                         Standard orientation:
 ---------------------------------------------------------------------
 Center     Atomic      Atomic             Coordinates (Angstroms)
 Number     Number       Type             X           Y           Z
 ---------------------------------------------------------------------
      1          6           0        0.300911   -0.420299   -0.177219
      2          6           0       -0.684698   -1.470960   -0.246569
      3          8           0       -0.394357   -2.660960   -0.423959
      4          6           0        1.607311   -0.862758   -0.294729
      5          6           0        3.441133   -2.431666    1.358091
      6          1           0        3.733104   -2.824715    2.332891
      7          1           0        3.157294   -3.262416    0.713041
      8          1           0        4.291102   -1.915665    0.914451
      9          7           0        2.319172   -1.503827    1.455821
     10          1           0        1.496213   -1.945018    1.848681
     11          1           0        2.545031   -0.692487    2.018751
     12         35           0        3.002390    0.334544   -0.806089
     13          1           0        1.767452   -1.844988   -0.714359
     14          6           0       -0.054591    1.006550    0.012881
     15          6           0       -0.832522    1.674139   -0.933299
     16          6           0       -1.180043    3.005209   -0.764639
     17          6           0       -0.743804    3.703979    0.352691
     18          6           0        0.040087    3.057830    1.297601
     19          6           0        0.375818    1.722641    1.129051
     20          1           0       -1.172101    1.136639   -1.810529
     21          1           0       -1.788254    3.500508   -1.511439
     22          1           0       -1.011915    4.744549    0.485181
     23          1           0        0.384786    3.591771    2.174511
     24          1           0        0.969039    1.225502    1.886831
     25          6           0       -2.141228   -1.129542   -0.088119
     26          6           0       -2.610679   -0.421593    1.013581
     27          6           0       -3.967300   -0.176994    1.163101
     28          6           0       -4.864959   -0.619035    0.201251
     29          6           0       -4.402228   -1.324935   -0.900979
     30          6           0       -3.048308   -1.590503   -1.036699
     31          1           0       -1.913580   -0.061522    1.759451
     32          1           0       -4.323570    0.364605    2.030341
     33          1           0       -5.922839   -0.416727    0.311851
     34          1           0       -5.098168   -1.673026   -1.653929
     35          1           0       -2.685987   -2.153963   -1.887629
 ---------------------------------------------------------------------

 SCF Done:  E(RwB97XD) =  -3323.51011697     A.U. after    1 cycles

 The electronic state is 1-A.
 Alpha  occ. eigenvalues -- -483.13709 -62.68556 -56.47668 -56.47325 -56.47303
 Alpha  occ. eigenvalues --  -19.21485 -14.47929 -10.38315 -10.36339 -10.31778
 Alpha  occ. eigenvalues --  -10.29977 -10.29707 -10.29222 -10.29180 -10.29139
 Alpha  occ. eigenvalues --  -10.29071 -10.29046 -10.28836 -10.28783 -10.28678
 Alpha  occ. eigenvalues --  -10.28665 -10.28528 -10.27486  -8.82670  -6.64815
 Alpha  occ. eigenvalues --   -6.63716  -6.63642  -2.75210  -2.74899  -2.74841
 Alpha  occ. eigenvalues --   -2.73952  -2.73951  -1.12281  -1.03386  -0.97137
 Alpha  occ. eigenvalues --   -0.96498  -0.93393  -0.88233  -0.85808  -0.85207
 Alpha  occ. eigenvalues --   -0.84823  -0.82614  -0.78773  -0.74575  -0.71016
 Alpha  occ. eigenvalues --   -0.70461  -0.70129  -0.67800  -0.63925  -0.62908
 Alpha  occ. eigenvalues --   -0.61724  -0.59395  -0.57061  -0.56467  -0.55251
 Alpha  occ. eigenvalues --   -0.54884  -0.53854  -0.53224  -0.52976  -0.52252
 Alpha  occ. eigenvalues --   -0.51133  -0.50634  -0.49420  -0.48352  -0.47814
 Alpha  occ. eigenvalues --   -0.47525  -0.46682  -0.45746  -0.44368  -0.44011
 Alpha  occ. eigenvalues --   -0.42768  -0.42524  -0.42503  -0.38265  -0.37259
 Alpha  occ. eigenvalues --   -0.34797  -0.34399  -0.33472  -0.33227  -0.32014
 Alpha  occ. eigenvalues --   -0.27899
 Alpha virt. eigenvalues --    0.01343   0.04448   0.05346   0.05705   0.06517
 Alpha virt. eigenvalues --    0.07177   0.09999   0.13051   0.13306   0.13916
 Alpha virt. eigenvalues --    0.14971   0.15301   0.15698   0.16317   0.16893

 Mulliken charges:
               1
     1  C   -0.130377
     2  C    0.297934
     3  O   -0.502166
     4  C   -0.055032
     5  C   -0.273202
     6  H    0.152726
     7  H    0.150307
     8  H    0.149257
     9  N   -0.358981
    10  H    0.282091
    11  H    0.278564
    12  Br  -0.064212
    13  H    0.181384
    14  C    0.125569
    15  C   -0.210646
    16  C   -0.163332
    17  C   -0.139427
    18  C   -0.142189
    19  C   -0.245233
    20  H    0.141636
    21  H    0.138373
    22  H    0.141651
    23  H    0.138888
    24  H    0.137919
    25  C    0.133391
    26  C   -0.214705
    27  C   -0.156738
    28  C   -0.129976
    29  C   -0.156622
    30  C   -0.235531
    31  H    0.160071
    32  H    0.141732
    33  H    0.144854
    34  H    0.142231
    35  H    0.139790
 Sum of Mulliken charges =  -0.00000

 Dipole moment (field-independent basis, Debye):
    X=              3.6115    Y=              0.8964    Z=              4.9567  Tot=              6.1980
 Quadrupole moment (field-independent basis, Debye-Ang):
   XX=           -106.4019   YY=           -129.0183   ZZ=           -112.0290
   XY=            -14.0275   XZ=             13.2824   YZ=             -3.2607

  Exact polarizability: 368.500 -15.883 300.674  32.332  20.900 267.786
 Approx polarizability: 269.158  -9.813 246.241  23.273  19.331 233.550

 ******    1 imaginary frequencies (negative Signs) ******

                      1                      2                      3
                      A                      A                      A
 Frequencies --   -365.0850                29.6783                35.9135
 Red. masses --      6.1870                 6.3457                 4.2370
 Frc consts  --      0.4859                 0.0033                 0.0032
 IR Inten    --   1004.1784                 2.8800                 2.8214

                      4                      5                      6
                      A                      A                      A
 Frequencies --     43.6154                47.7136                61.4603
 Red. masses --      4.9525                 3.0618                 4.7779
 Frc consts  --      0.0056                 0.0041                 0.0106
 IR Inten    --      6.0351                 0.0106                 0.8492

                      7                      8                      9
                      A                      A                      A
 Frequencies --     64.3148                79.5539                95.3907
 Red. masses --      2.4894                 4.8289                 4.2977
 Frc consts  --      0.0061                 0.0180                 0.0230
 IR Inten    --      1.6994                 3.2645                 3.3791

                     10                     11                     12
                      A                      A                      A
 Frequencies --    133.9147               157.1798               170.2942
 Red. masses --      2.9691                 4.7495                 1.5077
 Frc consts  --      0.0314                 0.0691                 0.0258
 IR Inten    --      3.0627                 7.7252                 1.8513

                     13                     14                     15
                      A                      A                      A
 Frequencies --    190.1694               222.3070               249.3845
 Red. masses --      6.5267                 5.2074                 3.4048
 Frc consts  --      0.1391                 0.1516                 0.1248
 IR Inten    --      0.2684                 1.8676                 5.3968

                     16                     17                     18
                      A                      A                      A
 Frequencies --    264.0334               308.6604               351.4811
 Red. masses --      4.1003                 4.8114                 9.8008
 Frc consts  --      0.1684                 0.2701                 0.7134
 IR Inten    --      5.8318               112.9984                 6.4303

                     19                     20                     21
                      A                      A                      A
 Frequencies --    398.8213               419.7482               422.9105
 Red. masses --      4.7824                 2.9304                 2.8790
 Frc consts  --      0.4482                 0.3042                 0.3034
 IR Inten    --     14.1897                 2.0269                 0.6782

                     22                     23                     24
                      A                      A                      A
 Frequencies --    437.4434               536.8688               573.3515
 Red. masses --      5.7934                 3.7224                 4.8060
 Frc consts  --      0.6532                 0.6321                 0.9308
 IR Inten    --     10.6612                20.9863                48.6859

                     25                     26                     27
                      A                      A                      A
 Frequencies --    581.6328               629.4265               635.6428
 Red. masses --      1.6161                 4.5928                 6.2015
 Frc consts  --      0.3221                 1.0721                 1.4763
 IR Inten    --      1.7608                27.1923                 3.5542

                     28                     29                     30
                      A                      A                      A
 Frequencies --    642.8440               656.4529               722.9972
 Red. masses --      5.6639                 4.5492                 3.0148
 Frc consts  --      1.3790                 1.1550                 0.9285
 IR Inten    --      5.9379               136.6154                37.5363

                     31                     32                     33
                      A                      A                      A
 Frequencies --    726.6409               728.8624               746.2157
 Red. masses --      1.5777                 1.8575                 4.0399
 Frc consts  --      0.4908                 0.5814                 1.3254
 IR Inten    --    144.1078                26.2395                66.7702

                     34                     35                     36
                      A                      A                      A
 Frequencies --    764.1616               806.0072               828.9188
 Red. masses --      3.4249                 2.4359                 3.2450
 Frc consts  --      1.1783                 0.9324                 1.3137
 IR Inten    --     84.5742                27.3061                16.2649

                     37                     38                     39
                      A                      A                      A
 Frequencies --    874.6179               881.6118               928.9649
 Red. masses --      1.2500                 1.2519                 3.3799
 Frc consts  --      0.5634                 0.5733                 1.7185
 IR Inten    --      0.4793                 0.5160                 5.4426

                     40                     41                     42
                      A                      A                      A
 Frequencies --    952.6594               965.6233               995.5345
 Red. masses --      1.5197                 1.4913                 1.1154
 Frc consts  --      0.8126                 0.8193                 0.6513
 IR Inten    --      3.4164                 5.5044                41.7941

                     43                     44                     45
                      A                      A                      A
 Frequencies --   1009.7457              1011.8706              1015.8092
 Red. masses --      1.3350                 1.1448                 1.3670
 Frc consts  --      0.8019                 0.6906                 0.8311
 IR Inten    --      3.1117               122.0597                 3.3004

                     46                     47                     48
                      A                      A                      A
 Frequencies --   1025.4089              1026.3934              1026.8684
 Red. masses --      1.7858                 4.6359                 3.0189
 Frc consts  --      1.1063                 2.8774                 1.8756
 IR Inten    --      0.2087                 0.6292                 3.1320

                     49                     50                     51
                      A                      A                      A
 Frequencies --   1030.8694              1058.3069              1061.9262
 Red. masses --      1.3162                 2.5884                 2.1547
 Frc consts  --      0.8241                 1.7081                 1.4316
 IR Inten    --      1.0265                25.0308                27.4586

                     52                     53                     54
                      A                      A                      A
 Frequencies --   1072.3805              1110.2670              1113.3223
 Red. masses --      4.3527                 1.6518                 1.5697
 Frc consts  --      2.9492                 1.1997                 1.1463
 IR Inten    --    143.9522                12.7452                22.8217

                     55                     56                     57
                      A                      A                      A
 Frequencies --   1124.2955              1131.2041              1179.3164
 Red. masses --      1.4804                 2.0005                 1.3739
 Frc consts  --      1.1025                 1.5083                 1.1258
 IR Inten    --     84.3478                40.2862                21.3727

                     58                     59                     60
                      A                      A                      A
 Frequencies --   1181.2307              1183.9148              1207.2068
 Red. masses --      1.1741                 1.1383                 1.2858
 Frc consts  --      0.9652                 0.9401                 1.1040
 IR Inten    --      3.6348                 0.1433                 7.4692

                     61                     62                     63
                      A                      A                      A
 Frequencies --   1209.5469              1211.0336              1284.8484
 Red. masses --      1.1274                 1.2263                 2.5812
 Frc consts  --      0.9718                 1.0596                 2.5106
 IR Inten    --      4.0137                 7.9519                 8.8877

                     64                     65                     66
                      A                      A                      A
 Frequencies --   1306.3456              1323.1855              1344.7494
 Red. masses --      4.2517                 4.3047                 1.3375
 Frc consts  --      4.2749                 4.4405                 1.4250
 IR Inten    --    194.0343                55.8193                 3.3473

                     67                     68                     69
                      A                      A                      A
 Frequencies --   1351.5935              1361.1729              1371.1404
 Red. masses --      2.6826                 1.4361                 2.0098
 Frc consts  --      2.8874                 1.5677                 2.2262
 IR Inten    --    600.2704                 2.6306               679.6062

                     70                     71                     72
                      A                      A                      A
 Frequencies --   1425.0317              1462.4207              1488.4605
 Red. masses --      4.6326                 1.2140                 2.2358
 Frc consts  --      5.5428                 1.5297                 2.9185
 IR Inten    --    436.1683                29.6171                 9.1534

                     73                     74                     75
                      A                      A                      A
 Frequencies --   1490.0116              1491.0645              1505.1602
 Red. masses --      1.0419                 2.2732                 1.0313
 Frc consts  --      1.3628                 2.9777                 1.3765
 IR Inten    --     13.8635                36.2186                12.7739

                     76                     77                     78
                      A                      A                      A
 Frequencies --   1541.9812              1548.5427              1633.8096
 Red. masses --      2.3021                 2.5569                 5.1305
 Frc consts  --      3.2250                 3.6125                 8.0689
 IR Inten    --      1.6729                33.5939               353.7738

                     79                     80                     81
                      A                      A                      A
 Frequencies --   1643.1577              1647.3630              1657.3170
 Red. masses --      1.4591                 3.2966                 6.0743
 Frc consts  --      2.3211                 5.2710                 9.8301
 IR Inten    --     59.0832                52.0288               198.9149

                     82                     83                     84
                      A                      A                      A
 Frequencies --   1674.3227              1674.5532              3063.7494
 Red. masses --      5.8672                 5.9120                 1.0339
 Frc consts  --      9.6909                 9.7675                 5.7177
 IR Inten    --      3.0009                 7.3717                57.2528

                     85                     86                     87
                      A                      A                      A
 Frequencies --   3140.0370              3160.6482              3189.2987
 Red. masses --      1.1043                 1.1055                 1.0856
 Frc consts  --      6.4153                 6.5066                 6.5059
 IR Inten    --     17.0294                14.1229                 8.3114

                     88                     89                     90
                      A                      A                      A
 Frequencies --   3192.7932              3193.7945              3200.5361
 Red. masses --      1.0879                 1.0857                 1.0882
 Frc consts  --      6.5341                 6.5250                 6.5674
 IR Inten    --      2.0078                 0.7006                 0.8409

                     91                     92                     93
                      A                      A                      A
 Frequencies --   3202.3524              3208.5565              3208.9566
 Red. masses --      1.0914                 1.0920                 1.0952
 Frc consts  --      6.5943                 6.6234                 6.6445
 IR Inten    --     17.4923                15.0960                54.0310

                     94                     95                     96
                      A                      A                      A
 Frequencies --   3215.6522              3219.9661              3222.7654
 Red. masses --      1.0949                 1.0988                 1.0986
 Frc consts  --      6.6706                 6.7124                 6.7230
 IR Inten    --     37.6529                16.6485                16.4780

                     97                     98                     99
                      A                      A                      A
 Frequencies --   3225.9917              3528.9329              3616.2218
 Red. masses --      1.0911                 1.0502                 1.0968
 Frc consts  --      6.6902                 7.7056                 8.4508
 IR Inten    --      6.4876                23.2761                43.7528

 - Thermochemistry -
 -------------------
 Temperature   298.150 Kelvin.  Pressure   1.00000 Atm.
 Atom     1 has atomic number  6 and mass  12.00000

 Molecular mass:   317.04153 amu.
 Principal axes and moments of inertia in atomic units:
                           1         2         3
     Eigenvalues --  4088.160658439.21418**********
           X            0.99914  -0.03252   0.02583
           Y            0.03256   0.99947  -0.00124
           Z           -0.02577   0.00208   0.99967
 This molecule is an asymmetric top.
 Rotational symmetry number  1.
 Warning -- assumption of classical behavior for rotation
           may cause significant error
 Rotational temperatures (Kelvin)      0.02119     0.01026     0.00809
 Rotational constants (GHZ):           0.44146     0.21385     0.16859
    1 imaginary frequencies ignored.
 Zero-point vibrational energy     743900.3 (Joules/Mol)
                                  177.79645 (Kcal/Mol)
 Warning -- explicit consideration of  24 degrees of freedom as
           vibrations may cause significant error
 Vibrational temperatures:     42.70    51.67    62.75    68.65    88.43
          (Kelvin)             92.53   114.46   137.25   192.67   226.15
                              245.02   273.61   319.85   358.81   379.89
                              444.09   505.70   573.81   603.92   608.47
                              629.38   772.43   824.92   836.84   905.60
                              914.55   924.91   944.49  1040.23  1045.47
                             1048.67  1073.64  1099.46  1159.66  1192.63
                             1258.38  1268.44  1336.57  1370.66  1389.32
                             1432.35  1452.80  1455.86  1461.52  1475.33
                             1476.75  1477.43  1483.19  1522.67  1527.87
                             1542.92  1597.43  1601.82  1617.61  1627.55
                             1696.77  1699.53  1703.39  1736.90  1740.27
                             1742.41  1848.61  1879.54  1903.77  1934.79
                             1944.64  1958.42  1972.77  2050.30  2104.10
                             2141.56  2143.79  2145.31  2165.59  2218.57
                             2228.01  2350.69  2364.14  2370.19  2384.51
                             2408.98  2409.31  4408.05  4517.81  4547.47
                             4588.69  4593.72  4595.16  4604.86  4607.47
                             4616.40  4616.97  4626.61  4632.81  4636.84
                             4641.48  5077.35  5202.94

 Zero-point correction=                           0.283337 (Hartree/Particle)
 Thermal correction to Energy=                    0.301307
 Thermal correction to Enthalpy=                  0.302252
 Thermal correction to Gibbs Free Energy=         0.234013
 Sum of electronic and zero-point Energies=          -3323.226780
 Sum of electronic and thermal Energies=             -3323.208810
 Sum of electronic and thermal Enthalpies=           -3323.207865
 Sum of electronic and thermal Free Energies=        -3323.276104

                     E (Thermal)             CV                S
                      KCal/Mol        Cal/Mol-Kelvin    Cal/Mol-Kelvin
 Total                  189.073             65.974            143.620
 Electronic               0.000              0.000              0.000
 Translational            0.889              2.981             43.157
 Rotational               0.889              2.981             34.267
 Vibrational            187.296             60.013             66.195
 Vibration     1          0.593              1.984              5.851
 Vibration     2          0.594              1.982              5.473
 Vibration     3          0.595              1.980              5.088
 Vibration     4          0.595              1.978              4.910
 Vibration     5          0.597              1.973              4.410
 Vibration     6          0.597              1.971              4.320
 Vibration     7          0.600              1.963              3.902
 Vibration     8          0.603              1.952              3.546
 Vibration     9          0.613              1.919              2.889
 Vibration    10          0.621              1.895              2.583
 Vibration    11          0.625              1.879              2.432
 Vibration    12          0.633              1.853              2.226
 Vibration    13          0.648              1.807              1.940
 Vibration    14          0.662              1.764              1.735
 Vibration    15          0.671              1.739              1.635
 Vibration    16          0.698              1.657              1.370
 Vibration    17          0.728              1.572              1.160
 Vibration    18          0.765              1.473              0.967
 Vibration    19          0.782              1.427              0.893
 Vibration    20          0.785              1.420              0.882
 Vibration    21          0.798              1.389              0.835
 Vibration    22          0.892              1.168              0.572
 Vibration    23          0.930              1.089              0.498
 Vibration    24          0.938              1.071              0.482

 Optimization completed.
    -- Stationary point found.
 Normal termination of Gaussian 16 at Sat Feb 20 22:28:25 2021.
