 Gaussian 16, Revision A.03,
 Gaussian 16:  ES64L-G16RevA.03 25-Dec-2016

 ----------------------------------------------------------------------
 # wB97XD def2tzvp, opt=(ts, noeigen, calcfc, maxcycles=70, maxstep=3),
  freq=noraman, scrf=(iefpcm, solvent=water)
 ----------------------------------------------------------------------

 ------------------------
 0_iteration/TS-603-0.out
 ------------------------
 Symbolic Z-matrix:
 Charge =  0 Multiplicity = 1

 SCF Done:  E(RwB97XD) =  -3378.88128882     A.U. after   15 cycles
 Optimization completed.
    -- Stationary point found.
 Normal termination of Gaussian 16 at Fri Mar 26 01:00:46 2021.

 ---------------------------------------------------------------------
 #N Geom=AllCheck Guess=TCheck SCRF=Check GenChk RwB97XD/def2TZVP Freq
 ---------------------------------------------------------------------

 Structure from the checkpoint file:  "/beegfs/scratch/user/q/tla25/Gau-92285.chk"
 ------------------------
 0_iteration/TS-603-0.out
 ------------------------
 Charge =  0 Multiplicity = 1

                         Standard orientation:
 ---------------------------------------------------------------------
 Center     Atomic      Atomic             Coordinates (Angstroms)
 Number     Number       Type             X           Y           Z
 ---------------------------------------------------------------------
      1          6           0        0.480811    0.795410   -0.103491
      2          6           0        0.161622    2.194710   -0.340091
      3          8           0        1.026532    2.984200   -0.750291
      4          6           0       -0.428899   -0.192780    0.283209
      5          6           0       -0.381089    0.699020    2.895209
      6          1           0        0.100711    0.549510    3.859309
      7          1           0        0.123721    1.502310    2.358009
      8          1           0       -1.421389    0.971931    3.047609
      9          7           0       -0.289700   -0.512980    2.079709
     10          1           0        0.647590   -0.899690    2.130409
     11          1           0       -0.921710   -1.245479    2.388409
     12         35           0        0.109980   -2.082590   -0.231491
     13          6           0       -1.894999   -0.091969   -0.032591
     14          6           0       -2.228799    0.089731   -1.377291
     15          6           0       -3.547499    0.183752   -1.775191
     16          6           0       -4.568199    0.097062   -0.836091
     17          6           0       -4.250799   -0.093548    0.496409
     18          6           0       -2.923599   -0.195259    0.896009
     19          1           0       -1.434199    0.163931   -2.108191
     20          1           0       -3.781299    0.327652   -2.822091
     21          1           0       -5.602599    0.174473   -1.144891
     22          1           0       -5.034099   -0.167238    1.239409
     23          1           0       -2.730100   -0.347859    1.946909
     24          6           0        1.938611    0.474399   -0.183891
     25          6           0        2.521701    0.142589   -1.406791
     26          6           0        3.867401   -0.172622   -1.499891
     27          6           0        4.666301   -0.164432   -0.362891
     28          6           0        4.107001    0.171378    0.859609
     29          6           0        2.757611    0.492589    0.942709
     30          1           0        1.900201    0.127099   -2.294191
     31          1           0        4.295800   -0.428832   -2.461191
     32          1           0        5.717500   -0.414542   -0.432491
     33          1           0        4.720401    0.189768    1.752109
     34          1           0        2.345311    0.779989    1.903409
     35          7           0       -1.091668    2.694321   -0.110091
     36          1           0       -1.799378    2.191531    0.390409
     37          1           0       -1.181458    3.692921   -0.165391
 ---------------------------------------------------------------------

 SCF Done:  E(RwB97XD) =  -3378.88128882     A.U. after    1 cycles

 The electronic state is 1-A.
 Alpha  occ. eigenvalues -- -483.12370 -62.67200 -56.46305 -56.45974 -56.45961
 Alpha  occ. eigenvalues --  -19.19239 -14.51182 -14.43195 -10.40874 -10.37696
 Alpha  occ. eigenvalues --  -10.32684 -10.32043 -10.30565 -10.29917 -10.29886
 Alpha  occ. eigenvalues --  -10.29802 -10.29702 -10.29543 -10.28677 -10.28593
 Alpha  occ. eigenvalues --  -10.28529 -10.28484 -10.28179 -10.26443  -8.81281
 Alpha  occ. eigenvalues --   -6.63378  -6.62338  -6.62292  -2.73760  -2.73483
 Alpha  occ. eigenvalues --   -2.73447  -2.72605  -2.72605  -1.11924  -1.06629
 Alpha  occ. eigenvalues --   -0.99144  -0.97851  -0.96365  -0.92827  -0.87058
 Alpha  occ. eigenvalues --   -0.86234  -0.85909  -0.84594  -0.81748  -0.80325
 Alpha  occ. eigenvalues --   -0.74456  -0.71715  -0.70069  -0.69791  -0.68991
 Alpha  occ. eigenvalues --   -0.66122  -0.64474  -0.62245  -0.61278  -0.59582
 Alpha  occ. eigenvalues --   -0.58508  -0.57571  -0.56941  -0.54762  -0.54222
 Alpha  occ. eigenvalues --   -0.53965  -0.52881  -0.51777  -0.51095  -0.50600
 Alpha  occ. eigenvalues --   -0.50050  -0.49186  -0.48691  -0.48394  -0.47290
 Alpha  occ. eigenvalues --   -0.45792  -0.45152  -0.44419  -0.43419  -0.42281
 Alpha  occ. eigenvalues --   -0.41686  -0.38146  -0.37560  -0.35377  -0.34485
 Alpha  occ. eigenvalues --   -0.33727  -0.33287  -0.33125  -0.31832  -0.27460
 Alpha virt. eigenvalues --    0.00910   0.04330   0.05407   0.05595   0.06504
 Alpha virt. eigenvalues --    0.07527   0.10167   0.12559   0.12850   0.13010
 Alpha virt. eigenvalues --    0.14156   0.14834   0.15475   0.16728   0.17111

 Mulliken charges:
               1
     1  C   -0.321587
     2  C    0.283988
     3  O   -0.534672
     4  C    0.184275
     5  C   -0.337543
     6  H    0.177508
     7  H    0.171786
     8  H    0.170435
     9  N   -0.268422
    10  H    0.293015
    11  H    0.298043
    12  Br  -0.165455
    13  C    0.055007
    14  C   -0.247083
    15  C   -0.142698
    16  C   -0.126921
    17  C   -0.168452
    18  C   -0.167976
    19  H    0.167312
    20  H    0.146874
    21  H    0.148997
    22  H    0.148299
    23  H    0.138346
    24  C    0.334550
    25  C   -0.268420
    26  C   -0.150272
    27  C   -0.138087
    28  C   -0.177359
    29  C   -0.304583
    30  H    0.139816
    31  H    0.136981
    32  H    0.140793
    33  H    0.137304
    34  H    0.168788
    35  N   -0.449086
    36  H    0.270190
    37  H    0.256312
 Sum of Mulliken charges =  -0.00000

 Dipole moment (field-independent basis, Debye):
    X=             -6.9577    Y=             -3.8813    Z=              8.4350  Tot=             11.6027
 Quadrupole moment (field-independent basis, Debye-Ang):
   XX=           -115.2622   YY=           -150.3341   ZZ=           -106.1814
   XY=            -14.3762   XZ=              0.4175   YZ=              4.3993

  Exact polarizability: 372.023 -10.935 275.532  -7.171  -7.153 311.365
 Approx polarizability: 284.558  -7.940 226.542  -7.060  -5.570 269.006

 ******    1 imaginary frequencies (negative Signs) ******

                      1                      2                      3
                      A                      A                      A
 Frequencies --   -353.5702                33.1133                43.9742
 Red. masses --      5.4779                 4.6750                 4.3630
 Frc consts  --      0.4035                 0.0030                 0.0050
 IR Inten    --    530.0147                 1.2302                 1.5641

                      4                      5                      6
                      A                      A                      A
 Frequencies --     52.4046                57.8167                70.7578
 Red. masses --      5.2122                 6.7464                 5.8477
 Frc consts  --      0.0084                 0.0133                 0.0172
 IR Inten    --      0.2027                 5.2817                 1.4670

                      7                      8                      9
                      A                      A                      A
 Frequencies --     84.0663               110.3912               134.2688
 Red. masses --      6.0353                 5.5420                 5.4144
 Frc consts  --      0.0251                 0.0398                 0.0575
 IR Inten    --      0.2307                 2.9130                21.8514

                     10                     11                     12
                      A                      A                      A
 Frequencies --    164.8556               174.1608               187.8151
 Red. masses --      4.3955                 3.4740                 1.5961
 Frc consts  --      0.0704                 0.0621                 0.0332
 IR Inten    --      4.9061                 6.4694               139.7905

                     13                     14                     15
                      A                      A                      A
 Frequencies --    192.9603               212.2654               227.2599
 Red. masses --      1.7009                 4.2190                 1.4966
 Frc consts  --      0.0373                 0.1120                 0.0455
 IR Inten    --     34.4650                 2.0057               203.4156

                     16                     17                     18
                      A                      A                      A
 Frequencies --    256.4963               268.3149               280.1414
 Red. masses --      4.0256                 4.4116                 3.7232
 Frc consts  --      0.1560                 0.1871                 0.1722
 IR Inten    --     21.8365                 4.2433                15.5852

                     19                     20                     21
                      A                      A                      A
 Frequencies --    311.5263               328.3121               390.9371
 Red. masses --      3.3756                 3.7978                 4.4121
 Frc consts  --      0.1930                 0.2412                 0.3973
 IR Inten    --      8.6332                29.1649                 1.5382

                     22                     23                     24
                      A                      A                      A
 Frequencies --    422.6489               423.7611               470.4106
 Red. masses --      2.8620                 2.8905                 3.3654
 Frc consts  --      0.3012                 0.3058                 0.4388
 IR Inten    --      0.9031                 0.5011                 6.5905

                     25                     26                     27
                      A                      A                      A
 Frequencies --    511.0563               517.1373               523.6594
 Red. masses --      1.4287                 3.7352                 3.2584
 Frc consts  --      0.2199                 0.5885                 0.5264
 IR Inten    --     41.6019                57.0072                 8.3088

                     28                     29                     30
                      A                      A                      A
 Frequencies --    574.0295               610.8750               629.8384
 Red. masses --      3.6141                 4.4921                 3.4170
 Frc consts  --      0.7016                 0.9877                 0.7986
 IR Inten    --     81.8735                78.1119                79.5059

                     31                     32                     33
                      A                      A                      A
 Frequencies --    640.3561               642.9974               687.4808
 Red. masses --      5.8188                 5.9657                 5.0611
 Frc consts  --      1.4058                 1.4532                 1.4094
 IR Inten    --     16.5948                14.0618               154.2964

                     34                     35                     36
                      A                      A                      A
 Frequencies --    720.4786               727.7980               731.8249
 Red. masses --      1.7043                 1.6044                 1.8092
 Frc consts  --      0.5213                 0.5007                 0.5709
 IR Inten    --     25.7853               155.5611                17.9293

                     37                     38                     39
                      A                      A                      A
 Frequencies --    750.6849               784.1099               800.7954
 Red. masses --      2.4705                 2.9954                 4.0989
 Frc consts  --      0.8203                 1.0851                 1.5487
 IR Inten    --    242.2853                19.9341                44.2604

                     40                     41                     42
                      A                      A                      A
 Frequencies --    826.9143               871.4941               877.3868
 Red. masses --      2.9491                 1.2549                 1.2871
 Frc consts  --      1.1881                 0.5616                 0.5838
 IR Inten    --     33.4281                 0.0367                 1.8189

                     43                     44                     45
                      A                      A                      A
 Frequencies --    884.8088               951.3512               961.5926
 Red. masses --      3.1697                 1.5047                 1.4635
 Frc consts  --      1.4621                 0.8024                 0.7973
 IR Inten    --     41.2386                 3.7945                 0.6068

                     46                     47                     48
                      A                      A                      A
 Frequencies --   1006.2693              1008.9766              1016.0663
 Red. masses --      1.4037                 1.3906                 1.4030
 Frc consts  --      0.8374                 0.8341                 0.8534
 IR Inten    --     12.2149                 0.8970                 1.0264

                     49                     50                     51
                      A                      A                      A
 Frequencies --   1024.2563              1025.8495              1027.0344
 Red. masses --      2.5806                 2.0186                 4.3609
 Frc consts  --      1.5951                 1.2516                 2.7102
 IR Inten    --      2.2075                 0.5983                 1.0344

                     52                     53                     54
                      A                      A                      A
 Frequencies --   1036.3809              1037.1881              1063.3931
 Red. masses --      2.3429                 1.4641                 2.3823
 Frc consts  --      1.4827                 0.9280                 1.5872
 IR Inten    --     16.1339                 4.4728                15.5121

                     55                     56                     57
                      A                      A                      A
 Frequencies --   1066.0995              1073.0087              1087.2982
 Red. masses --      2.6428                 2.4282                 1.5896
 Frc consts  --      1.7697                 1.6472                 1.1072
 IR Inten    --     16.4137                24.5778               111.7356

                     58                     59                     60
                      A                      A                      A
 Frequencies --   1099.0982              1111.7741              1128.6059
 Red. masses --      1.3366                 1.5489                 1.5821
 Frc consts  --      0.9513                 1.1280                 1.1873
 IR Inten    --    116.8586                 6.5499                 9.6887

                     61                     62                     63
                      A                      A                      A
 Frequencies --   1181.1008              1187.7723              1208.7375
 Red. masses --      1.1318                 1.1366                 1.9857
 Frc consts  --      0.9302                 0.9448                 1.7093
 IR Inten    --      0.1962                 0.3795               118.4693

                     64                     65                     66
                      A                      A                      A
 Frequencies --   1209.5679              1223.1908              1254.8206
 Red. masses --      1.5380                 1.1348                 1.4089
 Frc consts  --      1.3258                 1.0004                 1.3071
 IR Inten    --     69.3190                 3.3527                37.7445

                     67                     68                     69
                      A                      A                      A
 Frequencies --   1264.1888              1306.0152              1322.1235
 Red. masses --      3.7991                 4.5620                 4.6086
 Frc consts  --      3.5773                 4.5846                 4.7464
 IR Inten    --     51.5160                 8.4736                25.5094

                     70                     71                     72
                      A                      A                      A
 Frequencies --   1341.8746              1356.9533              1366.3949
 Red. masses --      1.2985                 1.4897                 1.4602
 Frc consts  --      1.3776                 1.6161                 1.6062
 IR Inten    --      9.9495                37.1852                28.5258

                     73                     74                     75
                      A                      A                      A
 Frequencies --   1375.4068              1445.8725              1465.7629
 Red. masses --      4.2338                 1.9021                 1.8919
 Frc consts  --      4.7189                 2.3429                 2.3949
 IR Inten    --    984.4600               150.7862               129.0188

                     76                     77                     78
                      A                      A                      A
 Frequencies --   1486.2243              1491.1495              1498.2282
 Red. masses --      2.2116                 2.2134                 1.0494
 Frc consts  --      2.8782                 2.8997                 1.3878
 IR Inten    --      4.3818                54.9904                19.5740

                     79                     80                     81
                      A                      A                      A
 Frequencies --   1510.4805              1543.1548              1546.4520
 Red. masses --      1.0565                 2.2933                 2.4840
 Frc consts  --      1.4201                 3.2176                 3.5001
 IR Inten    --     17.9363                46.5070                28.1326

                     82                     83                     84
                      A                      A                      A
 Frequencies --   1599.8094              1635.4053              1644.6054
 Red. masses --      2.0058                 2.3100                 5.5963
 Frc consts  --      3.0246                 3.6402                 8.9181
 IR Inten    --    615.4255               607.8783                12.9665

                     85                     86                     87
                      A                      A                      A
 Frequencies --   1648.7924              1657.0710              1672.4691
 Red. masses --      1.8889                 1.7893                 5.9932
 Frc consts  --      3.0254                 2.8947                 9.8769
 IR Inten    --     29.0622                40.4513                42.7033

                     88                     89                     90
                      A                      A                      A
 Frequencies --   1674.9016              3078.5864              3158.0406
 Red. masses --      5.5748                 1.0347                 1.1034
 Frc consts  --      9.2142                 5.7779                 6.4839
 IR Inten    --      2.7934                31.2652                 2.5710

                     91                     92                     93
                      A                      A                      A
 Frequencies --   3185.5029              3188.7930              3189.0165
 Red. masses --      1.0860                 1.1028                 1.0900
 Frc consts  --      6.4931                 6.6067                 6.5311
 IR Inten    --      8.7524                13.7931                 1.1629

                     94                     95                     96
                      A                      A                      A
 Frequencies --   3199.0724              3202.3358              3206.1358
 Red. masses --      1.0911                 1.0864                 1.0950
 Frc consts  --      6.5788                 6.5641                 6.6321
 IR Inten    --     13.8724                 0.4124                50.8722

                     97                     98                     99
                      A                      A                      A
 Frequencies --   3210.2197              3217.8325              3218.6645
 Red. masses --      1.0893                 1.0987                 1.0938
 Frc consts  --      6.6142                 6.7030                 6.6761
 IR Inten    --      4.3553                24.4127                13.7815

                    100                    101                    102
                      A                      A                      A
 Frequencies --   3227.0127              3246.4303              3507.3275
 Red. masses --      1.0979                 1.0924                 1.0521
 Frc consts  --      6.7362                 6.7831                 7.6251
 IR Inten    --     19.4008                13.9659                41.6456

                    103                    104                    105
                      A                      A                      A
 Frequencies --   3580.3011              3630.3744              3755.2700
 Red. masses --      1.0957                 1.0460                 1.1041
 Frc consts  --      8.2752                 8.1228                 9.1736
 IR Inten    --     74.1942                55.1666                97.3256

 - Thermochemistry -
 -------------------
 Temperature   298.150 Kelvin.  Pressure   1.00000 Atm.
 Atom     1 has atomic number  6 and mass  12.00000

 Molecular mass:   332.05242 amu.
 Principal axes and moments of inertia in atomic units:
                           1         2         3
     Eigenvalues --  3936.018168223.916599242.52306
           X            0.99997  -0.00751  -0.00072
           Y            0.00751   0.99997   0.00329
           Z            0.00070  -0.00330   0.99999
 This molecule is an asymmetric top.
 Rotational symmetry number  1.
 Warning -- assumption of classical behavior for rotation
           may cause significant error
 Rotational temperatures (Kelvin)      0.02201     0.01053     0.00937
 Rotational constants (GHZ):           0.45852     0.21945     0.19526
    1 imaginary frequencies ignored.
 Zero-point vibrational energy     789870.7 (Joules/Mol)
                                  188.78363 (Kcal/Mol)
 Warning -- explicit consideration of  28 degrees of freedom as
           vibrations may cause significant error
 Vibrational temperatures:     47.64    63.27    75.40    83.19   101.80
          (Kelvin)            120.95   158.83   193.18   237.19   250.58
                              270.22   277.63   305.40   326.98   369.04
                              386.05   403.06   448.22   472.37   562.47
                              608.10   609.70   676.82   735.30   744.05
                              753.43   825.90   878.91   906.20   921.33
                              925.13   989.13  1036.61  1047.14  1052.93
                             1080.07  1128.16  1152.17  1189.75  1253.89
                             1262.36  1273.04  1368.78  1383.52  1447.80
                             1451.69  1461.89  1473.68  1475.97  1477.67
                             1491.12  1492.28  1529.99  1533.88  1543.82
                             1564.38  1581.36  1599.59  1623.81  1699.34
                             1708.94  1739.10  1740.30  1759.90  1805.41
                             1818.89  1879.06  1902.24  1930.66  1952.35
                             1965.94  1978.90  2080.29  2108.91  2138.35
                             2145.43  2155.62  2173.24  2220.26  2225.00
                             2301.77  2352.98  2366.22  2372.24  2384.16
                             2406.31  2409.81  4429.40  4543.72  4583.23
                             4587.96  4588.28  4602.75  4607.45  4612.91
                             4618.79  4629.74  4630.94  4642.95  4670.89
                             5046.26  5151.25  5223.30  5403.00

 Zero-point correction=                           0.300846 (Hartree/Particle)
 Thermal correction to Energy=                    0.319814
 Thermal correction to Enthalpy=                  0.320759
 Thermal correction to Gibbs Free Energy=         0.252382
 Sum of electronic and zero-point Energies=          -3378.580443
 Sum of electronic and thermal Energies=             -3378.561474
 Sum of electronic and thermal Enthalpies=           -3378.560530
 Sum of electronic and thermal Free Energies=        -3378.628907

                     E (Thermal)             CV                S
                      KCal/Mol        Cal/Mol-Kelvin    Cal/Mol-Kelvin
 Total                  200.687             71.651            143.911
 Electronic               0.000              0.000              0.000
 Translational            0.889              2.981             43.295
 Rotational               0.889              2.981             34.058
 Vibrational            198.909             65.690             66.558
 Vibration     1          0.594              1.983              5.634
 Vibration     2          0.595              1.980              5.071
 Vibration     3          0.596              1.977              4.725
 Vibration     4          0.596              1.974              4.530
 Vibration     5          0.598              1.968              4.132
 Vibration     6          0.601              1.960              3.794
 Vibration     7          0.606              1.941              3.262
 Vibration     8          0.613              1.919              2.884
 Vibration     9          0.623              1.886              2.493
 Vibration    10          0.627              1.874              2.390
 Vibration    11          0.632              1.857              2.249
 Vibration    12          0.635              1.850              2.199
 Vibration    13          0.643              1.822              2.024
 Vibration    14          0.651              1.799              1.900
 Vibration    15          0.666              1.752              1.685
 Vibration    16          0.673              1.731              1.607
 Vibration    17          0.680              1.710              1.533
 Vibration    18          0.700              1.652              1.354
 Vibration    19          0.712              1.619              1.268
 Vibration    20          0.759              1.490              0.997
 Vibration    21          0.785              1.421              0.883
 Vibration    22          0.786              1.419              0.879
 Vibration    23          0.827              1.316              0.736
 Vibration    24          0.866              1.225              0.631
 Vibration    25          0.872              1.212              0.617
 Vibration    26          0.879              1.198              0.602
 Vibration    27          0.930              1.087              0.497
 Vibration    28          0.970              1.009              0.431

 Optimization completed.
    -- Stationary point found.
 Normal termination of Gaussian 16 at Fri Mar 26 03:40:56 2021.
