 Gaussian 16, Revision A.03,
 Gaussian 16:  ES64L-G16RevA.03 25-Dec-2016

 ----------------------------------------------------------------------
 # wB97XD def2tzvp, opt=(ts, noeigen, calcfc, maxcycles=70, maxstep=8),
  freq=noraman, scrf=(iefpcm, solvent=water)
 ----------------------------------------------------------------------

 ------------------------
 1_iteration/TS-657-1.out
 ------------------------
 Symbolic Z-matrix:
 Charge =  0 Multiplicity = 1

 SCF Done:  E(RwB97XD) =  -2900.71957241     A.U. after   15 cycles
 SCF Done:  E(RwB97XD) =  -2900.71957241     A.U. after    7 cycles
 Optimization completed.
    -- Stationary point found.
 Normal termination of Gaussian 16 at Fri Feb 19 09:37:09 2021.

 ---------------------------------------------------------------------
 #N Geom=AllCheck Guess=TCheck SCRF=Check GenChk RwB97XD/def2TZVP Freq
 ---------------------------------------------------------------------

 Structure from the checkpoint file:  "/beegfs/scratch/user/q/tla25/Gau-45953.chk"
 ------------------------
 1_iteration/TS-657-1.out
 ------------------------
 Charge =  0 Multiplicity = 1

                         Standard orientation:
 ---------------------------------------------------------------------
 Center     Atomic      Atomic             Coordinates (Angstroms)
 Number     Number       Type             X           Y           Z
 ---------------------------------------------------------------------
      1          6           0        1.021073   -0.572717    0.049034
      2          6           0        2.220551   -0.566843   -0.715951
      3          8           0        3.291325   -1.095057   -0.410739
      4          6           0       -0.037038    0.121019   -0.500841
      5          6           0        1.110278    2.580825    0.217429
      6          1           0        1.387540    2.757134   -0.820717
      7          1           0        1.107876    3.528339    0.755862
      8          1           0        1.847106    1.914771    0.667352
      9          7           0       -0.189877    1.929692    0.260937
     10          1           0       -0.894797    2.436569   -0.261473
     11          1           0       -0.523690    1.814995    1.210568
     12         35           0       -1.848111   -0.439565   -0.136825
     13          1           0        0.043412    0.477200   -1.519066
     14          6           0        0.966868   -1.233948    1.393812
     15          1           0        0.256301   -2.064312    1.416821
     16          1           0        1.952202   -1.625008    1.644535
     17          1           0        0.672020   -0.534165    2.181457
     18          1           0        2.144038   -0.038151   -1.688000
 ---------------------------------------------------------------------

 SCF Done:  E(RwB97XD) =  -2900.71957241     A.U. after    1 cycles

 The electronic state is 1-A.
 Alpha  occ. eigenvalues -- -483.13345 -62.68211 -56.47316 -56.46977 -56.46962
 Alpha  occ. eigenvalues --  -19.20886 -14.48396 -10.38346 -10.34549 -10.31712
 Alpha  occ. eigenvalues --  -10.27145 -10.26918  -8.82335  -6.64461  -6.63381
 Alpha  occ. eigenvalues --   -6.63329  -2.74854  -2.74549  -2.74508  -2.73633
 Alpha  occ. eigenvalues --   -2.73633  -1.11083  -1.03865  -0.93665  -0.86819
 Alpha  occ. eigenvalues --   -0.78958  -0.78886  -0.70832  -0.64132  -0.61636
 Alpha  occ. eigenvalues --   -0.57621  -0.56949  -0.54518  -0.52555  -0.49913
 Alpha  occ. eigenvalues --   -0.48021  -0.47765  -0.45799  -0.45424  -0.45083
 Alpha  occ. eigenvalues --   -0.44490  -0.37831  -0.37033  -0.32455  -0.28160
 Alpha virt. eigenvalues --    0.03926   0.06532   0.09987   0.13223   0.13562
 Alpha virt. eigenvalues --    0.14296   0.15917   0.17060   0.18991   0.19324
 Alpha virt. eigenvalues --    0.19949   0.20836   0.21875   0.22316   0.24592

 Mulliken charges:
               1
     1  C   -0.099784
     2  C    0.106753
     3  O   -0.508016
     4  C   -0.054948
     5  C   -0.304048
     6  H    0.157423
     7  H    0.159835
     8  H    0.161752
     9  N   -0.347524
    10  H    0.291567
    11  H    0.285836
    12  Br  -0.099901
    13  H    0.200419
    14  C   -0.398735
    15  H    0.130231
    16  H    0.130334
    17  H    0.124477
    18  H    0.064329
 Sum of Mulliken charges =  -0.00000

 Dipole moment (field-independent basis, Debye):
    X=             -5.7617    Y=              8.2163    Z=              0.7927  Tot=             10.0665
 Quadrupole moment (field-independent basis, Debye-Ang):
   XX=            -86.7383   YY=            -53.2843   ZZ=            -58.4610
   XY=              8.3144   XZ=              1.3575   YZ=             -0.5291

  Exact polarizability: 175.486 -18.776 136.202  -6.436  -1.501 107.181
 Approx polarizability: 137.132 -13.631 108.761  -3.479  -1.694  91.829

 ******    1 imaginary frequencies (negative Signs) ******

                      1                      2                      3
                      A                      A                      A
 Frequencies --   -367.8227                60.1463                73.0252
 Red. masses --      5.9635                 1.4580                 1.4218
 Frc consts  --      0.4754                 0.0031                 0.0045
 IR Inten    --    816.2107                 0.8806                 1.2978

                      4                      5                      6
                      A                      A                      A
 Frequencies --     84.4902               121.7942               148.3760
 Red. masses --      3.7741                 1.7440                 1.8520
 Frc consts  --      0.0159                 0.0152                 0.0240
 IR Inten    --      2.0498                 7.1355                10.6247

                      7                      8                      9
                      A                      A                      A
 Frequencies --    175.1921               199.2239               263.1706
 Red. masses --      4.2405                 2.8869                 3.7950
 Frc consts  --      0.0767                 0.0675                 0.1549
 IR Inten    --      8.3296                 3.6466                16.2624

                     10                     11                     12
                      A                      A                      A
 Frequencies --    271.3127               324.0310               370.0543
 Red. masses --      4.0398                 3.8005                 3.0361
 Frc consts  --      0.1752                 0.2351                 0.2450
 IR Inten    --     21.5391                 3.1868                 1.8497

                     13                     14                     15
                      A                      A                      A
 Frequencies --    483.2346               607.4141               712.3089
 Red. masses --      2.4457                 1.9131                 2.9986
 Frc consts  --      0.3365                 0.4159                 0.8964
 IR Inten    --     95.3807                30.1210               158.5572

                     16                     17                     18
                      A                      A                      A
 Frequencies --    737.3350               866.6158               996.2819
 Red. masses --      3.4124                 3.4580                 1.0972
 Frc consts  --      1.0930                 1.5301                 0.6416
 IR Inten    --    107.5826                19.7263                59.6609

                     19                     20                     21
                      A                      A                      A
 Frequencies --   1002.8851              1017.8992              1026.2488
 Red. masses --      1.1295                 1.4672                 1.5702
 Frc consts  --      0.6693                 0.8957                 0.9743
 IR Inten    --     76.0275               130.9662               112.3251

                     22                     23                     24
                      A                      A                      A
 Frequencies --   1063.3383              1086.4731              1107.9708
 Red. masses --      1.4558                 4.6483                 1.1196
 Frc consts  --      0.9698                 3.2329                 0.8098
 IR Inten    --     20.5568                33.8631                43.1237

                     25                     26                     27
                      A                      A                      A
 Frequencies --   1206.9993              1213.3855              1342.3459
 Red. masses --      1.4015                 1.3297                 1.3324
 Frc consts  --      1.2029                 1.1534                 1.4145
 IR Inten    --     33.8430                24.5332                 0.6285

                     28                     29                     30
                      A                      A                      A
 Frequencies --   1365.0805              1404.5827              1427.7464
 Red. masses --      1.7740                 1.3419                 2.2161
 Frc consts  --      1.9477                 1.5598                 2.6616
 IR Inten    --    491.4437               292.9073                30.6050

                     31                     32                     33
                      A                      A                      A
 Frequencies --   1456.3119              1478.6252              1485.1009
 Red. masses --      1.1928                 1.2117                 1.0551
 Frc consts  --      1.4905                 1.5608                 1.3710
 IR Inten    --      7.2376                 2.1331                16.3318

                     34                     35                     36
                      A                      A                      A
 Frequencies --   1492.5528              1500.4190              1514.9368
 Red. masses --      1.0411                 1.0388                 2.2045
 Frc consts  --      1.3664                 1.3779                 2.9809
 IR Inten    --     22.1950                24.9924               407.9534

                     37                     38                     39
                      A                      A                      A
 Frequencies --   1647.1512              1666.6551              2898.9106
 Red. masses --      1.0904                 7.5047                 1.0810
 Frc consts  --      1.7431                12.2822                 5.3522
 IR Inten    --     69.5461              1105.2404               172.7264

                     40                     41                     42
                      A                      A                      A
 Frequencies --   3034.6827              3065.4525              3087.6217
 Red. masses --      1.0396                 1.0327                 1.1006
 Frc consts  --      5.6410                 5.7177                 6.1821
 IR Inten    --     51.7867                28.7514                38.3504

                     43                     44                     45
                      A                      A                      A
 Frequencies --   3142.0254              3144.3273              3158.4897
 Red. masses --      1.0980                 1.1047                 1.1058
 Frc consts  --      6.3869                 6.4350                 6.4998
 IR Inten    --     13.5240                 9.4546                16.1022

                     46                     47                     48
                      A                      A                      A
 Frequencies --   3212.7475              3530.8975              3615.8762
 Red. masses --      1.0916                 1.0502                 1.0967
 Frc consts  --      6.6385                 7.7143                 8.4485
 IR Inten    --      2.7397                56.2512                48.4843

 - Thermochemistry -
 -------------------
 Temperature   298.150 Kelvin.  Pressure   1.00000 Atm.
 Atom     1 has atomic number  6 and mass  12.00000

 Molecular mass:   178.99458 amu.
 Principal axes and moments of inertia in atomic units:
                           1         2         3
     Eigenvalues --  1030.612842179.619672810.58812
           X            0.99999  -0.00485   0.00068
           Y            0.00486   0.99969  -0.02460
           Z           -0.00056   0.02461   0.99970
 This molecule is an asymmetric top.
 Rotational symmetry number  1.
 Warning -- assumption of classical behavior for rotation
           may cause significant error
 Rotational temperatures (Kelvin)      0.08404     0.03974     0.03082
 Rotational constants (GHZ):           1.75113     0.82801     0.64212
    1 imaginary frequencies ignored.
 Zero-point vibrational energy     388138.8 (Joules/Mol)
                                   92.76741 (Kcal/Mol)
 Warning -- explicit consideration of  13 degrees of freedom as
           vibrations may cause significant error
 Vibrational temperatures:     86.54   105.07   121.56   175.23   213.48
          (Kelvin)            252.06   286.64   378.64   390.36   466.21
                              532.43   695.27   873.93  1024.85  1060.86
                             1246.87  1433.43  1442.93  1464.53  1476.54
                             1529.91  1563.19  1594.12  1736.60  1745.79
                             1931.34  1964.05  2020.88  2054.21  2095.31
                             2127.41  2136.73  2147.45  2158.77  2179.66
                             2369.88  2397.94  4170.89  4366.23  4410.50
                             4442.40  4520.67  4523.99  4544.36  4622.43
                             5080.17  5202.44

 Zero-point correction=                           0.147834 (Hartree/Particle)
 Thermal correction to Energy=                    0.158173
 Thermal correction to Enthalpy=                  0.159117
 Thermal correction to Gibbs Free Energy=         0.110406
 Sum of electronic and zero-point Energies=          -2900.571738
 Sum of electronic and thermal Energies=             -2900.561400
 Sum of electronic and thermal Enthalpies=           -2900.560455
 Sum of electronic and thermal Free Energies=        -2900.609166

                     E (Thermal)             CV                S
                      KCal/Mol        Cal/Mol-Kelvin    Cal/Mol-Kelvin
 Total                   99.255             34.196            102.521
 Electronic               0.000              0.000              0.000
 Translational            0.889              2.981             41.453
 Rotational               0.889              2.981             30.224
 Vibrational             97.478             28.235             30.843
 Vibration     1          0.597              1.973              4.452
 Vibration     2          0.599              1.967              4.070
 Vibration     3          0.601              1.960              3.784
 Vibration     4          0.609              1.931              3.072
 Vibration     5          0.618              1.904              2.693
 Vibration     6          0.627              1.873              2.379
 Vibration     7          0.637              1.841              2.140
 Vibration     8          0.670              1.740              1.641
 Vibration     9          0.675              1.726              1.588
 Vibration    10          0.709              1.627              1.290
 Vibration    11          0.742              1.534              1.080
 Vibration    12          0.839              1.287              0.701
 Vibration    13          0.966              1.016              0.437

 Optimization completed.
    -- Stationary point found.
 Normal termination of Gaussian 16 at Fri Feb 19 09:45:33 2021.
