 Gaussian 16, Revision A.03,
 Gaussian 16:  ES64L-G16RevA.03 25-Dec-2016

 ----------------------------------------------------------------------
 # wB97XD def2tzvp, opt=(ts, noeigen, calcfc, maxcycles=70, maxstep=1),
  freq=noraman, scrf=(iefpcm, solvent=water)
 ----------------------------------------------------------------------

 ------------------------
 0_iteration/TS-653-0.out
 ------------------------
 Symbolic Z-matrix:
 Charge =  0 Multiplicity = 1

 SCF Done:  E(RwB97XD) =  -2956.08791018     A.U. after   14 cycles
 SCF Done:  E(RwB97XD) =  -2956.08786450     A.U. after   10 cycles
 SCF Done:  E(RwB97XD) =  -2956.08782293     A.U. after   10 cycles
 SCF Done:  E(RwB97XD) =  -2956.08778563     A.U. after   10 cycles
 SCF Done:  E(RwB97XD) =  -2956.08775264     A.U. after   10 cycles
 SCF Done:  E(RwB97XD) =  -2956.08772404     A.U. after   10 cycles
 SCF Done:  E(RwB97XD) =  -2956.08769997     A.U. after   10 cycles
 SCF Done:  E(RwB97XD) =  -2956.08768071     A.U. after   10 cycles
 SCF Done:  E(RwB97XD) =  -2956.08766687     A.U. after   10 cycles
 SCF Done:  E(RwB97XD) =  -2956.08766010     A.U. after   10 cycles
 SCF Done:  E(RwB97XD) =  -2956.09141190     A.U. after   10 cycles
 SCF Done:  E(RwB97XD) =  -2956.09145948     A.U. after   10 cycles
 SCF Done:  E(RwB97XD) =  -2956.09150077     A.U. after   10 cycles
 SCF Done:  E(RwB97XD) =  -2956.09153405     A.U. after   10 cycles
 SCF Done:  E(RwB97XD) =  -2956.09155614     A.U. after   10 cycles
 SCF Done:  E(RwB97XD) =  -2956.09156620     A.U. after   10 cycles
 SCF Done:  E(RwB97XD) =  -2956.09156981     A.U. after   10 cycles
 SCF Done:  E(RwB97XD) =  -2956.09157074     A.U. after   10 cycles
 SCF Done:  E(RwB97XD) =  -2956.09157077     A.U. after    7 cycles
 Optimization completed.
    -- Stationary point found.
 Normal termination of Gaussian 16 at Thu Feb 18 18:26:54 2021.

 ---------------------------------------------------------------------
 #N Geom=AllCheck Guess=TCheck SCRF=Check GenChk RwB97XD/def2TZVP Freq
 ---------------------------------------------------------------------

 Structure from the checkpoint file:  "/beegfs/scratch/user/q/tla25/Gau-15120.chk"
 ------------------------
 0_iteration/TS-653-0.out
 ------------------------
 Charge =  0 Multiplicity = 1

                         Standard orientation:
 ---------------------------------------------------------------------
 Center     Atomic      Atomic             Coordinates (Angstroms)
 Number     Number       Type             X           Y           Z
 ---------------------------------------------------------------------
      1          6           0        0.430720   -0.487857    0.687539
      2          6           0        1.857300   -0.581189    0.485343
      3          8           0        2.600360   -1.085164    1.343035
      4          6           0       -0.470119    0.073110   -0.193147
      5          6           0        0.314735    2.639353    0.279074
      6          1           0        0.101906    3.628022    0.682417
      7          1           0        1.010783    2.119016    0.936857
      8          1           0        0.760076    2.737355   -0.708827
      9          7           0       -0.900136    1.835751    0.180107
     10          1           0       -1.394394    1.804713    1.065683
     11          1           0       -1.539280    2.192396   -0.522988
     12         35           0       -2.290370   -0.640707   -0.176990
     13          1           0       -0.192441    0.253285   -1.224317
     14          1           0        0.081055   -0.857787    1.641642
     15          7           0        2.410753   -0.102455   -0.670258
     16          6           0        3.804404   -0.312437   -0.983744
     17          1           0        1.813690    0.184945   -1.422429
     18          1           0        4.442724    0.100147   -0.202136
     19          1           0        4.049764   -1.372528   -1.096230
     20          1           0        4.029626    0.197567   -1.918635
 ---------------------------------------------------------------------

 SCF Done:  E(RwB97XD) =  -2956.09157077     A.U. after    1 cycles

 The electronic state is 1-A.
 Alpha  occ. eigenvalues -- -483.12873 -62.67746 -56.46847 -56.46509 -56.46500
 Alpha  occ. eigenvalues --  -19.19041 -14.49888 -14.43922 -10.38628 -10.36920
 Alpha  occ. eigenvalues --  -10.32059 -10.30347 -10.24815  -8.81871  -6.63988
 Alpha  occ. eigenvalues --   -6.62910  -6.62881  -2.74377  -2.74073  -2.74050
 Alpha  occ. eigenvalues --   -2.73178  -2.73178  -1.11658  -1.05232  -1.00427
 Alpha  occ. eigenvalues --   -0.92151  -0.84549  -0.79486  -0.78335  -0.71005
 Alpha  occ. eigenvalues --   -0.65879  -0.64536  -0.60066  -0.57765  -0.55653
 Alpha  occ. eigenvalues --   -0.54227  -0.52977  -0.50347  -0.49376  -0.48543
 Alpha  occ. eigenvalues --   -0.46612  -0.46471  -0.45286  -0.44539  -0.37756
 Alpha  occ. eigenvalues --   -0.37282  -0.33364  -0.32727  -0.27174
 Alpha virt. eigenvalues --    0.05320   0.07325   0.10309   0.12296   0.13669
 Alpha virt. eigenvalues --    0.15564   0.16151   0.16712   0.17403   0.18625
 Alpha virt. eigenvalues --    0.19845   0.20301   0.21317   0.21931   0.22368

 Mulliken charges:
               1
     1  C   -0.442872
     2  C    0.360122
     3  O   -0.571741
     4  C   -0.054378
     5  C   -0.303811
     6  H    0.164569
     7  H    0.158380
     8  H    0.158339
     9  N   -0.273592
    10  H    0.286215
    11  H    0.294737
    12  Br  -0.135739
    13  H    0.189147
    14  H    0.127228
    15  N   -0.322701
    16  C   -0.251179
    17  H    0.237396
    18  H    0.125239
    19  H    0.118474
    20  H    0.136168
 Sum of Mulliken charges =  -0.00000

 Dipole moment (field-independent basis, Debye):
    X=             -4.4921    Y=              9.2110    Z=             -5.0200  Tot=             11.4114
 Quadrupole moment (field-independent basis, Debye-Ang):
   XX=            -77.7863   YY=            -60.5680   ZZ=            -68.4601
   XY=              1.9017   XZ=            -14.3153   YZ=              4.4486

  Exact polarizability: 185.645 -10.371 138.218   7.754  -8.967 118.892
 Approx polarizability: 136.052  -6.564 111.872   7.579  -8.787 105.274

 ******    1 imaginary frequencies (negative Signs) ******

                      1                      2                      3
                      A                      A                      A
 Frequencies --   -374.1639                40.4480                56.6941
 Red. masses --      5.7509                 3.4746                 2.3273
 Frc consts  --      0.4744                 0.0033                 0.0044
 IR Inten    --    751.3206                21.0991                15.7267

                      4                      5                      6
                      A                      A                      A
 Frequencies --     59.6419               101.0182               134.5234
 Red. masses --      2.8945                 1.9858                 2.1074
 Frc consts  --      0.0061                 0.0119                 0.0225
 IR Inten    --      2.0264                18.3561                 0.7980

                      7                      8                      9
                      A                      A                      A
 Frequencies --    151.3868               184.2046               190.3049
 Red. masses --      2.2650                 1.9775                 1.6581
 Frc consts  --      0.0306                 0.0395                 0.0354
 IR Inten    --      6.0357                 2.2896                 5.0549

                     10                     11                     12
                      A                      A                      A
 Frequencies --    228.3193               283.2349               295.6438
 Red. masses --      3.9181                 3.7865                 2.8927
 Frc consts  --      0.1203                 0.1790                 0.1490
 IR Inten    --     22.1030                 6.4727                51.9649

                     13                     14                     15
                      A                      A                      A
 Frequencies --    340.3673               437.6860               483.8452
 Red. masses --      1.6317                 2.1608                 5.2372
 Frc consts  --      0.1114                 0.2439                 0.7224
 IR Inten    --     45.8257               135.9152                12.1913

                     16                     17                     18
                      A                      A                      A
 Frequencies --    647.4475               668.0005               727.2776
 Red. masses --      2.9336                 1.5172                 2.2802
 Frc consts  --      0.7245                 0.3989                 0.7106
 IR Inten    --    123.6690                61.8702               159.0221

                     19                     20                     21
                      A                      A                      A
 Frequencies --    767.0039               795.3171               902.9933
 Red. masses --      2.3389                 5.4686                 2.8789
 Frc consts  --      0.8107                 2.0380                 1.3831
 IR Inten    --     46.2066                94.2507                 4.6386

                     22                     23                     24
                      A                      A                      A
 Frequencies --   1006.7322              1044.8717              1079.2254
 Red. masses --      1.0850                 1.1534                 4.3506
 Frc consts  --      0.6479                 0.7419                 2.9855
 IR Inten    --     27.7526                56.1392                62.7865

                     25                     26                     27
                      A                      A                      A
 Frequencies --   1144.9706              1155.4640              1158.4223
 Red. masses --      1.9210                 1.3504                 1.3386
 Frc consts  --      1.4838                 1.0622                 1.0584
 IR Inten    --      6.4925                13.8056                87.7507

                     28                     29                     30
                      A                      A                      A
 Frequencies --   1188.9652              1236.4504              1245.5989
 Red. masses --      1.8483                 1.3761                 1.2508
 Frc consts  --      1.5395                 1.2395                 1.1434
 IR Inten    --     36.4667                57.6089               204.4200

                     31                     32                     33
                      A                      A                      A
 Frequencies --   1284.1896              1321.6296              1343.8052
 Red. masses --      1.4779                 2.4981                 1.3241
 Frc consts  --      1.4360                 2.5708                 1.4088
 IR Inten    --     69.4198               539.1044                 5.6927

                     34                     35                     36
                      A                      A                      A
 Frequencies --   1444.0805              1458.0734              1474.4702
 Red. masses --      1.3637                 1.2104                 1.7106
 Frc consts  --      1.6755                 1.5161                 2.1912
 IR Inten    --    161.0779                23.5367               310.9962

                     37                     38                     39
                      A                      A                      A
 Frequencies --   1478.6098              1490.2541              1501.5474
 Red. masses --      1.2440                 1.0397                 1.0381
 Frc consts  --      1.6024                 1.3605                 1.3790
 IR Inten    --     98.8879                24.8334                20.2310

                     40                     41                     42
                      A                      A                      A
 Frequencies --   1507.5546              1554.5032              1639.6900
 Red. masses --      1.0977                 1.8205                 1.2336
 Frc consts  --      1.4699                 2.5919                 1.9541
 IR Inten    --     32.9797               498.0492               337.3127

                     43                     44                     45
                      A                      A                      A
 Frequencies --   1642.3878              3038.6673              3072.6338
 Red. masses --      3.4912                 1.0426                 1.0325
 Frc consts  --      5.5485                 5.6719                 5.7435
 IR Inten    --    751.1098                98.7262                29.4621

                     46                     47                     48
                      A                      A                      A
 Frequencies --   3106.1593              3153.4154              3155.8880
 Red. masses --      1.0953                 1.1023                 1.1049
 Frc consts  --      6.2264                 6.4582                 6.4837
 IR Inten    --     47.5522                25.9427                 4.8321

                     49                     50                     51
                      A                      A                      A
 Frequencies --   3169.9508              3192.0174              3212.5223
 Red. masses --      1.1065                 1.0917                 1.0875
 Frc consts  --      6.5510                 6.5535                 6.6128
 IR Inten    --     14.0570                 6.6853                 5.5329

                     52                     53                     54
                      A                      A                      A
 Frequencies --   3508.9464              3594.9147              3694.2150
 Red. masses --      1.0507                 1.0972                 1.0771
 Frc consts  --      7.6225                 8.3547                 8.6603
 IR Inten    --     51.0278                52.3394                24.5200

 - Thermochemistry -
 -------------------
 Temperature   298.150 Kelvin.  Pressure   1.00000 Atm.
 Atom     1 has atomic number  6 and mass  12.00000

 Molecular mass:   194.00547 amu.
 Principal axes and moments of inertia in atomic units:
                           1         2         3
     Eigenvalues --  1065.601953452.351793992.30663
           X            0.99946  -0.02301  -0.02359
           Y            0.02327   0.99967   0.01089
           Z            0.02334  -0.01143   0.99966
 This molecule is an asymmetric top.
 Rotational symmetry number  1.
 Warning -- assumption of classical behavior for rotation
           may cause significant error
 Rotational temperatures (Kelvin)      0.08128     0.02509     0.02170
 Rotational constants (GHZ):           1.69364     0.52276     0.45205
    1 imaginary frequencies ignored.
 Zero-point vibrational energy     435417.9 (Joules/Mol)
                                  104.06737 (Kcal/Mol)
 Warning -- explicit consideration of  14 degrees of freedom as
           vibrations may cause significant error
 Vibrational temperatures:     58.20    81.57    85.81   145.34   193.55
          (Kelvin)            217.81   265.03   273.81   328.50   407.51
                              425.37   489.71   629.73   696.15   931.53
                              961.10  1046.39  1103.55  1144.28  1299.21
                             1448.46  1503.34  1552.76  1647.36  1662.45
                             1666.71  1710.66  1778.98  1792.14  1847.66
                             1901.53  1933.44  2077.71  2097.84  2121.43
                             2127.39  2144.14  2160.39  2169.03  2236.58
                             2359.15  2363.03  4371.96  4420.83  4469.07
                             4537.06  4540.62  4560.85  4592.60  4622.10
                             5048.59  5172.28  5315.15

 Zero-point correction=                           0.165842 (Hartree/Particle)
 Thermal correction to Energy=                    0.177504
 Thermal correction to Enthalpy=                  0.178448
 Thermal correction to Gibbs Free Energy=         0.126005
 Sum of electronic and zero-point Energies=          -2955.925729
 Sum of electronic and thermal Energies=             -2955.914067
 Sum of electronic and thermal Enthalpies=           -2955.913123
 Sum of electronic and thermal Free Energies=        -2955.965565

                     E (Thermal)             CV                S
                      KCal/Mol        Cal/Mol-Kelvin    Cal/Mol-Kelvin
 Total                  111.385             38.715            110.375
 Electronic               0.000              0.000              0.000
 Translational            0.889              2.981             41.693
 Rotational               0.889              2.981             31.063
 Vibrational            109.608             32.753             37.618
 Vibration     1          0.594              1.981              5.237
 Vibration     2          0.596              1.975              4.569
 Vibration     3          0.597              1.974              4.469
 Vibration     4          0.604              1.948              3.435
 Vibration     5          0.613              1.919              2.880
 Vibration     6          0.619              1.901              2.655
 Vibration     7          0.631              1.861              2.285
 Vibration     8          0.634              1.853              2.225
 Vibration     9          0.651              1.798              1.892
 Vibration    10          0.682              1.705              1.514
 Vibration    11          0.690              1.682              1.441
 Vibration    12          0.720              1.595              1.210
 Vibration    13          0.798              1.388              0.834
 Vibration    14          0.840              1.286              0.700

 Optimization completed.
    -- Stationary point found.
 Normal termination of Gaussian 16 at Thu Feb 18 18:37:44 2021.
