 Gaussian 16, Revision A.03,
 Gaussian 16:  ES64L-G16RevA.03 25-Dec-2016

 ----------------------------------------------------------------------
 # wB97XD def2tzvp, opt=(ts, noeigen, calcfc, maxcycles=70, maxstep=5),
  freq=noraman, scrf=(iefpcm, solvent=water)
 ----------------------------------------------------------------------

 ------------------------
 2_iteration/TS-686-2.out
 ------------------------
 Symbolic Z-matrix:
 Charge =  0 Multiplicity = 1

 SCF Done:  E(RwB97XD) =  -3265.75574581     A.U. after   15 cycles
 Optimization completed.
    -- Stationary point found.
 Normal termination of Gaussian 16 at Sat Feb 20 17:30:33 2021.

 ---------------------------------------------------------------------
 #N Geom=AllCheck Guess=TCheck SCRF=Check GenChk RwB97XD/def2TZVP Freq
 ---------------------------------------------------------------------

 Structure from the checkpoint file:  "/beegfs/scratch/user/q/tla25/Gau-52096.chk"
 ------------------------
 2_iteration/TS-686-2.out
 ------------------------
 Charge =  0 Multiplicity = 1

                         Standard orientation:
 ---------------------------------------------------------------------
 Center     Atomic      Atomic             Coordinates (Angstroms)
 Number     Number       Type             X           Y           Z
 ---------------------------------------------------------------------
      1          6           0        0.383407   -0.424092    0.242911
      2          6           0        1.517551   -1.335689    0.527241
      3          8           0        1.442226   -2.188239    1.416331
      4          6           0        0.528125    0.930997    0.291481
      5          6           0       -0.508652    3.007343    2.119871
      6          1           0       -1.263871    3.196448    2.883251
      7          1           0        0.466099    3.288477    2.510751
      8          1           0       -0.733499    3.604525    1.238481
      9          7           0       -0.492941    1.592313    1.743981
     10          1           0       -0.141165    1.014721    2.500371
     11          1           0       -1.426073    1.263329    1.520211
     12         35           0       -0.565818    2.025374   -1.138759
     13          6           0        1.833069    1.642259    0.485891
     14          1           0        2.388186    1.191676    1.309421
     15          1           0        2.434379    1.584515   -0.418819
     16          1           0        1.678176    2.695940    0.701841
     17          6           0       -0.946497   -1.084474    0.101431
     18          6           0       -1.740369   -1.400139    1.203911
     19          6           0       -2.971563   -2.023182    1.048211
     20          6           0       -3.430845   -2.349199   -0.219029
     21          6           0       -2.647943   -2.054384   -1.326899
     22          6           0       -1.419650   -1.431561   -1.164599
     23          1           0       -1.381488   -1.172081    2.200201
     24          1           0       -3.570205   -2.256638    1.920031
     25          1           0       -4.390788   -2.834613   -0.343059
     26          1           0       -2.994545   -2.311402   -2.320349
     27          1           0       -0.812538   -1.202415   -2.031949
     28          7           0        2.651622   -1.229686   -0.222749
     29          6           0        2.688085   -0.700116   -1.569709
     30          6           0        3.798187   -2.036423    0.140221
     31          1           0        1.741398   -0.226930   -1.814449
     32          1           0        3.494219    0.029589   -1.677819
     33          1           0        2.868780   -1.510337   -2.283189
     34          1           0        3.847526   -2.147503    1.219891
     35          1           0        3.749371   -3.033803   -0.309619
     36          1           0        4.703690   -1.542098   -0.213479
 ---------------------------------------------------------------------

 SCF Done:  E(RwB97XD) =  -3265.75574581     A.U. after    1 cycles

 The electronic state is 1-A.
 Alpha  occ. eigenvalues -- -483.10224 -62.65079 -56.44140 -56.43869 -56.43858
 Alpha  occ. eigenvalues --  -19.20397 -14.49254 -14.45776 -10.39210 -10.37995
 Alpha  occ. eigenvalues --  -10.31996 -10.30767 -10.30343 -10.29797 -10.28863
 Alpha  occ. eigenvalues --  -10.28793 -10.28744 -10.28689 -10.28615 -10.28484
 Alpha  occ. eigenvalues --  -10.25990  -8.79169  -6.61136  -6.60290  -6.60252
 Alpha  occ. eigenvalues --   -2.71535  -2.71316  -2.71286  -2.70601  -2.70601
 Alpha  occ. eigenvalues --   -1.13206  -1.04664  -1.03040  -0.96556  -0.92424
 Alpha  occ. eigenvalues --   -0.86373  -0.84757  -0.83352  -0.81666  -0.80705
 Alpha  occ. eigenvalues --   -0.79651  -0.77064  -0.70006  -0.69589  -0.66828
 Alpha  occ. eigenvalues --   -0.63696  -0.62621  -0.60595  -0.59318  -0.56722
 Alpha  occ. eigenvalues --   -0.56457  -0.56080  -0.54738  -0.53940  -0.53728
 Alpha  occ. eigenvalues --   -0.52592  -0.50686  -0.50520  -0.49782  -0.48949
 Alpha  occ. eigenvalues --   -0.48372  -0.48189  -0.47450  -0.46380  -0.45909
 Alpha  occ. eigenvalues --   -0.45387  -0.44030  -0.42881  -0.41770  -0.41672
 Alpha  occ. eigenvalues --   -0.36229  -0.35971  -0.34469  -0.33388  -0.32633
 Alpha  occ. eigenvalues --   -0.31866  -0.26446
 Alpha virt. eigenvalues --    0.03201   0.05231   0.05461   0.07732   0.09759
 Alpha virt. eigenvalues --    0.12073   0.13022   0.13498   0.14122   0.14661
 Alpha virt. eigenvalues --    0.15560   0.16372   0.16602   0.17375   0.17620

 Mulliken charges:
               1
     1  C   -0.143774
     2  C    0.241134
     3  O   -0.507064
     4  C    0.053673
     5  C   -0.306353
     6  H    0.161638
     7  H    0.164514
     8  H    0.156726
     9  N   -0.287430
    10  H    0.283749
    11  H    0.289893
    12  Br  -0.301504
    13  C   -0.378653
    14  H    0.162110
    15  H    0.150994
    16  H    0.159554
    17  C    0.267953
    18  C   -0.349093
    19  C   -0.123613
    20  C   -0.159542
    21  C   -0.133532
    22  C   -0.256982
    23  H    0.144291
    24  H    0.140200
    25  H    0.142008
    26  H    0.139232
    27  H    0.147819
    28  N   -0.109489
    29  C   -0.333550
    30  C   -0.285870
    31  H    0.166876
    32  H    0.154738
    33  H    0.141332
    34  H    0.140400
    35  H    0.132370
    36  H    0.135244
 Sum of Mulliken charges =  -0.00000

 Dipole moment (field-independent basis, Debye):
    X=              1.0957    Y=              5.1706    Z=              2.7633  Tot=              5.9642
 Quadrupole moment (field-independent basis, Debye-Ang):
   XX=           -101.4351   YY=           -122.0992   ZZ=           -105.9639
   XY=              5.2670   XZ=             -9.7420   YZ=             21.8467

  Exact polarizability: 280.413   1.467 275.883  -3.745  -6.972 280.462
 Approx polarizability: 221.223   3.999 214.908  -1.900  -8.033 235.685

 ******    1 imaginary frequencies (negative Signs) ******

                      1                      2                      3
                      A                      A                      A
 Frequencies --   -408.4805                27.5521                40.0283
 Red. masses --      6.8584                 3.9075                 5.2753
 Frc consts  --      0.6742                 0.0017                 0.0050
 IR Inten    --    474.9242                 0.1728                13.8749

                      4                      5                      6
                      A                      A                      A
 Frequencies --     51.5534                65.6932                78.3868
 Red. masses --      4.5326                 6.0239                 2.6517
 Frc consts  --      0.0071                 0.0153                 0.0096
 IR Inten    --      4.0956                 2.1324                 2.4418

                      7                      8                      9
                      A                      A                      A
 Frequencies --     90.7486                93.7739               133.0385
 Red. masses --      4.0369                 2.7943                 1.1667
 Frc consts  --      0.0196                 0.0145                 0.0122
 IR Inten    --      8.8558                13.9411                 2.1577

                     10                     11                     12
                      A                      A                      A
 Frequencies --    146.4296               164.4374               169.5208
 Red. masses --      2.4221                 2.5442                 1.5597
 Frc consts  --      0.0306                 0.0405                 0.0264
 IR Inten    --      2.3527                 3.0130                 2.7847

                     13                     14                     15
                      A                      A                      A
 Frequencies --    188.0789               215.7099               230.5695
 Red. masses --      2.9199                 2.7290                 2.1052
 Frc consts  --      0.0609                 0.0748                 0.0659
 IR Inten    --     14.2813                38.7372                40.1239

                     16                     17                     18
                      A                      A                      A
 Frequencies --    250.5765               259.9801               274.0899
 Red. masses --      3.6884                 1.5456                 4.1179
 Frc consts  --      0.1364                 0.0615                 0.1823
 IR Inten    --      4.7590                31.6198                35.3893

                     19                     20                     21
                      A                      A                      A
 Frequencies --    292.2473               303.7509               316.8353
 Red. masses --      2.0954                 1.8575                 2.7254
 Frc consts  --      0.1054                 0.1010                 0.1612
 IR Inten    --      6.6625                 7.0811                20.0131

                     22                     23                     24
                      A                      A                      A
 Frequencies --    372.4316               392.3022               403.4096
 Red. masses --      2.7668                 3.2614                 3.6728
 Frc consts  --      0.2261                 0.2957                 0.3522
 IR Inten    --     27.7872                21.9363               133.2470

                     25                     26                     27
                      A                      A                      A
 Frequencies --    424.2952               457.7247               502.6413
 Red. masses --      2.8897                 2.9848                 3.9327
 Frc consts  --      0.3065                 0.3684                 0.5854
 IR Inten    --      0.7787                 7.4382               100.6978

                     28                     29                     30
                      A                      A                      A
 Frequencies --    543.8888               623.0219               647.6651
 Red. masses --      3.7706                 5.8872                 5.5608
 Frc consts  --      0.6572                 1.3464                 1.3743
 IR Inten    --    135.7610                60.2721                33.0954

                     31                     32                     33
                      A                      A                      A
 Frequencies --    669.2102               704.8013               729.1909
 Red. masses --      6.4484                 1.4721                 1.6162
 Frc consts  --      1.7015                 0.4308                 0.5063
 IR Inten    --     17.7126                61.0618                50.4259

                     34                     35                     36
                      A                      A                      A
 Frequencies --    736.7838               771.1477               812.8070
 Red. masses --      3.9496                 3.0600                 3.5378
 Frc consts  --      1.2632                 1.0721                 1.3771
 IR Inten    --    175.8635                14.8141                18.4169

                     37                     38                     39
                      A                      A                      A
 Frequencies --    879.1825               894.0953               954.5316
 Red. masses --      1.2435                 4.2535                 1.5005
 Frc consts  --      0.5663                 2.0034                 0.8055
 IR Inten    --      0.1024                 8.5171                12.8692

                     40                     41                     42
                      A                      A                      A
 Frequencies --    997.3335              1011.7035              1022.9821
 Red. masses --      2.7011                 1.3836                 1.2190
 Frc consts  --      1.5830                 0.8344                 0.7516
 IR Inten    --     81.6304                 0.4743                26.9520

                     43                     44                     45
                      A                      A                      A
 Frequencies --   1027.0073              1027.7979              1042.7870
 Red. masses --      5.2160                 1.3219                 2.0048
 Frc consts  --      3.2414                 0.8228                 1.2845
 IR Inten    --      4.8578                 1.1846               138.0482

                     46                     47                     48
                      A                      A                      A
 Frequencies --   1052.2878              1060.5740              1068.9594
 Red. masses --      1.5214                 1.8978                 1.6191
 Frc consts  --      0.9926                 1.2577                 1.0901
 IR Inten    --      3.5214                33.2667                31.1991

                     49                     50                     51
                      A                      A                      A
 Frequencies --   1077.8028              1083.8782              1108.8845
 Red. masses --      1.6013                 1.4831                 1.5658
 Frc consts  --      1.0960                 1.0266                 1.1344
 IR Inten    --    220.9657                37.0737                15.0665

                     52                     53                     54
                      A                      A                      A
 Frequencies --   1115.6788              1132.3724              1177.1036
 Red. masses --      2.4291                 1.2380                 1.3844
 Frc consts  --      1.7815                 0.9353                 1.1302
 IR Inten    --    132.9993                 1.9491                23.3391

                     55                     56                     57
                      A                      A                      A
 Frequencies --   1181.7918              1195.5174              1206.7763
 Red. masses --      1.1329                 3.1198                 1.1219
 Frc consts  --      0.9323                 2.6272                 0.9626
 IR Inten    --      0.1863               192.1691                 0.3172

                     58                     59                     60
                      A                      A                      A
 Frequencies --   1241.6391              1288.7258              1305.3594
 Red. masses --      1.3634                 4.6992                 4.5216
 Frc consts  --      1.2384                 4.5982                 4.5395
 IR Inten    --     20.7749               171.2213                 7.3743

                     61                     62                     63
                      A                      A                      A
 Frequencies --   1312.5674              1346.0706              1356.0529
 Red. masses --      5.1168                 1.2953                 1.4519
 Frc consts  --      5.1939                 1.3828                 1.5731
 IR Inten    --    181.7930                 1.6321                 0.8857

                     64                     65                     66
                      A                      A                      A
 Frequencies --   1414.0980              1422.0091              1441.5328
 Red. masses --      1.4416                 1.8871                 1.1637
 Frc consts  --      1.6984                 2.2483                 1.4248
 IR Inten    --    206.9905               237.0526                10.6274

                     67                     68                     69
                      A                      A                      A
 Frequencies --   1447.0060              1464.8035              1470.0125
 Red. masses --      1.1759                 1.0895                 1.2061
 Frc consts  --      1.4507                 1.3773                 1.5357
 IR Inten    --      1.0936                11.1016               152.8417

                     70                     71                     72
                      A                      A                      A
 Frequencies --   1477.8074              1481.8992              1485.0890
 Red. masses --      1.0588                 1.1478                 1.9390
 Frc consts  --      1.3624                 1.4850                 2.5196
 IR Inten    --     13.6722                46.4636                 4.9444

                     73                     74                     75
                      A                      A                      A
 Frequencies --   1496.7898              1500.3527              1503.1830
 Red. masses --      1.0500                 1.0633                 1.0392
 Frc consts  --      1.3860                 1.4102                 1.3835
 IR Inten    --     32.7041                25.0656                11.8094

                     76                     77                     78
                      A                      A                      A
 Frequencies --   1510.4731              1532.8705              1538.3566
 Red. masses --      1.0682                 1.5944                 1.7796
 Frc consts  --      1.4359                 2.2073                 2.4813
 IR Inten    --      4.0735               283.2207                30.5119

                     79                     80                     81
                      A                      A                      A
 Frequencies --   1567.9395              1641.1541              1642.6927
 Red. masses --      5.7064                 1.3999                 3.2472
 Frc consts  --      8.2655                 2.2215                 5.1626
 IR Inten    --    432.4459               313.1697                32.6395

                     82                     83                     84
                      A                      A                      A
 Frequencies --   1647.0082              1670.8674              3029.4749
 Red. masses --      5.2989                 5.9996                 1.0418
 Frc consts  --      8.4690                 9.8686                 5.6335
 IR Inten    --    407.2393                48.7724                47.9561

                     85                     86                     87
                      A                      A                      A
 Frequencies --   3032.8993              3074.6804              3079.2314
 Red. masses --      1.0456                 1.0351                 1.0395
 Frc consts  --      5.6669                 5.7653                 5.8072
 IR Inten    --    150.9712                41.0548                20.1580

                     88                     89                     90
                      A                      A                      A
 Frequencies --   3086.5838              3109.0748              3154.3406
 Red. masses --      1.1001                 1.0926                 1.1026
 Frc consts  --      6.1750                 6.2225                 6.4636
 IR Inten    --     53.8635                35.4243                 9.5255

                     91                     92                     93
                      A                      A                      A
 Frequencies --   3160.4339              3173.1877              3173.8085
 Red. masses --      1.1007                 1.1005                 1.1000
 Frc consts  --      6.4774                 6.5286                 6.5281
 IR Inten    --     15.5774                 9.1918                 3.2458

                     94                     95                     96
                      A                      A                      A
 Frequencies --   3174.3723              3181.4116              3189.0745
 Red. masses --      1.0997                 1.1055                 1.0855
 Frc consts  --      6.5288                 6.5923                 6.5044
 IR Inten    --     11.5287                 7.5636                 5.2616

                     97                     98                     99
                      A                      A                      A
 Frequencies --   3193.5375              3202.5776              3209.0411
 Red. masses --      1.0880                 1.0916                 1.0953
 Frc consts  --      6.5377                 6.5965                 6.6454
 IR Inten    --      0.1537                20.3787                46.7739

                    100                    101                    102
                      A                      A                      A
 Frequencies --   3219.1748              3509.5905              3591.2416
 Red. masses --      1.0989                 1.0514                 1.0965
 Frc consts  --      6.7095                 7.6300                 8.3320
 IR Inten    --     16.6638                31.1349                55.9356

 - Thermochemistry -
 -------------------
 Temperature   298.150 Kelvin.  Pressure   1.00000 Atm.
 Atom     1 has atomic number  6 and mass  12.00000

 Molecular mass:   298.06807 amu.
 Principal axes and moments of inertia in atomic units:
                           1         2         3
     Eigenvalues --  4973.778285116.101697299.98321
           X            0.93051   0.36507  -0.02958
           Y           -0.36155   0.92845   0.08524
           Z            0.05858  -0.06862   0.99592
 This molecule is an asymmetric top.
 Rotational symmetry number  1.
 Warning -- assumption of classical behavior for rotation
           may cause significant error
 Rotational temperatures (Kelvin)      0.01741     0.01693     0.01186
 Rotational constants (GHZ):           0.36285     0.35276     0.24723
    1 imaginary frequencies ignored.
 Zero-point vibrational energy     797032.7 (Joules/Mol)
                                  190.49539 (Kcal/Mol)
 Warning -- explicit consideration of  27 degrees of freedom as
           vibrations may cause significant error
 Vibrational temperatures:     39.64    57.59    74.17    94.52   112.78
          (Kelvin)            130.57   134.92   191.41   210.68   236.59
                              243.90   270.60   310.36   331.74   360.52
                              374.05   394.35   420.48   437.03   455.86
                              535.85   564.44   580.42   610.47   658.56
                              723.19   782.53   896.39   931.85   962.84
                             1014.05  1049.14  1060.07  1109.51  1169.45
                             1264.95  1286.40  1373.36  1434.94  1455.62
                             1471.84  1477.63  1478.77  1500.34  1514.01
                             1525.93  1537.99  1550.72  1559.46  1595.44
                             1605.21  1629.23  1693.59  1700.33  1720.08
                             1736.28  1786.44  1854.19  1878.12  1888.49
                             1936.70  1951.06  2034.57  2045.95  2074.04
                             2081.92  2107.53  2115.02  2126.24  2132.12
                             2136.71  2153.55  2158.67  2162.75  2173.23
                             2205.46  2213.35  2255.92  2361.25  2363.47
                             2369.68  2404.01  4358.74  4363.67  4423.78
                             4430.33  4440.91  4473.27  4538.39  4547.16
                             4565.51  4566.40  4567.21  4577.34  4588.37
                             4594.79  4607.79  4617.09  4631.67  5049.52
                             5167.00

 Zero-point correction=                           0.303574 (Hartree/Particle)
 Thermal correction to Energy=                    0.322498
 Thermal correction to Enthalpy=                  0.323442
 Thermal correction to Gibbs Free Energy=         0.254975
 Sum of electronic and zero-point Energies=          -3265.452172
 Sum of electronic and thermal Energies=             -3265.433248
 Sum of electronic and thermal Enthalpies=           -3265.432304
 Sum of electronic and thermal Free Energies=        -3265.500771

                     E (Thermal)             CV                S
                      KCal/Mol        Cal/Mol-Kelvin    Cal/Mol-Kelvin
 Total                  202.370             68.255            144.101
 Electronic               0.000              0.000              0.000
 Translational            0.889              2.981             42.973
 Rotational               0.889              2.981             33.585
 Vibrational            200.593             62.294             67.543
 Vibration     1          0.593              1.984              5.998
 Vibration     2          0.594              1.981              5.258
 Vibration     3          0.596              1.977              4.757
 Vibration     4          0.597              1.971              4.278
 Vibration     5          0.600              1.964              3.931
 Vibration     6          0.602              1.956              3.644
 Vibration     7          0.603              1.954              3.580
 Vibration     8          0.613              1.920              2.902
 Vibration     9          0.617              1.907              2.718
 Vibration    10          0.623              1.886              2.498
 Vibration    11          0.625              1.880              2.441
 Vibration    12          0.633              1.856              2.247
 Vibration    13          0.645              1.817              1.995
 Vibration    14          0.652              1.794              1.875
 Vibration    15          0.663              1.762              1.727
 Vibration    16          0.668              1.746              1.662
 Vibration    17          0.676              1.721              1.570
 Vibration    18          0.688              1.688              1.461
 Vibration    19          0.695              1.667              1.396
 Vibration    20          0.704              1.641              1.326
 Vibration    21          0.744              1.529              1.070
 Vibration    22          0.760              1.487              0.991
 Vibration    23          0.769              1.463              0.950
 Vibration    24          0.786              1.417              0.877
 Vibration    25          0.816              1.344              0.773
 Vibration    26          0.858              1.244              0.652
 Vibration    27          0.899              1.153              0.557

 Optimization completed.
    -- Stationary point found.
 Normal termination of Gaussian 16 at Sat Feb 20 19:16:09 2021.
