 Gaussian 16, Revision A.03,
 Gaussian 16:  ES64L-G16RevA.03 25-Dec-2016

 ----------------------------------------------------------------------
 # wB97XD def2tzvp, opt=(ts, noeigen, calcfc, maxcycles=70, maxstep=8),
  freq=noraman, scrf=(iefpcm, solvent=water)
 ----------------------------------------------------------------------

 ------------------------
 1_iteration/TS-647-1.out
 ------------------------
 Symbolic Z-matrix:
 Charge =  0 Multiplicity = 1

 SCF Done:  E(RwB97XD) =  -3378.89109950     A.U. after   14 cycles
 SCF Done:  E(RwB97XD) =  -3378.89109953     A.U. after    8 cycles
 Optimization completed on the basis of negligible forces.
    -- Stationary point found.
 Normal termination of Gaussian 16 at Fri Feb 19 21:46:04 2021.

 ---------------------------------------------------------------------
 #N Geom=AllCheck Guess=TCheck SCRF=Check GenChk RwB97XD/def2TZVP Freq
 ---------------------------------------------------------------------

 Structure from the checkpoint file:  "/beegfs/scratch/user/q/tla25/Gau-85932.chk"
 ------------------------
 1_iteration/TS-647-1.out
 ------------------------
 Charge =  0 Multiplicity = 1

                         Standard orientation:
 ---------------------------------------------------------------------
 Center     Atomic      Atomic             Coordinates (Angstroms)
 Number     Number       Type             X           Y           Z
 ---------------------------------------------------------------------
      1          6           0        0.636661   -0.352918   -0.110579
      2          6           0       -0.715472   -0.881721   -0.192613
      3          8           0       -0.977620   -2.073828   -0.380879
      4          6           0        1.642414   -1.297007   -0.192116
      5          6           0        1.179752   -2.151870    2.396853
      6          1           0        1.514566   -2.278937    3.425465
      7          1           0        0.484713   -1.312634    2.342777
      8          1           0        0.666018   -3.050081    2.063083
      9          7           0        2.296601   -1.878688    1.500269
     10          1           0        2.892311   -1.138196    1.854306
     11          1           0        2.877124   -2.696139    1.349279
     12         35           0        3.345339   -0.810083   -0.975135
     13          1           0        1.349249   -2.285772   -0.514768
     14          6           0        0.913203    1.094041    0.077017
     15          6           0        1.464361    1.584661    1.261786
     16          6           0        1.740086    2.934818    1.422122
     17          6           0        1.452860    3.830197    0.402380
     18          6           0        0.893958    3.363617   -0.779205
     19          6           0        0.634753    2.011014   -0.939923
     20          1           0        1.669584    0.903807    2.078912
     21          1           0        2.171077    3.288597    2.350427
     22          1           0        1.661583    4.885058    0.527964
     23          1           0        0.668620    4.053499   -1.582943
     24          1           0        0.212756    1.650184   -1.870636
     25          7           0       -1.716280    0.056240   -0.034132
     26          6           0       -3.102131   -0.093539   -0.089161
     27          6           0       -3.753563   -1.289128   -0.398742
     28          6           0       -5.140844   -1.329094   -0.433355
     29          6           0       -5.902385   -0.202107   -0.167293
     30          6           0       -5.254231    0.987678    0.138730
     31          6           0       -3.873447    1.043305    0.178147
     32          1           0       -1.401750    0.993031    0.157055
     33          1           0       -3.170945   -2.170973   -0.607238
     34          1           0       -5.629302   -2.265290   -0.675311
     35          1           0       -6.983191   -0.247366   -0.197634
     36          1           0       -5.826975    1.882221    0.349755
     37          1           0       -3.379427    1.977959    0.419026
 ---------------------------------------------------------------------

 SCF Done:  E(RwB97XD) =  -3378.89109953     A.U. after    1 cycles

 The electronic state is 1-A.
 Alpha  occ. eigenvalues -- -483.13085 -62.67938 -56.47044 -56.46705 -56.46692
 Alpha  occ. eigenvalues --  -19.20245 -14.49186 -14.46081 -10.38468 -10.37968
 Alpha  occ. eigenvalues --  -10.33710 -10.31810 -10.30234 -10.29110 -10.29083
 Alpha  occ. eigenvalues --  -10.29033 -10.28970 -10.28959 -10.28889 -10.28809
 Alpha  occ. eigenvalues --  -10.28725 -10.28142 -10.28042 -10.26659  -8.82052
 Alpha  occ. eigenvalues --   -6.64176  -6.63096  -6.63051  -2.74568  -2.74263
 Alpha  occ. eigenvalues --   -2.74227  -2.73353  -2.73353  -1.13228  -1.04543
 Alpha  occ. eigenvalues --   -1.03791  -0.97096  -0.95297  -0.92750  -0.87750
 Alpha  occ. eigenvalues --   -0.85150  -0.85003  -0.84485  -0.82208  -0.79156
 Alpha  occ. eigenvalues --   -0.74511  -0.71532  -0.70857  -0.70361  -0.67648
 Alpha  occ. eigenvalues --   -0.65014  -0.63685  -0.62512  -0.61405  -0.58687
 Alpha  occ. eigenvalues --   -0.57490  -0.57432  -0.55344  -0.54505  -0.53617
 Alpha  occ. eigenvalues --   -0.53579  -0.52286  -0.51676  -0.51481  -0.50855
 Alpha  occ. eigenvalues --   -0.50532  -0.49416  -0.48203  -0.46892  -0.46720
 Alpha  occ. eigenvalues --   -0.46267  -0.45308  -0.44519  -0.42935  -0.42754
 Alpha  occ. eigenvalues --   -0.42619  -0.39439  -0.37906  -0.37146  -0.34811
 Alpha  occ. eigenvalues --   -0.33890  -0.33684  -0.32841  -0.30293  -0.26856
 Alpha virt. eigenvalues --    0.03842   0.04766   0.05187   0.05506   0.06067
 Alpha virt. eigenvalues --    0.09010   0.10194   0.12116   0.13563   0.14015
 Alpha virt. eigenvalues --    0.14405   0.14666   0.15851   0.16993   0.17032

 Mulliken charges:
               1
     1  C   -0.223072
     2  C    0.387041
     3  O   -0.550627
     4  C    0.001380
     5  C   -0.290878
     6  H    0.164409
     7  H    0.154111
     8  H    0.158460
     9  N   -0.330710
    10  H    0.282780
    11  H    0.294550
    12  Br  -0.112907
    13  H    0.189957
    14  C    0.086045
    15  C   -0.212556
    16  C   -0.172723
    17  C   -0.136009
    18  C   -0.120455
    19  C   -0.277821
    20  H    0.149748
    21  H    0.140412
    22  H    0.144199
    23  H    0.142604
    24  H    0.142557
    25  N   -0.255216
    26  C    0.295247
    27  C   -0.296950
    28  C   -0.112888
    29  C   -0.198800
    30  C   -0.099434
    31  C   -0.318543
    32  H    0.252366
    33  H    0.159768
    34  H    0.140197
    35  H    0.139798
    36  H    0.142427
    37  H    0.141534
 Sum of Mulliken charges =  -0.00000

 Dipole moment (field-independent basis, Debye):
    X=              4.9633    Y=              0.7260    Z=              5.9556  Tot=              7.7866
 Quadrupole moment (field-independent basis, Debye-Ang):
   XX=           -126.2087   YY=           -117.2378   ZZ=           -122.8658
   XY=            -14.3400   XZ=             13.1485   YZ=             -8.8050

  Exact polarizability: 392.228  -7.345 338.297  19.370   0.284 253.259
 Approx polarizability: 284.081  -0.918 277.952  14.833   2.938 218.777

 ******    1 imaginary frequencies (negative Signs) ******

                      1                      2                      3
                      A                      A                      A
 Frequencies --   -378.4708                 4.4839                27.2803
 Red. masses --      6.1237                 3.7153                 5.5179
 Frc consts  --      0.5168                 0.0000                 0.0024
 IR Inten    --    980.0997                 0.1018                 1.4214

                      4                      5                      6
                      A                      A                      A
 Frequencies --     29.8766                49.9641                59.1812
 Red. masses --      3.7913                 5.7357                 4.8521
 Frc consts  --      0.0020                 0.0084                 0.0100
 IR Inten    --      3.8608                 1.1557                 4.5417

                      7                      8                      9
                      A                      A                      A
 Frequencies --     72.5493                84.1586               102.0675
 Red. masses --      4.6724                 5.6157                 4.1494
 Frc consts  --      0.0145                 0.0234                 0.0255
 IR Inten    --      8.2342                 2.5492                 1.9825

                     10                     11                     12
                      A                      A                      A
 Frequencies --    134.6986               146.7242               155.1932
 Red. masses --      3.3339                 1.2229                 3.4511
 Frc consts  --      0.0356                 0.0155                 0.0490
 IR Inten    --      8.3832                 4.9943                 8.0758

                     13                     14                     15
                      A                      A                      A
 Frequencies --    180.3760               205.6843               231.8921
 Red. masses --      5.3679                 5.3495                 4.7105
 Frc consts  --      0.1029                 0.1333                 0.1492
 IR Inten    --     10.8454                 2.3194                 5.3371

                     16                     17                     18
                      A                      A                      A
 Frequencies --    250.3323               274.8366               328.8791
 Red. masses --      4.7213                 4.4350                 3.5309
 Frc consts  --      0.1743                 0.1974                 0.2250
 IR Inten    --      1.1500                50.0005                40.4640

                     19                     20                     21
                      A                      A                      A
 Frequencies --    358.5265               388.7144               423.1119
 Red. masses --      7.5243                 7.0439                 2.8998
 Frc consts  --      0.5698                 0.6271                 0.3059
 IR Inten    --     13.9273                 4.7074                 0.2624

                     22                     23                     24
                      A                      A                      A
 Frequencies --    423.2692               435.2291               524.3240
 Red. masses --      2.9607                 4.7221                 2.7173
 Frc consts  --      0.3125                 0.5270                 0.4401
 IR Inten    --      0.1769                13.2540                17.6268

                     25                     26                     27
                      A                      A                      A
 Frequencies --    544.7145               567.0666               582.3963
 Red. masses --      2.9947                 4.0322                 1.2913
 Frc consts  --      0.5235                 0.7639                 0.2581
 IR Inten    --     29.6994               118.0459                69.2932

                     28                     29                     30
                      A                      A                      A
 Frequencies --    599.5985               635.6791               639.4426
 Red. masses --      3.4793                 6.1853                 6.3353
 Frc consts  --      0.7370                 1.4726                 1.5262
 IR Inten    --     55.5619                 4.3885                 1.7495

                     31                     32                     33
                      A                      A                      A
 Frequencies --    679.6484               693.2449               718.3163
 Red. masses --      2.7172                 5.7936                 1.8754
 Frc consts  --      0.7395                 1.6405                 0.5701
 IR Inten    --      9.1824               193.9126                65.0248

                     34                     35                     36
                      A                      A                      A
 Frequencies --    729.8743               738.7839               783.4413
 Red. masses --      1.6095                 2.5994                 1.8240
 Frc consts  --      0.5052                 0.8359                 0.6596
 IR Inten    --     76.2378                 6.9102                70.3774

                     37                     38                     39
                      A                      A                      A
 Frequencies --    793.2845               807.8332               858.6508
 Red. masses --      5.6679                 2.5645                 4.6157
 Frc consts  --      2.1015                 0.9860                 2.0050
 IR Inten    --     82.0565                 6.1661                85.6569

                     40                     41                     42
                      A                      A                      A
 Frequencies --    860.5338               878.0915               880.3804
 Red. masses --      1.2619                 3.6491                 1.4108
 Frc consts  --      0.5506                 1.6577                 0.6442
 IR Inten    --      0.0595                 4.9268                 0.0679

                     43                     44                     45
                      A                      A                      A
 Frequencies --    930.5935               957.8414              1000.3598
 Red. masses --      1.4811                 1.4691                 1.3477
 Frc consts  --      0.7557                 0.7941                 0.7946
 IR Inten    --     13.2725                 2.3763                 0.0234

                     46                     47                     48
                      A                      A                      A
 Frequencies --   1005.7678              1013.9962              1015.3345
 Red. masses --      1.1204                 1.3906                 1.2824
 Frc consts  --      0.6678                 0.8424                 0.7789
 IR Inten    --     20.9767                 1.1866                 0.7071

                     49                     50                     51
                      A                      A                      A
 Frequencies --   1019.2455              1026.1804              1028.2710
 Red. masses --      5.7158                 4.9828                 1.1356
 Frc consts  --      3.4985                 3.0915                 0.7075
 IR Inten    --      6.8306                 0.9298                83.8869

                     52                     53                     54
                      A                      A                      A
 Frequencies --   1030.2833              1046.6001              1061.3306
 Red. masses --      1.3281                 4.2266                 2.1416
 Frc consts  --      0.8306                 2.7277                 1.4213
 IR Inten    --      7.8285                12.7197                24.3610

                     55                     56                     57
                      A                      A                      A
 Frequencies --   1071.1819              1080.2325              1113.3824
 Red. masses --      2.0189                 4.9827                 1.5699
 Frc consts  --      1.3648                 3.4257                 1.1466
 IR Inten    --      8.2894                41.8904                25.8895

                     58                     59                     60
                      A                      A                      A
 Frequencies --   1120.4070              1148.0540              1180.6447
 Red. masses --      1.5491                 1.3110                 1.1891
 Frc consts  --      1.1457                 1.0181                 0.9766
 IR Inten    --     15.2961               107.2123                 3.3780

                     61                     62                     63
                      A                      A                      A
 Frequencies --   1182.7673              1184.3625              1206.9666
 Red. masses --      1.2257                 1.2552                 1.1469
 Frc consts  --      1.0102                 1.0374                 0.9844
 IR Inten    --     11.4976                13.9058                47.8751

                     64                     65                     66
                      A                      A                      A
 Frequencies --   1211.9617              1217.1554              1244.5180
 Red. masses --      1.1233                 1.3939                 2.5092
 Frc consts  --      0.9722                 1.2167                 2.2898
 IR Inten    --      0.3836                29.6506               444.9974

                     67                     68                     69
                      A                      A                      A
 Frequencies --   1276.6999              1305.2305              1340.5395
 Red. masses --      2.6425                 4.1228                 1.5462
 Frc consts  --      2.5377                 4.1382                 1.6371
 IR Inten    --    409.6622                52.0890               169.3112

                     70                     71                     72
                      A                      A                      A
 Frequencies --   1341.4811              1345.2185              1360.3265
 Red. masses --      2.5827                 2.5505                 1.6844
 Frc consts  --      2.7384                 2.7193                 1.8364
 IR Inten    --    712.6118               206.7554                 4.4866

                     73                     74                     75
                      A                      A                      A
 Frequencies --   1364.4515              1436.2144              1461.0654
 Red. masses --      1.6048                 2.2856                 1.6233
 Frc consts  --      1.7603                 2.7777                 2.0416
 IR Inten    --    114.9124               302.1127               204.1933

                     76                     77                     78
                      A                      A                      A
 Frequencies --   1479.1093              1488.4521              1489.6641
 Red. masses --      2.1112                 1.9171                 1.1315
 Frc consts  --      2.7214                 2.5025                 1.4793
 IR Inten    --    270.6902                43.3148                22.8021

                     79                     80                     81
                      A                      A                      A
 Frequencies --   1499.7603              1545.5574              1547.4827
 Red. masses --      1.0533                 2.4619                 2.5384
 Frc consts  --      1.3959                 3.4649                 3.5815
 IR Inten    --     16.8736               270.5971                27.7075

                     82                     83                     84
                      A                      A                      A
 Frequencies --   1571.3865              1642.8906              1649.2896
 Red. masses --      2.0405                 4.4643                 1.1484
 Frc consts  --      2.9686                 7.0993                 1.8406
 IR Inten    --    641.8417                 8.2271                75.0067

                     85                     86                     87
                      A                      A                      A
 Frequencies --   1657.7149              1670.6560              1672.3672
 Red. masses --      6.4732                 4.2012                 5.8375
 Frc consts  --     10.4807                 6.9088                 9.6193
 IR Inten    --    176.3997               111.2452                20.3707

                     88                     89                     90
                      A                      A                      A
 Frequencies --   1684.9382              3068.2722              3144.9493
 Red. masses --      5.8487                 1.0342                 1.1037
 Frc consts  --      9.7831                 5.7365                 6.4316
 IR Inten    --    604.8095                31.3301                 9.5561

                     91                     92                     93
                      A                      A                      A
 Frequencies --   3175.5785              3185.3572              3189.9561
 Red. masses --      1.1055                 1.0881                 1.0864
 Frc consts  --      6.5686                 6.5047                 6.5137
 IR Inten    --      9.9748                14.6879                 6.9293

                     94                     95                     96
                      A                      A                      A
 Frequencies --   3194.0248              3195.2512              3203.2287
 Red. masses --      1.0874                 1.0882                 1.0912
 Frc consts  --      6.5362                 6.5461                 6.5969
 IR Inten    --      3.2594                 3.7135                14.2292

                     97                     98                     99
                      A                      A                      A
 Frequencies --   3205.4831              3210.3855              3221.0875
 Red. masses --      1.0930                 1.0950                 1.0979
 Frc consts  --      6.6167                 6.6493                 6.7114
 IR Inten    --     29.7774                47.6482                24.8306

                    100                    101                    102
                      A                      A                      A
 Frequencies --   3221.2715              3225.2309              3270.2688
 Red. masses --      1.0988                 1.0906                 1.0925
 Frc consts  --      6.7178                 6.6838                 6.8838
 IR Inten    --     16.0541                 8.0841                 6.2482

                    103                    104                    105
                      A                      A                      A
 Frequencies --   3518.6884              3602.4210              3634.6977
 Red. masses --      1.0508                 1.0967                 1.0762
 Frc consts  --      7.6650                 8.3856                 8.3770
 IR Inten    --     54.9632                53.4865               109.3338

 - Thermochemistry -
 -------------------
 Temperature   298.150 Kelvin.  Pressure   1.00000 Atm.
 Atom     1 has atomic number  6 and mass  12.00000

 Molecular mass:   332.05242 amu.
 Principal axes and moments of inertia in atomic units:
                           1         2         3
     Eigenvalues --  4371.75267********************
           X            0.99970   0.01366   0.02054
           Y           -0.01301   0.99942  -0.03138
           Z           -0.02096   0.03110   0.99930
 This molecule is an asymmetric top.
 Rotational symmetry number  1.
 Warning -- assumption of classical behavior for rotation
           may cause significant error
 Rotational temperatures (Kelvin)      0.01981     0.00764     0.00635
 Rotational constants (GHZ):           0.41282     0.15924     0.13231
    1 imaginary frequencies ignored.
 Zero-point vibrational energy     791188.7 (Joules/Mol)
                                  189.09864 (Kcal/Mol)
 Warning -- explicit consideration of  27 degrees of freedom as
           vibrations may cause significant error
 Vibrational temperatures:      6.45    39.25    42.99    71.89    85.15
          (Kelvin)            104.38   121.09   146.85   193.80   211.10
                              223.29   259.52   295.93   333.64   360.17
                              395.43   473.18   515.84   559.27   608.76
                              608.99   626.20   754.39   783.72   815.88
                              837.94   862.69   914.60   920.02   977.86
                              997.42  1033.50  1050.13  1062.95  1127.20
                             1141.36  1162.29  1235.41  1238.12  1263.38
                             1266.67  1338.92  1378.12  1439.29  1447.08
                             1458.91  1460.84  1466.47  1476.44  1479.45
                             1482.35  1505.82  1527.02  1541.19  1554.21
                             1601.91  1612.02  1651.79  1698.68  1701.74
                             1704.03  1736.56  1743.74  1751.22  1790.58
                             1836.89  1877.94  1928.74  1930.09  1935.47
                             1957.21  1963.14  2066.39  2102.15  2128.11
                             2141.55  2143.29  2157.82  2223.71  2226.48
                             2260.87  2363.75  2372.96  2385.08  2403.70
                             2406.16  2424.25  4414.56  4524.88  4568.95
                             4583.02  4589.64  4595.49  4597.25  4608.73
                             4611.98  4619.03  4634.43  4634.69  4640.39
                             4705.19  5062.61  5183.08  5229.52

 Zero-point correction=                           0.301348 (Hartree/Particle)
 Thermal correction to Energy=                    0.320275
 Thermal correction to Enthalpy=                  0.321220
 Thermal correction to Gibbs Free Energy=         0.248964
 Sum of electronic and zero-point Energies=          -3378.589752
 Sum of electronic and thermal Energies=             -3378.570824
 Sum of electronic and thermal Enthalpies=           -3378.569880
 Sum of electronic and thermal Free Energies=        -3378.642135

                     E (Thermal)             CV                S
                      KCal/Mol        Cal/Mol-Kelvin    Cal/Mol-Kelvin
 Total                  200.976             70.038            152.074
 Electronic               0.000              0.000              0.000
 Translational            0.889              2.981             43.295
 Rotational               0.889              2.981             34.868
 Vibrational            199.198             64.077             73.911
 Vibration     1          0.593              1.987              9.605
 Vibration     2          0.593              1.984              6.018
 Vibration     3          0.594              1.984              5.838
 Vibration     4          0.595              1.978              4.819
 Vibration     5          0.597              1.974              4.484
 Vibration     6          0.599              1.967              4.083
 Vibration     7          0.601              1.960              3.791
 Vibration     8          0.604              1.948              3.414
 Vibration     9          0.613              1.919              2.878
 Vibration    10          0.617              1.906              2.714
 Vibration    11          0.620              1.897              2.608
 Vibration    12          0.629              1.866              2.325
 Vibration    13          0.640              1.832              2.082
 Vibration    14          0.653              1.792              1.864
 Vibration    15          0.663              1.762              1.728
 Vibration    16          0.677              1.720              1.566
 Vibration    17          0.712              1.618              1.266
 Vibration    18          0.733              1.558              1.128
 Vibration    19          0.757              1.494              1.005
 Vibration    20          0.785              1.420              0.881
 Vibration    21          0.785              1.420              0.881
 Vibration    22          0.796              1.393              0.842
 Vibration    23          0.879              1.196              0.600
 Vibration    24          0.900              1.151              0.555
 Vibration    25          0.923              1.102              0.510
 Vibration    26          0.939              1.069              0.481
 Vibration    27          0.958              1.033              0.450

 Optimization completed on the basis of negligible forces.
    -- Stationary point found.
 Normal termination of Gaussian 16 at Fri Feb 19 23:55:07 2021.
