 Gaussian 16, Revision A.03,
 Gaussian 16:  ES64L-G16RevA.03 25-Dec-2016

 ----------------------------------------------------------------------
 # wB97XD def2tzvp, opt=(ts, noeigen, calcfc, maxcycles=70, maxstep=3),
  freq=noraman, scrf=(iefpcm, solvent=water)
 ----------------------------------------------------------------------

 ------------------------
 0_iteration/TS-677-0.out
 ------------------------
 Symbolic Z-matrix:
 Charge =  0 Multiplicity = 1

 SCF Done:  E(RwB97XD) =  -3415.70265583     A.U. after   15 cycles
 SCF Done:  E(RwB97XD) =  -3415.70263850     A.U. after   12 cycles
 SCF Done:  E(RwB97XD) =  -3415.70265731     A.U. after   10 cycles
 SCF Done:  E(RwB97XD) =  -3415.70272387     A.U. after   11 cycles
 SCF Done:  E(RwB97XD) =  -3415.70287672     A.U. after   11 cycles
 SCF Done:  E(RwB97XD) =  -3415.70308944     A.U. after   11 cycles
 SCF Done:  E(RwB97XD) =  -3415.70335066     A.U. after   11 cycles
 SCF Done:  E(RwB97XD) =  -3415.70356519     A.U. after   11 cycles
 SCF Done:  E(RwB97XD) =  -3415.70376463     A.U. after   11 cycles
 SCF Done:  E(RwB97XD) =  -3415.70392098     A.U. after   11 cycles
 SCF Done:  E(RwB97XD) =  -3415.70407353     A.U. after   10 cycles
 SCF Done:  E(RwB97XD) =  -3415.70408927     A.U. after   11 cycles
 SCF Done:  E(RwB97XD) =  -3415.70409118     A.U. after    9 cycles
 SCF Done:  E(RwB97XD) =  -3415.70409388     A.U. after   10 cycles
 SCF Done:  E(RwB97XD) =  -3415.70408426     A.U. after   10 cycles
 SCF Done:  E(RwB97XD) =  -3415.70409470     A.U. after   10 cycles
 SCF Done:  E(RwB97XD) =  -3415.70409505     A.U. after    8 cycles
 SCF Done:  E(RwB97XD) =  -3415.70409533     A.U. after    9 cycles
 SCF Done:  E(RwB97XD) =  -3415.70409532     A.U. after    7 cycles
 Optimization completed.
    -- Stationary point found.
 Normal termination of Gaussian 16 at Sun Apr 11 07:56:03 2021.

 ---------------------------------------------------------------------
 #N Geom=AllCheck Guess=TCheck SCRF=Check GenChk RwB97XD/def2TZVP Freq
 ---------------------------------------------------------------------

 Structure from the checkpoint file:  "/beegfs/scratch/user/q/tla25/Gau-156914.chk"
 ------------------------
 0_iteration/TS-677-0.out
 ------------------------
 Charge =  0 Multiplicity = 1

                         Standard orientation:
 ---------------------------------------------------------------------
 Center     Atomic      Atomic             Coordinates (Angstroms)
 Number     Number       Type             X           Y           Z
 ---------------------------------------------------------------------
      1          6           0        0.668700   -0.271732    0.001473
      2          6           0        1.915182    0.390352   -0.340114
      3          8           0        1.925280    1.467626   -0.956383
      4          6           0       -0.520616    0.345199   -0.317078
      5          6           0       -2.192287    2.443933    0.739597
      6          1           0       -2.342109    3.163979    1.544196
      7          1           0       -1.958878    2.979060   -0.179742
      8          1           0       -3.105795    1.871409    0.596597
      9          7           0       -1.094422    1.526827    1.045490
     10          1           0       -0.230970    2.028155    1.223472
     11          1           0       -1.293550    0.953734    1.858193
     12         35           0       -2.117935   -0.699010   -0.559593
     13          1           0       -0.441964    1.113690   -1.073645
     14         17           0        0.689360   -1.683699    1.043055
     15          7           0        3.073008   -0.204448    0.030830
     16          6           0        4.359848    0.355583   -0.305181
     17          1           0        3.035355   -1.095892    0.489751
     18          1           0        4.533555    0.355799   -1.383987
     19          1           0        4.442439    1.383162    0.051640
     20          1           0        5.133211   -0.242545    0.172004
 ---------------------------------------------------------------------

 SCF Done:  E(RwB97XD) =  -3415.70409532     A.U. after    1 cycles

 The electronic state is 1-A.
 Alpha  occ. eigenvalues -- -483.13537-101.69394 -62.68398 -56.47512 -56.47161
 Alpha  occ. eigenvalues --  -56.47145 -19.20005 -14.49278 -14.44677 -10.38660
 Alpha  occ. eigenvalues --  -10.38072 -10.32138 -10.30942 -10.30729  -9.57917
 Alpha  occ. eigenvalues --   -8.82521  -7.32536  -7.31725  -7.31687  -6.64676
 Alpha  occ. eigenvalues --   -6.63552  -6.63499  -2.75064  -2.74746  -2.74704
 Alpha  occ. eigenvalues --   -2.73796  -2.73795  -1.12834  -1.04640  -1.01557
 Alpha  occ. eigenvalues --   -0.96943  -0.91100  -0.83609  -0.80521  -0.78870
 Alpha  occ. eigenvalues --   -0.70102  -0.65735  -0.64062  -0.61334  -0.56909
 Alpha  occ. eigenvalues --   -0.55704  -0.55067  -0.53554  -0.51831  -0.50610
 Alpha  occ. eigenvalues --   -0.48692  -0.48272  -0.47162  -0.46369  -0.45177
 Alpha  occ. eigenvalues --   -0.42236  -0.41028  -0.37766  -0.37283  -0.34101
 Alpha  occ. eigenvalues --   -0.33458  -0.27110
 Alpha virt. eigenvalues --    0.04787   0.06900   0.10035   0.12551   0.13220
 Alpha virt. eigenvalues --    0.14572   0.15120   0.16241   0.16562   0.17537
 Alpha virt. eigenvalues --    0.18929   0.19572   0.20353   0.21361   0.22418

 Mulliken charges:
               1
     1  C   -0.174177
     2  C    0.353244
     3  O   -0.564622
     4  C   -0.062729
     5  C   -0.275549
     6  H    0.157597
     7  H    0.154566
     8  H    0.153981
     9  N   -0.314457
    10  H    0.288144
    11  H    0.288243
    12  Br  -0.085029
    13  H    0.185622
    14  Cl  -0.173235
    15  N   -0.328843
    16  C   -0.245853
    17  H    0.248180
    18  H    0.126476
    19  H    0.127687
    20  H    0.140755
 Sum of Mulliken charges =  -0.00000

 Dipole moment (field-independent basis, Debye):
    X=             -2.6122    Y=              2.8301    Z=              4.6711  Tot=              6.0541
 Quadrupole moment (field-independent basis, Debye-Ang):
   XX=            -68.7911   YY=            -77.4290   ZZ=            -78.7865
   XY=            -13.8487   XZ=              0.5246   YZ=              8.1912

  Exact polarizability: 206.767 -10.258 157.266  -3.676  -3.671 124.684
 Approx polarizability: 149.301  -4.400 134.077  -1.247  -6.277 111.261

 ******    1 imaginary frequencies (negative Signs) ******

                      1                      2                      3
                      A                      A                      A
 Frequencies --   -366.0169                38.5541                43.3242
 Red. masses --      6.8954                 3.2905                 2.6540
 Frc consts  --      0.5443                 0.0029                 0.0029
 IR Inten    --    934.4233                 0.3322                 5.0343

                      4                      5                      6
                      A                      A                      A
 Frequencies --     56.6715                81.3714               107.2977
 Red. masses --      3.7709                 1.2018                 5.9907
 Frc consts  --      0.0071                 0.0047                 0.0406
 IR Inten    --     27.0942                 2.3615                19.1933

                      7                      8                      9
                      A                      A                      A
 Frequencies --    124.2462               131.6346               166.8748
 Red. masses --      3.1829                 3.5976                 5.4807
 Frc consts  --      0.0289                 0.0367                 0.0899
 IR Inten    --      1.9650                 4.4387                11.8949

                     10                     11                     12
                      A                      A                      A
 Frequencies --    176.8338               203.9084               259.9274
 Red. masses --      1.4224                 5.0498                 4.5843
 Frc consts  --      0.0262                 0.1237                 0.1825
 IR Inten    --      3.2978                23.7532                12.6227

                     13                     14                     15
                      A                      A                      A
 Frequencies --    300.1978               311.6333               396.4408
 Red. masses --      3.6643                 4.1107                 1.3260
 Frc consts  --      0.1946                 0.2352                 0.1228
 IR Inten    --      9.1276                21.4714                51.4736

                     16                     17                     18
                      A                      A                      A
 Frequencies --    443.9012               459.7163               603.7253
 Red. masses --      5.1919                 7.1439                 2.2392
 Frc consts  --      0.6028                 0.8895                 0.4809
 IR Inten    --    108.9962               118.3950                 0.6592

                     19                     20                     21
                      A                      A                      A
 Frequencies --    645.6855               733.1352               771.6799
 Red. masses --      4.8883                 2.3184                 8.6970
 Frc consts  --      1.2007                 0.7342                 3.0513
 IR Inten    --     54.7856               115.2395                41.3905

                     22                     23                     24
                      A                      A                      A
 Frequencies --    807.6901               990.9520              1012.5020
 Red. masses --      3.2376                 2.8681                 1.1102
 Frc consts  --      1.2444                 1.6594                 0.6706
 IR Inten    --     70.4253                21.4539                18.2865

                     25                     26                     27
                      A                      A                      A
 Frequencies --   1046.4909              1072.7018              1152.1867
 Red. masses --      1.2580                 3.3602                 1.2257
 Frc consts  --      0.8117                 2.2781                 0.9587
 IR Inten    --     32.0296               233.1752                38.4630

                     28                     29                     30
                      A                      A                      A
 Frequencies --   1155.7228              1160.5425              1186.2448
 Red. masses --      1.3375                 3.3961                 1.6836
 Frc consts  --      1.0526                 2.6949                 1.3958
 IR Inten    --      5.3460                31.0829                18.6819

                     31                     32                     33
                      A                      A                      A
 Frequencies --   1220.1651              1233.4628              1318.8135
 Red. masses --      1.2771                 1.3900                 2.3583
 Frc consts  --      1.1202                 1.2460                 2.4166
 IR Inten    --     35.3965                35.8487               425.3204

                     34                     35                     36
                      A                      A                      A
 Frequencies --   1345.2673              1431.0530              1455.8991
 Red. masses --      1.3092                 4.4375                 1.2057
 Frc consts  --      1.3959                 5.3543                 1.5058
 IR Inten    --      7.9482               900.7505                18.2463

                     37                     38                     39
                      A                      A                      A
 Frequencies --   1463.5796              1476.3748              1491.0234
 Red. masses --      1.2795                 1.0617                 1.0400
 Frc consts  --      1.6148                 1.3634                 1.3623
 IR Inten    --     81.2043                15.0649                18.4880

                     40                     41                     42
                      A                      A                      A
 Frequencies --   1502.9167              1508.1223              1573.9927
 Red. masses --      1.0330                 1.0693                 1.9879
 Frc consts  --      1.3748                 1.4329                 2.9017
 IR Inten    --     12.7469                14.5847               744.4531

                     43                     44                     45
                      A                      A                      A
 Frequencies --   1638.3217              1645.9746              3047.3442
 Red. masses --      1.4064                 2.8956                 1.0377
 Frc consts  --      2.2241                 4.6220                 5.6776
 IR Inten    --     90.0081               396.5201                85.2638

                     46                     47                     48
                      A                      A                      A
 Frequencies --   3071.9447              3107.0865              3150.0998
 Red. masses --      1.0339                 1.1021                 1.1052
 Frc consts  --      5.7485                 6.2685                 6.4618
 IR Inten    --     42.2359                42.9171                14.1113

                     49                     50                     51
                      A                      A                      A
 Frequencies --   3159.4912              3174.7308              3219.3642
 Red. masses --      1.1017                 1.1050                 1.0897
 Frc consts  --      6.4797                 6.5620                 6.6543
 IR Inten    --     23.1822                 9.9622                 4.2189

                     52                     53                     54
                      A                      A                      A
 Frequencies --   3516.8454              3599.7905              3688.1345
 Red. masses --      1.0510                 1.0970                 1.0776
 Frc consts  --      7.6586                 8.3751                 8.6361
 IR Inten    --     30.5679                54.9117                81.8321

 - Thermochemistry -
 -------------------
 Temperature   298.150 Kelvin.  Pressure   1.00000 Atm.
 Atom     1 has atomic number  6 and mass  12.00000

 Molecular mass:   227.96650 amu.
 Principal axes and moments of inertia in atomic units:
                           1         2         3
     Eigenvalues --  1519.194884023.195874734.25520
           X            0.99895  -0.03841  -0.02483
           Y            0.03926   0.99862   0.03497
           Z            0.02345  -0.03591   0.99908
 This molecule is an asymmetric top.
 Rotational symmetry number  1.
 Warning -- assumption of classical behavior for rotation
           may cause significant error
 Rotational temperatures (Kelvin)      0.05701     0.02153     0.01830
 Rotational constants (GHZ):           1.18796     0.44858     0.38121
    1 imaginary frequencies ignored.
 Zero-point vibrational energy     410807.1 (Joules/Mol)
                                   98.18526 (Kcal/Mol)
 Warning -- explicit consideration of  17 degrees of freedom as
           vibrations may cause significant error
 Vibrational temperatures:     55.47    62.33    81.54   117.08   154.38
          (Kelvin)            178.76   189.39   240.10   254.42   293.38
                              373.98   431.92   448.37   570.39   638.67
                              661.43   868.63   929.00  1054.82  1110.28
                             1162.09  1425.76  1456.76  1505.67  1543.38
                             1657.74  1662.83  1669.76  1706.74  1755.55
                             1774.68  1897.48  1935.54  2058.97  2094.71
                             2105.76  2124.17  2145.25  2162.36  2169.85
                             2264.62  2357.18  2368.19  4384.45  4419.84
                             4470.40  4532.29  4545.80  4567.73  4631.95
                             5059.96  5179.30  5306.40

 Zero-point correction=                           0.156468 (Hartree/Particle)
 Thermal correction to Energy=                    0.169454
 Thermal correction to Enthalpy=                  0.170398
 Thermal correction to Gibbs Free Energy=         0.114215
 Sum of electronic and zero-point Energies=          -3415.547627
 Sum of electronic and thermal Energies=             -3415.534642
 Sum of electronic and thermal Enthalpies=           -3415.533698
 Sum of electronic and thermal Free Energies=        -3415.589880

                     E (Thermal)             CV                S
                      KCal/Mol        Cal/Mol-Kelvin    Cal/Mol-Kelvin
 Total                  106.334             42.237            118.246
 Electronic               0.000              0.000              0.000
 Translational            0.889              2.981             42.174
 Rotational               0.889              2.981             31.737
 Vibrational            104.556             36.276             44.335
 Vibration     1          0.594              1.981              5.332
 Vibration     2          0.595              1.980              5.101
 Vibration     3          0.596              1.975              4.570
 Vibration     4          0.600              1.962              3.858
 Vibration     5          0.606              1.943              3.317
 Vibration     6          0.610              1.929              3.033
 Vibration     7          0.612              1.922              2.922
 Vibration     8          0.624              1.883              2.470
 Vibration     9          0.628              1.871              2.362
 Vibration    10          0.640              1.834              2.098
 Vibration    11          0.668              1.746              1.662
 Vibration    12          0.693              1.673              1.416
 Vibration    13          0.700              1.652              1.354
 Vibration    14          0.763              1.478              0.976
 Vibration    15          0.803              1.374              0.814
 Vibration    16          0.818              1.339              0.767
 Vibration    17          0.962              1.024              0.443

 Optimization completed.
    -- Stationary point found.
 Normal termination of Gaussian 16 at Sun Apr 11 08:02:01 2021.
