 Gaussian 16, Revision A.03,
 Gaussian 16:  ES64L-G16RevA.03 25-Dec-2016

 ----------------------------------------------------------------------
 # wB97XD def2tzvp, opt=(ts, noeigen, calcfc, maxcycles=70, maxstep=1),
  freq=noraman, scrf=(iefpcm, solvent=water)
 ----------------------------------------------------------------------

 -----------------------
 0_iteration/TS-67-0.out
 -----------------------
 Symbolic Z-matrix:
 Charge =  0 Multiplicity = 1

 SCF Done:  E(RwB97XD) =  -3147.84479351     A.U. after   15 cycles
 SCF Done:  E(RwB97XD) =  -3147.84478720     A.U. after   10 cycles
 SCF Done:  E(RwB97XD) =  -3147.84478756     A.U. after   12 cycles
 SCF Done:  E(RwB97XD) =  -3147.84478168     A.U. after   10 cycles
 SCF Done:  E(RwB97XD) =  -3147.84477919     A.U. after   10 cycles
 SCF Done:  E(RwB97XD) =  -3147.84477909     A.U. after   10 cycles
 SCF Done:  E(RwB97XD) =  -3147.84477709     A.U. after   11 cycles
 SCF Done:  E(RwB97XD) =  -3147.84477916     A.U. after   11 cycles
 Optimization completed.
    -- Stationary point found.
 Normal termination of Gaussian 16 at Sat Jan 30 19:19:40 2021.

 ---------------------------------------------------------------------
 #N Geom=AllCheck Guess=TCheck SCRF=Check GenChk RwB97XD/def2TZVP Freq
 ---------------------------------------------------------------------

 Structure from the checkpoint file:  "/beegfs/scratch/user/q/tla25/Gau-14885.chk"
 -----------------------
 0_iteration/TS-67-0.out
 -----------------------
 Charge =  0 Multiplicity = 1

                         Standard orientation:
 ---------------------------------------------------------------------
 Center     Atomic      Atomic             Coordinates (Angstroms)
 Number     Number       Type             X           Y           Z
 ---------------------------------------------------------------------
      1          6           0        1.105289    0.088246   -0.410789
      2          6           0        2.371877    0.662301   -0.755738
      3          8           0        2.476511    1.887060   -0.972795
      4          6           0       -0.017557    0.934129   -0.395435
      5          6           0        0.561900    1.610008    2.279356
      6          1           0        1.296912    0.826593    2.088570
      7          1           0        1.013433    2.374285    2.910977
      8          1           0       -0.296176    1.184004    2.792924
      9          7           0        0.144693    2.162416    0.995130
     10          1           0       -0.694857    2.725487    1.067572
     11          1           0        0.887709    2.727741    0.594399
     12          6           0       -1.424728    0.450392   -0.308353
     13          6           0       -1.924606   -0.258595    0.781696
     14          6           0       -3.246640   -0.673623    0.806192
     15          6           0       -4.087725   -0.395726   -0.262157
     16          6           0       -3.600789    0.310276   -1.351820
     17          6           0       -2.281668    0.737521   -1.368081
     18          1           0       -1.281381   -0.493849    1.617919
     19          1           0       -3.619974   -1.219337    1.663417
     20          1           0       -5.118964   -0.724553   -0.242609
     21          1           0       -4.249397    0.537126   -2.188341
     22          1           0       -1.910017    1.299715   -2.216590
     23          1           0        0.085104    1.723020   -1.133633
     24         35           0        1.033618   -1.722788    0.209042
     25          7           0        3.475351   -0.134936   -0.874035
     26          1           0        3.463206   -1.074919   -0.521020
     27          1           0        4.363251    0.333850   -0.904581
 ---------------------------------------------------------------------

 SCF Done:  E(RwB97XD) =  -3147.84477916     A.U. after    1 cycles

 The electronic state is 1-A.
 Alpha  occ. eigenvalues -- -483.12166 -62.66994 -56.46093 -56.45769 -56.45757
 Alpha  occ. eigenvalues --  -19.19765 -14.48761 -14.43462 -10.37689 -10.34520
 Alpha  occ. eigenvalues --  -10.31747 -10.30801 -10.29712 -10.29508 -10.29464
 Alpha  occ. eigenvalues --  -10.29338 -10.29296 -10.29253  -8.81105  -6.63198
 Alpha  occ. eigenvalues --   -6.62162  -6.62124  -2.73598  -2.73299  -2.73268
 Alpha  occ. eigenvalues --   -2.72430  -2.72429  -1.12098  -1.04271  -0.99060
 Alpha  occ. eigenvalues --   -0.97437  -0.91990  -0.87411  -0.85534  -0.82305
 Alpha  occ. eigenvalues --   -0.79015  -0.74554  -0.71031  -0.69100  -0.64769
 Alpha  occ. eigenvalues --   -0.63047  -0.61616  -0.59939  -0.58112  -0.56844
 Alpha  occ. eigenvalues --   -0.55128  -0.54431  -0.53172  -0.51411  -0.50901
 Alpha  occ. eigenvalues --   -0.50129  -0.49011  -0.48181  -0.47245  -0.45273
 Alpha  occ. eigenvalues --   -0.44437  -0.42988  -0.42445  -0.39236  -0.37966
 Alpha  occ. eigenvalues --   -0.34938  -0.34215  -0.33564  -0.33438  -0.26346
 Alpha virt. eigenvalues --    0.03065   0.04942   0.07862   0.09604   0.11029
 Alpha virt. eigenvalues --    0.12863   0.13446   0.13979   0.15536   0.16504
 Alpha virt. eigenvalues --    0.16991   0.17632   0.17872   0.18943   0.19480

 Mulliken charges:
               1
     1  C   -0.264626
     2  C    0.320907
     3  O   -0.578118
     4  C    0.023881
     5  C   -0.307522
     6  H    0.155509
     7  H    0.158997
     8  H    0.156160
     9  N   -0.285014
    10  H    0.286322
    11  H    0.282032
    12  C    0.206749
    13  C   -0.275481
    14  C   -0.132918
    15  C   -0.156450
    16  C   -0.131884
    17  C   -0.255072
    18  H    0.176367
    19  H    0.144726
    20  H    0.145994
    21  H    0.145108
    22  H    0.144874
    23  H    0.154815
    24  Br  -0.163068
    25  N   -0.481155
    26  H    0.263178
    27  H    0.265690
 Sum of Mulliken charges =  -0.00000

 Dipole moment (field-independent basis, Debye):
    X=             -3.6582    Y=              2.7359    Z=              4.9302  Tot=              6.7212
 Quadrupole moment (field-independent basis, Debye-Ang):
   XX=            -87.0632   YY=            -93.0761   ZZ=            -91.3604
   XY=             -8.0134   XZ=              6.7797   YZ=              6.4864

  Exact polarizability: 263.665   4.819 203.828  -7.680 -14.433 193.954
 Approx polarizability: 197.920   5.178 174.059  -3.327 -15.532 166.426

 ******    1 imaginary frequencies (negative Signs) ******

                      1                      2                      3
                      A                      A                      A
 Frequencies --   -357.7105                39.5955                43.5215
 Red. masses --      5.7546                 5.5508                 4.2100
 Frc consts  --      0.4338                 0.0051                 0.0047
 IR Inten    --    850.6786                 0.7248                 4.0767

                      4                      5                      6
                      A                      A                      A
 Frequencies --     69.1775                88.2002               102.5964
 Red. masses --      3.0229                 4.4183                 4.5923
 Frc consts  --      0.0085                 0.0203                 0.0285
 IR Inten    --      4.2155                 2.0769                25.2696

                      7                      8                      9
                      A                      A                      A
 Frequencies --    123.2083               143.3053               195.0926
 Red. masses --      3.7593                 2.9688                 7.8635
 Frc consts  --      0.0336                 0.0359                 0.1763
 IR Inten    --     18.8154                35.3673                10.5151

                     10                     11                     12
                      A                      A                      A
 Frequencies --    217.0961               226.9545               269.3351
 Red. masses --      1.8539                 2.2123                 2.6543
 Frc consts  --      0.0515                 0.0671                 0.1134
 IR Inten    --      1.3701                 1.3589                99.5279

                     13                     14                     15
                      A                      A                      A
 Frequencies --    295.5216               303.5564               317.8529
 Red. masses --      4.3152                 1.6185                 3.2418
 Frc consts  --      0.2220                 0.0879                 0.1930
 IR Inten    --     10.5924               221.2547                31.2819

                     16                     17                     18
                      A                      A                      A
 Frequencies --    388.3673               426.8897               445.0559
 Red. masses --      6.7084                 3.0040                 3.7752
 Frc consts  --      0.5961                 0.3225                 0.4406
 IR Inten    --     36.7942                 4.3132                28.7158

                     19                     20                     21
                      A                      A                      A
 Frequencies --    498.2117               566.6633               575.0411
 Red. masses --      1.1196                 3.2369                 3.3086
 Frc consts  --      0.1637                 0.6124                 0.6446
 IR Inten    --     16.4806                12.6808               123.9621

                     22                     23                     24
                      A                      A                      A
 Frequencies --    632.8696               660.1007               686.7248
 Red. masses --      6.2860                 3.0671                 3.2672
 Frc consts  --      1.4834                 0.7874                 0.9078
 IR Inten    --      0.8807                37.5806                28.0815

                     25                     26                     27
                      A                      A                      A
 Frequencies --    714.1627               732.9895               780.3785
 Red. masses --      2.4773                 1.6198                 8.8147
 Frc consts  --      0.7444                 0.5128                 3.1628
 IR Inten    --     72.6388                93.0463                30.0979

                     28                     29                     30
                      A                      A                      A
 Frequencies --    798.0640               875.3893               885.4624
 Red. masses --      2.0794                 3.5759                 1.2505
 Frc consts  --      0.7803                 1.6145                 0.5777
 IR Inten    --     16.7275                23.6472                 0.4349

                     31                     32                     33
                      A                      A                      A
 Frequencies --    967.7378              1019.8575              1020.6115
 Red. masses --      1.4044                 1.1692                 1.2859
 Frc consts  --      0.7749                 0.7165                 0.7892
 IR Inten    --      2.9822                53.2311                 8.3844

                     34                     35                     36
                      A                      A                      A
 Frequencies --   1026.5955              1034.9701              1040.7491
 Red. masses --      5.6762                 1.5229                 2.3757
 Frc consts  --      3.5246                 0.9611                 1.5161
 IR Inten    --      2.6038                20.8864                87.2561

                     37                     38                     39
                      A                      A                      A
 Frequencies --   1055.1776              1064.7498              1084.6009
 Red. masses --      3.4896                 2.1982                 1.2252
 Frc consts  --      2.2892                 1.4683                 0.8492
 IR Inten    --     46.5512                 4.8765                60.2941

                     40                     41                     42
                      A                      A                      A
 Frequencies --   1097.0287              1121.9492              1185.7161
 Red. masses --      1.7604                 1.5986                 1.1369
 Frc consts  --      1.2483                 1.1856                 0.9418
 IR Inten    --     49.0683                14.7319                 0.2094

                     43                     44                     45
                      A                      A                      A
 Frequencies --   1213.6938              1217.8099              1226.6934
 Red. masses --      1.7772                 1.4269                 1.4057
 Frc consts  --      1.5424                 1.2468                 1.2463
 IR Inten    --     54.4871                14.6217                86.0308

                     46                     47                     48
                      A                      A                      A
 Frequencies --   1234.2888              1280.5653              1332.8688
 Red. masses --      1.7319                 1.2004                 4.1130
 Frc consts  --      1.5546                 1.1597                 4.3052
 IR Inten    --     50.5321                33.3030                18.7095

                     49                     50                     51
                      A                      A                      A
 Frequencies --   1357.5585              1370.4895              1401.8393
 Red. masses --      1.3474                 1.3815                 3.8357
 Frc consts  --      1.4631                 1.5288                 4.4411
 IR Inten    --     20.0631                10.1072               470.4134

                     52                     53                     54
                      A                      A                      A
 Frequencies --   1445.6116              1462.5373              1496.2304
 Red. masses --      2.0321                 1.5159                 1.0438
 Frc consts  --      2.5021                 1.9104                 1.3768
 IR Inten    --    492.9648               199.6443                18.4720

                     55                     56                     57
                      A                      A                      A
 Frequencies --   1501.5657              1506.9416              1552.1909
 Red. masses --      2.2238                 1.0534                 2.4405
 Frc consts  --      2.9542                 1.4095                 3.4643
 IR Inten    --     65.9782                 4.7224                 2.2055

                     58                     59                     60
                      A                      A                      A
 Frequencies --   1592.6152              1632.5876              1647.4647
 Red. masses --      3.2523                 1.3568                 1.2669
 Frc consts  --      4.8603                 2.1307                 2.0259
 IR Inten    --    555.1715               421.8476                 6.7867

                     61                     62                     63
                      A                      A                      A
 Frequencies --   1655.5427              1679.1379              3069.2414
 Red. masses --      5.1027                 5.8296                 1.0339
 Frc consts  --      8.2401                 9.6842                 5.7385
 IR Inten    --      3.5230                 0.1826                34.3362

                     64                     65                     66
                      A                      A                      A
 Frequencies --   3142.8488              3153.4177              3174.8150
 Red. masses --      1.1045                 1.0881                 1.1046
 Frc consts  --      6.4279                 6.3748                 6.5596
 IR Inten    --     10.6511                 6.0075                15.6405

                     67                     68                     69
                      A                      A                      A
 Frequencies --   3193.0357              3200.6714              3210.5966
 Red. masses --      1.0874                 1.0885                 1.0928
 Frc consts  --      6.5323                 6.5698                 6.6370
 IR Inten    --      4.9493                 1.2657                25.6247

                     70                     71                     72
                      A                      A                      A
 Frequencies --   3221.7124              3236.4366              3499.2547
 Red. masses --      1.0973                 1.0934                 1.0528
 Frc consts  --      6.7104                 6.7479                 7.5957
 IR Inten    --     26.7994                 6.5998                41.8792

                     73                     74                     75
                      A                      A                      A
 Frequencies --   3592.8217              3622.7965              3743.7899
 Red. masses --      1.0950                 1.0457                 1.1034
 Frc consts  --      8.3282                 8.0865                 9.1121
 IR Inten    --     74.7395                66.3254                82.0877

 - Thermochemistry -
 -------------------
 Temperature   298.150 Kelvin.  Pressure   1.00000 Atm.
 Atom     1 has atomic number  6 and mass  12.00000

 Molecular mass:   256.02112 amu.
 Principal axes and moments of inertia in atomic units:
                           1         2         3
     Eigenvalues --  2385.229304881.347855716.34861
           X            0.99959   0.02817   0.00456
           Y           -0.02836   0.99836   0.04979
           Z           -0.00315  -0.04990   0.99875
 This molecule is an asymmetric top.
 Rotational symmetry number  1.
 Warning -- assumption of classical behavior for rotation
           may cause significant error
 Rotational temperatures (Kelvin)      0.03631     0.01774     0.01515
 Rotational constants (GHZ):           0.75663     0.36972     0.31572
    1 imaginary frequencies ignored.
 Zero-point vibrational energy     578339.4 (Joules/Mol)
                                  138.22644 (Kcal/Mol)
 Warning -- explicit consideration of  20 degrees of freedom as
           vibrations may cause significant error
 Vibrational temperatures:     56.97    62.62    99.53   126.90   147.61
          (Kelvin)            177.27   206.18   280.69   312.35   326.54
                              387.51   425.19   436.75   457.32   558.77
                              614.20   640.34   716.82   815.30   827.36
                              910.56   949.74   988.04  1027.52  1054.61
                             1122.79  1148.24  1259.49  1273.98  1392.36
                             1467.35  1468.43  1477.04  1489.09  1497.41
                             1518.17  1531.94  1560.50  1578.38  1614.23
                             1705.98  1746.23  1752.16  1764.94  1775.87
                             1842.45  1917.70  1953.22  1971.83  2016.93
                             2079.91  2104.27  2152.74  2160.42  2168.15
                             2233.26  2291.42  2348.93  2370.33  2381.96
                             2415.90  4415.95  4521.86  4537.06  4567.85
                             4594.07  4605.05  4619.33  4635.33  4656.51
                             5034.65  5169.27  5212.40  5386.48

 Zero-point correction=                           0.220278 (Hartree/Particle)
 Thermal correction to Energy=                    0.234605
 Thermal correction to Enthalpy=                  0.235549
 Thermal correction to Gibbs Free Energy=         0.177410
 Sum of electronic and zero-point Energies=          -3147.624501
 Sum of electronic and thermal Energies=             -3147.610174
 Sum of electronic and thermal Enthalpies=           -3147.609230
 Sum of electronic and thermal Free Energies=        -3147.667369

                     E (Thermal)             CV                S
                      KCal/Mol        Cal/Mol-Kelvin    Cal/Mol-Kelvin
 Total                  147.217             52.144            122.365
 Electronic               0.000              0.000              0.000
 Translational            0.889              2.981             42.520
 Rotational               0.889              2.981             32.565
 Vibrational            145.440             46.182             47.280
 Vibration     1          0.594              1.981              5.279
 Vibration     2          0.595              1.980              5.092
 Vibration     3          0.598              1.969              4.177
 Vibration     4          0.601              1.957              3.700
 Vibration     5          0.605              1.947              3.404
 Vibration     6          0.610              1.930              3.049
 Vibration     7          0.616              1.910              2.759
 Vibration     8          0.636              1.847              2.179
 Vibration     9          0.646              1.815              1.983
 Vibration    10          0.651              1.800              1.903
 Vibration    11          0.674              1.730              1.600
 Vibration    12          0.690              1.682              1.442
 Vibration    13          0.695              1.667              1.397
 Vibration    14          0.704              1.639              1.321
 Vibration    15          0.757              1.495              1.006
 Vibration    16          0.789              1.412              0.869
 Vibration    17          0.804              1.372              0.811
 Vibration    18          0.854              1.254              0.663
 Vibration    19          0.923              1.103              0.511
 Vibration    20          0.931              1.085              0.495

 Optimization completed.
    -- Stationary point found.
 Normal termination of Gaussian 16 at Sat Jan 30 20:13:48 2021.
