 Gaussian 16, Revision A.03,
 Gaussian 16:  ES64L-G16RevA.03 25-Dec-2016

 ----------------------------------------------------------------------
 # wB97XD def2tzvp, opt=(ts, noeigen, calcfc, maxcycles=70, maxstep=8),
  freq=noraman, scrf=(iefpcm, solvent=water)
 ----------------------------------------------------------------------

 ------------------------
 1_iteration/TS-611-1.out
 ------------------------
 Symbolic Z-matrix:
 Charge =  0 Multiplicity = 1

 SCF Done:  E(RwB97XD) =  -3147.82566176     A.U. after   15 cycles
 SCF Done:  E(RwB97XD) =  -3147.82647152     A.U. after   13 cycles
 SCF Done:  E(RwB97XD) =  -3147.82674781     A.U. after   13 cycles
 SCF Done:  E(RwB97XD) =  -3147.82679848     A.U. after   12 cycles
 SCF Done:  E(RwB97XD) =  -3147.82679805     A.U. after   11 cycles
 SCF Done:  E(RwB97XD) =  -3147.82679923     A.U. after    9 cycles
 SCF Done:  E(RwB97XD) =  -3147.82679927     A.U. after    9 cycles
 Optimization completed.
    -- Stationary point found.
 Normal termination of Gaussian 16 at Sat Feb 20 16:30:57 2021.

 ---------------------------------------------------------------------
 #N Geom=AllCheck Guess=TCheck SCRF=Check GenChk RwB97XD/def2TZVP Freq
 ---------------------------------------------------------------------

 Structure from the checkpoint file:  "/beegfs/scratch/user/q/tla25/Gau-101772.chk"
 ------------------------
 1_iteration/TS-611-1.out
 ------------------------
 Charge =  0 Multiplicity = 1

                         Standard orientation:
 ---------------------------------------------------------------------
 Center     Atomic      Atomic             Coordinates (Angstroms)
 Number     Number       Type             X           Y           Z
 ---------------------------------------------------------------------
      1          6           0        1.488950    0.822196   -0.628633
      2          6           0        1.666656    2.145537   -0.130948
      3          8           0        2.605183    2.879603   -0.479329
      4          6           0        0.553561   -0.119918   -0.126078
      5          6           0        0.438151   -1.208710    2.643936
      6          1           0       -0.543568   -0.829931    2.912098
      7          1           0        0.356147   -2.223640    2.260043
      8          1           0        1.072548   -1.212986    3.530124
      9          7           0        1.036849   -0.345255    1.616827
     10          1           0        1.038140    0.630188    1.917825
     11          1           0        2.007841   -0.597978    1.463563
     12         35           0        0.905243   -1.908251   -0.841393
     13          6           0       -0.934070    0.135348   -0.113686
     14          6           0       -1.840521   -0.715574    0.518642
     15          6           0       -3.199807   -0.461915    0.474886
     16          6           0       -3.684793    0.638559   -0.218675
     17          6           0       -2.798668    1.467941   -0.885368
     18          6           0       -1.436232    1.211214   -0.842762
     19          1           0       -1.494673   -1.606113    1.021655
     20          1           0       -3.884057   -1.135343    0.974434
     21          1           0       -4.748710    0.834308   -0.254160
     22          1           0       -3.163973    2.313525   -1.453572
     23          1           0       -0.750363    1.840020   -1.393913
     24          1           0        2.316957    0.449945   -1.211663
     25          7           0        0.815688    2.611713    0.878676
     26          1           0       -0.154645    2.340815    0.840296
     27          1           0        0.936265    3.595894    1.060256
 ---------------------------------------------------------------------

 SCF Done:  E(RwB97XD) =  -3147.82679927     A.U. after    1 cycles

 The electronic state is 1-A.
 Alpha  occ. eigenvalues -- -483.13545 -62.68382 -56.47500 -56.47147 -56.47132
 Alpha  occ. eigenvalues --  -19.19170 -14.50805 -14.43400 -10.41323 -10.37127
 Alpha  occ. eigenvalues --  -10.32637 -10.31851 -10.30202 -10.30053 -10.29907
 Alpha  occ. eigenvalues --  -10.29809 -10.29745 -10.24710  -8.82477  -6.64627
 Alpha  occ. eigenvalues --   -6.63507  -6.63461  -2.75011  -2.74699  -2.74663
 Alpha  occ. eigenvalues --   -2.73757  -2.73756  -1.11504  -1.06138  -0.98912
 Alpha  occ. eigenvalues --   -0.97947  -0.93468  -0.86638  -0.86179  -0.83795
 Alpha  occ. eigenvalues --   -0.79744  -0.74434  -0.71513  -0.68683  -0.65307
 Alpha  occ. eigenvalues --   -0.64442  -0.62126  -0.59800  -0.58743  -0.57162
 Alpha  occ. eigenvalues --   -0.56357  -0.54601  -0.53343  -0.51880  -0.51169
 Alpha  occ. eigenvalues --   -0.49718  -0.49051  -0.48721  -0.47814  -0.47032
 Alpha  occ. eigenvalues --   -0.45136  -0.43630  -0.43203  -0.38449  -0.38048
 Alpha  occ. eigenvalues --   -0.35924  -0.34459  -0.34029  -0.32929  -0.27303
 Alpha virt. eigenvalues --    0.01087   0.04439   0.04955   0.08973   0.10264
 Alpha virt. eigenvalues --    0.12849   0.13274   0.14122   0.15304   0.16157
 Alpha virt. eigenvalues --    0.16889   0.16992   0.17954   0.18642   0.19362

 Mulliken charges:
               1
     1  C   -0.539693
     2  C    0.300557
     3  O   -0.552536
     4  C    0.293188
     5  C   -0.332578
     6  H    0.176329
     7  H    0.169108
     8  H    0.169927
     9  N   -0.247660
    10  H    0.279303
    11  H    0.293573
    12  Br  -0.094871
    13  C    0.081796
    14  C   -0.288890
    15  C   -0.140324
    16  C   -0.142920
    17  C   -0.111908
    18  C   -0.279139
    19  H    0.191749
    20  H    0.147609
    21  H    0.149621
    22  H    0.148984
    23  H    0.192804
    24  H    0.127725
    25  N   -0.515697
    26  H    0.272282
    27  H    0.251664
 Sum of Mulliken charges =  -0.00000

 Dipole moment (field-independent basis, Debye):
    X=             -6.7189    Y=             -4.8460    Z=              7.6158  Tot=             11.2529
 Quadrupole moment (field-independent basis, Debye-Ang):
   XX=           -101.7796   YY=           -104.1585   ZZ=            -87.6828
   XY=            -21.2494   XZ=              8.7315   YZ=             -1.0854

  Exact polarizability: 242.964   8.229 245.639 -13.195 -25.485 188.882
 Approx polarizability: 191.344   5.157 197.343 -10.171 -20.024 161.054

 ******    1 imaginary frequencies (negative Signs) ******

                      1                      2                      3
                      A                      A                      A
 Frequencies --   -360.6771                50.2825                80.9630
 Red. masses --      5.7642                 3.6940                 6.3990
 Frc consts  --      0.4418                 0.0055                 0.0247
 IR Inten    --    573.5144                 3.1213                 3.9489

                      4                      5                      6
                      A                      A                      A
 Frequencies --     91.8120                99.1170               134.2599
 Red. masses --      4.5612                 4.2146                 5.3353
 Frc consts  --      0.0227                 0.0244                 0.0567
 IR Inten    --      6.3371                 6.9508                19.8427

                      7                      8                      9
                      A                      A                      A
 Frequencies --    155.5486               186.4701               215.9225
 Red. masses --      5.8247                 4.6159                 1.8824
 Frc consts  --      0.0830                 0.0946                 0.0517
 IR Inten    --      5.5003                 2.5266                 4.6363

                     10                     11                     12
                      A                      A                      A
 Frequencies --    255.4053               277.3225               281.8140
 Red. masses --      7.5359                 4.6316                 1.2453
 Frc consts  --      0.2896                 0.2099                 0.0583
 IR Inten    --      2.9040                 1.9877                 2.1469

                     13                     14                     15
                      A                      A                      A
 Frequencies --    302.3346               347.3358               391.8101
 Red. masses --      3.5094                 4.7002                 3.8853
 Frc consts  --      0.1890                 0.3341                 0.3514
 IR Inten    --     39.2884                 5.1866                 4.3466

                     16                     17                     18
                      A                      A                      A
 Frequencies --    431.0895               441.8770               479.5518
 Red. masses --      2.0487                 2.1362                 2.2905
 Frc consts  --      0.2243                 0.2457                 0.3104
 IR Inten    --      5.0974                 2.2780                94.5955

                     19                     20                     21
                      A                      A                      A
 Frequencies --    554.7082               578.6863               594.8751
 Red. masses --      2.6933                 3.4869                 1.3474
 Frc consts  --      0.4883                 0.6880                 0.2809
 IR Inten    --     36.6398                70.4819               460.2753

                     22                     23                     24
                      A                      A                      A
 Frequencies --    606.8226               634.3261               640.1877
 Red. masses --      4.4084                 1.9074                 2.4666
 Frc consts  --      0.9564                 0.4522                 0.5956
 IR Inten    --     23.4233                21.6111                47.2276

                     25                     26                     27
                      A                      A                      A
 Frequencies --    723.9923               734.1389               762.5188
 Red. masses --      1.5792                 1.7727                 3.8531
 Frc consts  --      0.4877                 0.5629                 1.3200
 IR Inten    --     17.6605                61.5745                59.7798

                     28                     29                     30
                      A                      A                      A
 Frequencies --    791.6655               800.8692               867.9958
 Red. masses --      2.4370                 4.9530                 3.1929
 Frc consts  --      0.8999                 1.8717                 1.4173
 IR Inten    --     93.1293               155.5665               125.2623

                     31                     32                     33
                      A                      A                      A
 Frequencies --    887.4560               938.8129               984.5375
 Red. masses --      1.2388                 3.4018                 1.4017
 Frc consts  --      0.5748                 1.7665                 0.8005
 IR Inten    --      1.2358                 6.1564                 1.3842

                     34                     35                     36
                      A                      A                      A
 Frequencies --   1026.5024              1029.2433              1039.4897
 Red. masses --      3.0990                 1.6953                 1.3324
 Frc consts  --      1.9240                 1.0581                 0.8483
 IR Inten    --      1.7004                 0.5434                 0.3904

                     37                     38                     39
                      A                      A                      A
 Frequencies --   1044.5266              1065.1825              1088.1597
 Red. masses --      3.4640                 2.2992                 1.2342
 Frc consts  --      2.2267                 1.5370                 0.8610
 IR Inten    --     89.9174                 9.8607                 7.9293

                     40                     41                     42
                      A                      A                      A
 Frequencies --   1112.2148              1124.1537              1127.4336
 Red. masses --      1.5282                 1.5728                 1.4274
 Frc consts  --      1.1138                 1.1710                 1.0690
 IR Inten    --    221.3023                 4.9723                83.4028

                     43                     44                     45
                      A                      A                      A
 Frequencies --   1153.8931              1187.3372              1217.3954
 Red. masses --      2.3870                 1.1259                 1.1257
 Frc consts  --      1.8725                 0.9352                 0.9829
 IR Inten    --     65.5151                 0.1277                15.4370

                     46                     47                     48
                      A                      A                      A
 Frequencies --   1293.2073              1322.5672              1328.1333
 Red. masses --      1.6024                 4.2204                 1.4450
 Frc consts  --      1.5789                 4.3495                 1.5018
 IR Inten    --    123.8505                13.2561               152.5024

                     49                     50                     51
                      A                      A                      A
 Frequencies --   1348.8398              1362.8316              1380.8406
 Red. masses --      2.2238                 1.4740                 1.7555
 Frc consts  --      2.3838                 1.6130                 1.9722
 IR Inten    --    198.7565                 5.3200               139.5564

                     52                     53                     54
                      A                      A                      A
 Frequencies --   1406.0768              1455.5332              1493.2462
 Red. masses --      3.1608                 1.1872                 2.2554
 Frc consts  --      3.6819                 1.4819                 2.9630
 IR Inten    --    512.9153                 4.1849                66.3840

                     55                     56                     57
                      A                      A                      A
 Frequencies --   1498.7876              1503.9410              1541.6781
 Red. masses --      1.0378                 1.0401                 2.2132
 Frc consts  --      1.3735                 1.3860                 3.0993
 IR Inten    --     15.3327                21.3593                 7.0807

                     58                     59                     60
                      A                      A                      A
 Frequencies --   1613.4698              1633.5148              1648.8928
 Red. masses --      1.6859                 1.3628                 2.4790
 Frc consts  --      2.5858                 2.1425                 3.9711
 IR Inten    --    731.9137               565.8908               117.9122

                     61                     62                     63
                      A                      A                      A
 Frequencies --   1654.6291              1672.9602              3078.6223
 Red. masses --      2.7203                 5.7578                 1.0349
 Frc consts  --      4.3881                 9.4947                 5.7790
 IR Inten    --    221.8296                 3.8510                27.5244

                     64                     65                     66
                      A                      A                      A
 Frequencies --   3158.1764              3193.5011              3202.3512
 Red. masses --      1.1041                 1.1059                 1.0866
 Frc consts  --      6.4883                 6.6450                 6.5654
 IR Inten    --     10.1832                 8.5441                 0.0315

                     67                     68                     69
                      A                      A                      A
 Frequencies --   3211.5468              3221.6963              3228.8940
 Red. masses --      1.0903                 1.0937                 1.0964
 Frc consts  --      6.6258                 6.6884                 6.7350
 IR Inten    --     10.7655                14.3064                15.7637

                     70                     71                     72
                      A                      A                      A
 Frequencies --   3234.4671              3250.2561              3443.2947
 Red. masses --      1.0888                 1.0921                 1.0615
 Frc consts  --      6.7111                 6.7972                 7.4149
 IR Inten    --      2.3806                 3.7705               100.7228

                     73                     74                     75
                      A                      A                      A
 Frequencies --   3556.7208              3577.8223              3680.9496
 Red. masses --      1.0877                 1.0481                 1.0986
 Frc consts  --      8.1067                 7.9050                 8.7702
 IR Inten    --     79.7371                28.4655                81.8068

 - Thermochemistry -
 -------------------
 Temperature   298.150 Kelvin.  Pressure   1.00000 Atm.
 Atom     1 has atomic number  6 and mass  12.00000

 Molecular mass:   256.02112 amu.
 Principal axes and moments of inertia in atomic units:
                           1         2         3
     Eigenvalues --  3402.918963723.077215278.28560
           X            0.99200   0.12396   0.02381
           Y           -0.12226   0.99050  -0.06287
           Z           -0.03137   0.05946   0.99774
 This molecule is an asymmetric top.
 Rotational symmetry number  1.
 Warning -- assumption of classical behavior for rotation
           may cause significant error
 Rotational temperatures (Kelvin)      0.02545     0.02326     0.01641
 Rotational constants (GHZ):           0.53035     0.48474     0.34192
    1 imaginary frequencies ignored.
 Zero-point vibrational energy     578618.7 (Joules/Mol)
                                  138.29318 (Kcal/Mol)
 Warning -- explicit consideration of  21 degrees of freedom as
           vibrations may cause significant error
 Vibrational temperatures:     72.35   116.49   132.10   142.61   193.17
          (Kelvin)            223.80   268.29   310.66   367.47   399.01
                              405.47   434.99   499.74   563.73   620.24
                              635.76   689.97   798.10   832.60   855.89
                              873.08   912.65   921.09  1041.66  1056.26
                             1097.09  1139.03  1152.27  1248.85  1276.85
                             1350.74  1416.53  1476.91  1480.85  1495.59
                             1502.84  1532.56  1565.62  1600.23  1617.41
                             1622.13  1660.19  1708.31  1751.56  1860.64
                             1902.88  1910.89  1940.68  1960.81  1986.72
                             2023.03  2094.19  2148.45  2156.42  2163.84
                             2218.13  2321.42  2350.26  2372.39  2380.64
                             2407.02  4429.45  4543.91  4594.74  4607.47
                             4620.70  4635.30  4645.66  4653.68  4676.39
                             4954.13  5117.33  5147.69  5296.07

 Zero-point correction=                           0.220384 (Hartree/Particle)
 Thermal correction to Energy=                    0.234017
 Thermal correction to Enthalpy=                  0.234961
 Thermal correction to Gibbs Free Energy=         0.179479
 Sum of electronic and zero-point Energies=          -3147.606415
 Sum of electronic and thermal Energies=             -3147.592782
 Sum of electronic and thermal Enthalpies=           -3147.591838
 Sum of electronic and thermal Free Energies=        -3147.647321

                     E (Thermal)             CV                S
                      KCal/Mol        Cal/Mol-Kelvin    Cal/Mol-Kelvin
 Total                  146.848             51.830            116.773
 Electronic               0.000              0.000              0.000
 Translational            0.889              2.981             42.520
 Rotational               0.889              2.981             32.569
 Vibrational            145.070             45.868             41.683
 Vibration     1          0.595              1.977              4.806
 Vibration     2          0.600              1.962              3.867
 Vibration     3          0.602              1.955              3.621
 Vibration     4          0.604              1.950              3.472
 Vibration     5          0.613              1.919              2.884
 Vibration     6          0.620              1.896              2.603
 Vibration     7          0.632              1.858              2.263
 Vibration     8          0.645              1.817              1.993
 Vibration     9          0.666              1.754              1.693
 Vibration    10          0.678              1.715              1.550
 Vibration    11          0.681              1.707              1.523
 Vibration    12          0.694              1.669              1.404
 Vibration    13          0.725              1.581              1.178
 Vibration    14          0.759              1.488              0.993
 Vibration    15          0.792              1.403              0.855
 Vibration    16          0.802              1.379              0.821
 Vibration    17          0.836              1.295              0.711
 Vibration    18          0.910              1.129              0.535
 Vibration    19          0.935              1.077              0.488
 Vibration    20          0.953              1.043              0.459
 Vibration    21          0.966              1.017              0.438

 Optimization completed.
    -- Stationary point found.
 Normal termination of Gaussian 16 at Sat Feb 20 17:23:41 2021.
