 Gaussian 16, Revision A.03,
 Gaussian 16:  ES64L-G16RevA.03 25-Dec-2016

 ----------------------------------------------------------------------
 # wB97XD def2tzvp, opt=(ts, noeigen, calcfc, maxcycles=70, maxstep=1),
  freq=noraman, scrf=(iefpcm, solvent=water)
 ----------------------------------------------------------------------

 ------------------------
 0_iteration/TS-675-0.out
 ------------------------
 Symbolic Z-matrix:
 Charge =  0 Multiplicity = 1

 SCF Done:  E(RwB97XD) =  -3376.39631353     A.U. after   15 cycles
 SCF Done:  E(RwB97XD) =  -3376.39628007     A.U. after   10 cycles
 SCF Done:  E(RwB97XD) =  -3376.39625157     A.U. after   10 cycles
 SCF Done:  E(RwB97XD) =  -3376.39622794     A.U. after   10 cycles
 SCF Done:  E(RwB97XD) =  -3376.39620934     A.U. after   10 cycles
 SCF Done:  E(RwB97XD) =  -3376.39619604     A.U. after   10 cycles
 SCF Done:  E(RwB97XD) =  -3376.39618873     A.U. after   10 cycles
 SCF Done:  E(RwB97XD) =  -3376.39618943     A.U. after   10 cycles
 SCF Done:  E(RwB97XD) =  -3376.39620151     A.U. after   10 cycles
 SCF Done:  E(RwB97XD) =  -3376.39622278     A.U. after   10 cycles
 SCF Done:  E(RwB97XD) =  -3376.39752799     A.U. after    9 cycles
 SCF Done:  E(RwB97XD) =  -3376.39755048     A.U. after    9 cycles
 SCF Done:  E(RwB97XD) =  -3376.39756825     A.U. after   10 cycles
 SCF Done:  E(RwB97XD) =  -3376.39758706     A.U. after   10 cycles
 SCF Done:  E(RwB97XD) =  -3376.39760888     A.U. after   10 cycles
 SCF Done:  E(RwB97XD) =  -3376.39763114     A.U. after   10 cycles
 SCF Done:  E(RwB97XD) =  -3376.39764630     A.U. after   10 cycles
 SCF Done:  E(RwB97XD) =  -3376.39765047     A.U. after   10 cycles
 SCF Done:  E(RwB97XD) =  -3376.39765045     A.U. after    7 cycles
 Optimization completed.
    -- Stationary point found.
 Normal termination of Gaussian 16 at Thu Feb 18 18:47:28 2021.

 ---------------------------------------------------------------------
 #N Geom=AllCheck Guess=TCheck SCRF=Check GenChk RwB97XD/def2TZVP Freq
 ---------------------------------------------------------------------

 Structure from the checkpoint file:  "/beegfs/scratch/user/q/tla25/Gau-18906.chk"
 ------------------------
 0_iteration/TS-675-0.out
 ------------------------
 Charge =  0 Multiplicity = 1

                         Standard orientation:
 ---------------------------------------------------------------------
 Center     Atomic      Atomic             Coordinates (Angstroms)
 Number     Number       Type             X           Y           Z
 ---------------------------------------------------------------------
      1          6           0        1.024232   -0.152960   -0.059942
      2          6           0        2.187636    0.609693   -0.467561
      3          8           0        2.077671    1.673310   -1.093433
      4          6           0       -0.227080    0.344586   -0.344109
      5          6           0       -2.015315    2.356480    0.723474
      6          1           0       -2.214738    3.071864    1.521699
      7          1           0       -1.824823    2.898802   -0.201547
      8          1           0       -2.886590    1.719204    0.589168
      9          7           0       -0.854571    1.522557    1.030988
     10          1           0       -0.023861    2.083000    1.185376
     11          1           0       -1.003642    0.952334    1.856055
     12         35           0       -1.732113   -0.836539   -0.485583
     13          1           0       -0.252091    1.105208   -1.111846
     14         17           0        1.219645   -1.545085    0.986306
     15          7           0        3.413147    0.129950   -0.134196
     16          1           0        3.531546   -0.784185    0.261854
     17          1           0        4.215941    0.598274   -0.513797
 ---------------------------------------------------------------------

 SCF Done:  E(RwB97XD) =  -3376.39765045     A.U. after    1 cycles

 The electronic state is 1-A.
 Alpha  occ. eigenvalues -- -483.13687-101.69489 -62.68547 -56.47662 -56.47309
 Alpha  occ. eigenvalues --  -56.47292 -19.20260 -14.48955 -14.44165 -10.38739
 Alpha  occ. eigenvalues --  -10.38698 -10.32054 -10.31255  -9.58012  -8.82670
 Alpha  occ. eigenvalues --   -7.32636  -7.31816  -7.31782  -6.64830  -6.63700
 Alpha  occ. eigenvalues --   -6.63644  -2.75219  -2.74899  -2.74854  -2.73940
 Alpha  occ. eigenvalues --   -2.73940  -1.12974  -1.04351  -1.00171  -0.96811
 Alpha  occ. eigenvalues --   -0.91232  -0.83381  -0.79125  -0.73086  -0.64785
 Alpha  occ. eigenvalues --   -0.63964  -0.62503  -0.57867  -0.56749  -0.54840
 Alpha  occ. eigenvalues --   -0.52492  -0.50989  -0.50121  -0.48411  -0.46707
 Alpha  occ. eigenvalues --   -0.46039  -0.42338  -0.41213  -0.37810  -0.37358
 Alpha  occ. eigenvalues --   -0.35304  -0.34268  -0.27551
 Alpha virt. eigenvalues --    0.04521   0.06629   0.10076   0.12664   0.13544
 Alpha virt. eigenvalues --    0.14586   0.15759   0.16647   0.17742   0.18308
 Alpha virt. eigenvalues --    0.19212   0.20404   0.22006   0.23420   0.24520

 Mulliken charges:
               1
     1  C   -0.147264
     2  C    0.302873
     3  O   -0.545450
     4  C   -0.053503
     5  C   -0.273767
     6  H    0.156331
     7  H    0.153444
     8  H    0.152482
     9  N   -0.328679
    10  H    0.287048
    11  H    0.287523
    12  Br  -0.076959
    13  H    0.187118
    14  Cl  -0.167105
    15  N   -0.472493
    16  H    0.267646
    17  H    0.270758
 Sum of Mulliken charges =  -0.00000

 Dipole moment (field-independent basis, Debye):
    X=             -2.9221    Y=              2.4512    Z=              4.2965  Tot=              5.7452
 Quadrupole moment (field-independent basis, Debye-Ang):
   XX=            -63.1536   YY=            -72.6526   ZZ=            -73.1131
   XY=            -12.0837   XZ=             -0.0411   YZ=              8.5742

  Exact polarizability: 182.904  -8.619 142.926  -5.040  -4.484 111.056
 Approx polarizability: 135.451  -3.641 121.609  -2.058  -6.699  99.586

 ******    1 imaginary frequencies (negative Signs) ******

                      1                      2                      3
                      A                      A                      A
 Frequencies --   -366.6170                49.1378                77.0977
 Red. masses --      6.4859                 6.5860                 4.3516
 Frc consts  --      0.5136                 0.0094                 0.0152
 IR Inten    --    886.4491                 6.2697                15.3500

                      4                      5                      6
                      A                      A                      A
 Frequencies --     81.4886               110.6771               136.1863
 Red. masses --      1.8956                 6.2292                 5.1696
 Frc consts  --      0.0074                 0.0450                 0.0565
 IR Inten    --      4.1792                13.7941                 4.4859

                      7                      8                      9
                      A                      A                      A
 Frequencies --    164.6528               182.2089               192.1193
 Red. masses --      2.2526                 1.5966                 1.7598
 Frc consts  --      0.0360                 0.0312                 0.0383
 IR Inten    --      2.1754               130.7419               203.9541

                     10                     11                     12
                      A                      A                      A
 Frequencies --    215.5325               291.0628               316.2658
 Red. masses --      4.6342                 3.0185                 7.7150
 Frc consts  --      0.1268                 0.1507                 0.4547
 IR Inten    --     62.8217                 1.3225                 6.0834

                     13                     14                     15
                      A                      A                      A
 Frequencies --    436.3249               461.2620               543.3273
 Red. masses --      4.3477                 9.7855                 1.1416
 Frc consts  --      0.4877                 1.2267                 0.1986
 IR Inten    --    174.4578                14.2251                 9.5220

                     16                     17                     18
                      A                      A                      A
 Frequencies --    589.6214               604.8488               697.5643
 Red. masses --      3.4594                 2.1470                 2.6183
 Frc consts  --      0.7086                 0.4628                 0.7507
 IR Inten    --     56.2433                 0.8533                46.3718

                     19                     20                     21
                      A                      A                      A
 Frequencies --    773.6325               784.4072              1011.4095
 Red. masses --      6.4049                 3.1706                 1.0827
 Frc consts  --      2.2586                 1.1494                 0.6526
 IR Inten    --     48.6006               127.2879                 6.2515

                     22                     23                     24
                      A                      A                      A
 Frequencies --   1029.5077              1044.5071              1076.7926
 Red. masses --      1.8692                 1.5866                 3.9193
 Frc consts  --      1.1673                 1.0199                 2.6774
 IR Inten    --    119.6556                17.5453               158.4370

                     25                     26                     27
                      A                      A                      A
 Frequencies --   1094.9386              1141.6775              1214.9286
 Red. masses --      1.8311                 1.1939                 1.2895
 Frc consts  --      1.2934                 0.9169                 1.1214
 IR Inten    --     11.0327                45.9445                28.9201

                     28                     29                     30
                      A                      A                      A
 Frequencies --   1227.5967              1345.2543              1395.7975
 Red. masses --      1.3941                 1.3154                 4.3770
 Frc consts  --      1.2378                 1.4025                 5.0242
 IR Inten    --     25.4139                 1.0570               488.7442

                     31                     32                     33
                      A                      A                      A
 Frequencies --   1429.5373              1464.6883              1491.5821
 Red. masses --      4.8623                 1.2781                 1.0407
 Frc consts  --      5.8544                 1.6155                 1.3642
 IR Inten    --   1103.9498               119.3533                18.0241

                     34                     35                     36
                      A                      A                      A
 Frequencies --   1503.2550              1608.1171              1642.7937
 Red. masses --      1.0327                 1.5010                 1.1092
 Frc consts  --      1.3749                 2.2871                 1.7637
 IR Inten    --     10.7098               305.5138                25.9752

                     37                     38                     39
                      A                      A                      A
 Frequencies --   1657.5282              3070.4199              3148.2079
 Red. masses --      3.7455                 1.0339                 1.1050
 Frc consts  --      6.0629                 5.7430                 6.4524
 IR Inten    --    598.1695                45.1031                14.8056

                     40                     41                     42
                      A                      A                      A
 Frequencies --   3172.0438              3223.4573              3520.6969
 Red. masses --      1.1052                 1.0902                 1.0507
 Frc consts  --      6.5522                 6.6740                 7.6736
 IR Inten    --     11.4008                 4.6814                29.8415

                     43                     44                     45
                      A                      A                      A
 Frequencies --   3604.4670              3630.2095              3757.4194
 Red. masses --      1.0969                 1.0452                 1.1052
 Frc consts  --      8.3965                 8.1153                 9.1934
 IR Inten    --     52.6589                97.9065                92.2565

 - Thermochemistry -
 -------------------
 Temperature   298.150 Kelvin.  Pressure   1.00000 Atm.
 Atom     1 has atomic number  6 and mass  12.00000

 Molecular mass:   213.95085 amu.
 Principal axes and moments of inertia in atomic units:
                           1         2         3
     Eigenvalues --  1497.161822878.193383621.25233
           X            0.99703  -0.07173  -0.02807
           Y            0.07263   0.99683   0.03253
           Z            0.02564  -0.03447   0.99908
 This molecule is an asymmetric top.
 Rotational symmetry number  1.
 Warning -- assumption of classical behavior for rotation
           may cause significant error
 Rotational temperatures (Kelvin)      0.05785     0.03009     0.02392
 Rotational constants (GHZ):           1.20544     0.62704     0.49837
    1 imaginary frequencies ignored.
 Zero-point vibrational energy     336235.9 (Joules/Mol)
                                   80.36231 (Kcal/Mol)
 Warning -- explicit consideration of  16 degrees of freedom as
           vibrations may cause significant error
 Vibrational temperatures:     70.70   110.93   117.24   159.24   195.94
          (Kelvin)            236.90   262.16   276.42   310.10   418.77
                              455.04   627.77   663.65   781.73   848.33
                              870.24  1003.64  1113.08  1128.59  1455.19
                             1481.23  1502.81  1549.26  1575.37  1642.62
                             1748.01  1766.24  1935.52  2008.24  2056.79
                             2107.36  2146.05  2162.85  2313.72  2363.61
                             2384.81  4417.65  4529.57  4563.86  4637.84
                             5065.50  5186.02  5223.06  5406.09

 Zero-point correction=                           0.128065 (Hartree/Particle)
 Thermal correction to Energy=                    0.139397
 Thermal correction to Enthalpy=                  0.140341
 Thermal correction to Gibbs Free Energy=         0.088957
 Sum of electronic and zero-point Energies=          -3376.269585
 Sum of electronic and thermal Energies=             -3376.258253
 Sum of electronic and thermal Enthalpies=           -3376.257309
 Sum of electronic and thermal Free Energies=        -3376.308693

                     E (Thermal)             CV                S
                      KCal/Mol        Cal/Mol-Kelvin    Cal/Mol-Kelvin
 Total                   87.473             37.598            108.147
 Electronic               0.000              0.000              0.000
 Translational            0.889              2.981             41.985
 Rotational               0.889              2.981             31.124
 Vibrational             85.696             31.637             35.038
 Vibration     1          0.595              1.978              4.852
 Vibration     2          0.599              1.964              3.963
 Vibration     3          0.600              1.962              3.855
 Vibration     4          0.607              1.941              3.257
 Vibration     5          0.614              1.917              2.857
 Vibration     6          0.623              1.886              2.496
 Vibration     7          0.630              1.864              2.306
 Vibration     8          0.634              1.851              2.207
 Vibration     9          0.645              1.817              1.996
 Vibration    10          0.687              1.690              1.468
 Vibration    11          0.703              1.643              1.329
 Vibration    12          0.797              1.391              0.838
 Vibration    13          0.819              1.336              0.762
 Vibration    14          0.898              1.154              0.558
 Vibration    15          0.947              1.054              0.468
 Vibration    16          0.963              1.022              0.441

 Optimization completed.
    -- Stationary point found.
 Normal termination of Gaussian 16 at Thu Feb 18 18:56:11 2021.
