 Gaussian 16, Revision A.03,
 Gaussian 16:  ES64L-G16RevA.03 25-Dec-2016

 ----------------------------------------------------------------------
 # wB97XD def2tzvp, opt=(ts, noeigen, calcfc, maxcycles=70, maxstep=3),
  freq=noraman, scrf=(iefpcm, solvent=water)
 ----------------------------------------------------------------------

 ------------------------
 0_iteration/TS-625-0.out
 ------------------------
 Symbolic Z-matrix:
 Charge =  0 Multiplicity = 1

 SCF Done:  E(RwB97XD) =  -5666.06236400     A.U. after   15 cycles
 SCF Done:  E(RwB97XD) =  -5666.06205266     A.U. after   12 cycles
 SCF Done:  E(RwB97XD) =  -5666.06177914     A.U. after   12 cycles
 SCF Done:  E(RwB97XD) =  -5666.06154365     A.U. after   12 cycles
 SCF Done:  E(RwB97XD) =  -5666.06134529     A.U. after   12 cycles
 SCF Done:  E(RwB97XD) =  -5666.06118263     A.U. after   12 cycles
 SCF Done:  E(RwB97XD) =  -5666.06105522     A.U. after   12 cycles
 SCF Done:  E(RwB97XD) =  -5666.06096362     A.U. after   11 cycles
 SCF Done:  E(RwB97XD) =  -5666.06091217     A.U. after   12 cycles
 SCF Done:  E(RwB97XD) =  -5666.06091450     A.U. after   12 cycles
 SCF Done:  E(RwB97XD) =  -5666.06101211     A.U. after   12 cycles
 SCF Done:  E(RwB97XD) =  -5666.06105211     A.U. after   12 cycles
 SCF Done:  E(RwB97XD) =  -5666.06107240     A.U. after   12 cycles
 SCF Done:  E(RwB97XD) =  -5666.06106392     A.U. after   11 cycles
 SCF Done:  E(RwB97XD) =  -5666.06108229     A.U. after   10 cycles
 SCF Done:  E(RwB97XD) =  -5666.06108313     A.U. after   11 cycles
 SCF Done:  E(RwB97XD) =  -5666.06108596     A.U. after   11 cycles
 SCF Done:  E(RwB97XD) =  -5666.06108608     A.U. after    9 cycles
 SCF Done:  E(RwB97XD) =  -5666.06108592     A.U. after    8 cycles
 Optimization completed.
    -- Stationary point found.
 Normal termination of Gaussian 16 at Sat Mar 27 14:40:07 2021.

 ---------------------------------------------------------------------
 #N Geom=AllCheck Guess=TCheck SCRF=Check GenChk RwB97XD/def2TZVP Freq
 ---------------------------------------------------------------------

 Structure from the checkpoint file:  "/beegfs/scratch/user/q/tla25/Gau-43617.chk"
 ------------------------
 0_iteration/TS-625-0.out
 ------------------------
 Charge =  0 Multiplicity = 1

                         Standard orientation:
 ---------------------------------------------------------------------
 Center     Atomic      Atomic             Coordinates (Angstroms)
 Number     Number       Type             X           Y           Z
 ---------------------------------------------------------------------
      1          6           0       -0.763337   -0.719864   -0.393461
      2          6           0       -0.362070   -1.979636   -0.932793
      3          8           0       -1.103488   -2.850366   -1.369767
      4          6           0        0.124735    0.217764    0.119109
      5          6           0       -0.546682   -1.006727    2.677613
      6          1           0       -1.449929   -0.904188    3.275039
      7          1           0       -0.747986   -1.716364    1.868238
      8          1           0        0.250614   -1.400111    3.302933
      9          7           0       -0.161350    0.273644    2.092795
     10          1           0       -0.901696    0.958398    2.173372
     11          1           0        0.672711    0.668740    2.509798
     12         35           0       -0.307681    2.111054   -0.134686
     13          6           0        1.599238   -0.035796   -0.009892
     14          6           0        2.319802    0.560840   -1.042354
     15          6           0        3.663010    0.275964   -1.219292
     16          6           0        4.310586   -0.603394   -0.363742
     17          6           0        3.600603   -1.204269    0.663000
     18          6           0        2.253692   -0.925815    0.836084
     19          1           0        1.827089    1.246211   -1.718307
     20          1           0        4.204430    0.745474   -2.030222
     21          1           0        5.362158   -0.820482   -0.499229
     22          1           0        4.090746   -1.897995    1.333396
     23          1           0        1.716380   -1.428632    1.626441
     24         35           0       -2.634991   -0.394216   -0.338975
     25          1           0        0.728924   -2.127366   -0.960387
 ---------------------------------------------------------------------

 SCF Done:  E(RwB97XD) =  -5666.06108592     A.U. after    1 cycles

 The electronic state is 1-A.
 Alpha  occ. eigenvalues -- -483.13917-483.12916 -62.68755 -62.67743 -56.47878
 Alpha  occ. eigenvalues --  -56.47519 -56.47502 -56.46854 -56.46513 -56.46499
 Alpha  occ. eigenvalues --  -19.22378 -14.49222 -10.41626 -10.36285 -10.32558
 Alpha  occ. eigenvalues --  -10.32402 -10.32154 -10.30483 -10.30291 -10.29961
 Alpha  occ. eigenvalues --  -10.29906 -10.29862  -8.82854  -8.81854  -6.65018
 Alpha  occ. eigenvalues --   -6.63987  -6.63880  -6.63823  -6.62890  -6.62849
 Alpha  occ. eigenvalues --   -2.75399  -2.75086  -2.75041  -2.74383  -2.74120
 Alpha  occ. eigenvalues --   -2.74120  -2.74063  -2.74032  -2.73144  -2.73143
 Alpha  occ. eigenvalues --   -1.12905  -1.04729  -0.99026  -0.95353  -0.89921
 Alpha  occ. eigenvalues --   -0.87285  -0.86187  -0.82723  -0.79547  -0.74612
 Alpha  occ. eigenvalues --   -0.71752  -0.70198  -0.65191  -0.63171  -0.60735
 Alpha  occ. eigenvalues --   -0.58432  -0.58027  -0.56438  -0.55892  -0.53545
 Alpha  occ. eigenvalues --   -0.53220  -0.51926  -0.49949  -0.48935  -0.48149
 Alpha  occ. eigenvalues --   -0.47750  -0.47248  -0.45367  -0.43939  -0.43346
 Alpha  occ. eigenvalues --   -0.40277  -0.38926  -0.37768  -0.36959  -0.35195
 Alpha  occ. eigenvalues --   -0.34419  -0.33065  -0.29449
 Alpha virt. eigenvalues --   -0.00155   0.03405   0.04228   0.06325   0.09325
 Alpha virt. eigenvalues --    0.10534   0.12463   0.13325   0.13987   0.14298
 Alpha virt. eigenvalues --    0.15776   0.16626   0.17721   0.17923   0.19953

 Mulliken charges:
               1
     1  C   -0.203024
     2  C    0.105959
     3  O   -0.460102
     4  C    0.283311
     5  C   -0.305727
     6  H    0.167825
     7  H    0.152716
     8  H    0.167898
     9  N   -0.362531
    10  H    0.287292
    11  H    0.302938
    12  Br  -0.079568
    13  C    0.045400
    14  C   -0.229787
    15  C   -0.137883
    16  C   -0.134993
    17  C   -0.148478
    18  C   -0.215740
    19  H    0.156499
    20  H    0.149557
    21  H    0.150436
    22  H    0.149214
    23  H    0.158574
    24  Br  -0.115650
    25  H    0.115864
 Sum of Mulliken charges =  -0.00000

 Dipole moment (field-independent basis, Debye):
    X=              6.3691    Y=              4.1471    Z=              8.0129  Tot=             11.0440
 Quadrupole moment (field-independent basis, Debye-Ang):
   XX=           -101.8780   YY=           -121.9555   ZZ=            -94.5100
   XY=            -11.4004   XZ=             -7.8454   YZ=            -11.2626

  Exact polarizability: 278.384  -4.907 240.187  -0.205  -1.246 219.896
 Approx polarizability: 214.891  -4.260 201.675  -0.126  -3.631 187.019

 ******    1 imaginary frequencies (negative Signs) ******

                      1                      2                      3
                      A                      A                      A
 Frequencies --   -317.5297                29.2901                58.6401
 Red. masses --      5.9889                 4.7622                 7.1738
 Frc consts  --      0.3558                 0.0024                 0.0145
 IR Inten    --    567.6789                 1.0256                 3.1243

                      4                      5                      6
                      A                      A                      A
 Frequencies --     72.1082                93.4458               122.3072
 Red. masses --      6.3123                 3.9313                 4.8082
 Frc consts  --      0.0193                 0.0202                 0.0424
 IR Inten    --      0.7610                 3.9147                 1.5891

                      7                      8                      9
                      A                      A                      A
 Frequencies --    129.1754               149.9776               169.9376
 Red. masses --      4.1102                 2.6715                 1.4873
 Frc consts  --      0.0404                 0.0354                 0.0253
 IR Inten    --      0.8841                 8.6709                 0.6549

                     10                     11                     12
                      A                      A                      A
 Frequencies --    188.9307               197.8878               236.4295
 Red. masses --      4.9204                 4.9633                 6.9917
 Frc consts  --      0.1035                 0.1145                 0.2303
 IR Inten    --      3.0939                12.5535                 1.2357

                     13                     14                     15
                      A                      A                      A
 Frequencies --    272.9198               276.5484               300.2125
 Red. masses --      6.0395                 2.9811                 4.6407
 Frc consts  --      0.2650                 0.1343                 0.2464
 IR Inten    --      5.9620                 5.2348                12.3218

                     16                     17                     18
                      A                      A                      A
 Frequencies --    332.0157               393.5244               418.4450
 Red. masses --      4.1324                 4.6381                 2.8689
 Frc consts  --      0.2684                 0.4232                 0.2960
 IR Inten    --     59.5041                 4.0095                 1.1283

                     19                     20                     21
                      A                      A                      A
 Frequencies --    501.3970               548.7111               593.0046
 Red. masses --      4.1651                 2.9078                 4.2899
 Frc consts  --      0.6169                 0.5158                 0.8888
 IR Inten    --     22.5270                51.2548               126.1087

                     22                     23                     24
                      A                      A                      A
 Frequencies --    611.5135               638.0728               664.9139
 Red. masses --      2.6310                 6.2870                 3.6642
 Frc consts  --      0.5797                 1.5081                 0.9545
 IR Inten    --     71.2009                11.1366                31.4799

                     25                     26                     27
                      A                      A                      A
 Frequencies --    722.3103               752.2457               821.7429
 Red. masses --      1.8003                 2.7731                 3.0550
 Frc consts  --      0.5534                 0.9246                 1.2155
 IR Inten    --     42.6339               295.6184                19.5332

                     28                     29                     30
                      A                      A                      A
 Frequencies --    873.9985               881.6035               966.8804
 Red. masses --      1.2650                 5.4753                 1.4341
 Frc consts  --      0.5693                 2.5073                 0.7899
 IR Inten    --      0.8441                55.3450                 1.0895

                     31                     32                     33
                      A                      A                      A
 Frequencies --   1015.6478              1017.9245              1026.4396
 Red. masses --      1.3932                 1.6470                 3.2950
 Frc consts  --      0.8467                 1.0055                 2.0454
 IR Inten    --      0.2994                 0.7814                 7.3018

                     34                     35                     36
                      A                      A                      A
 Frequencies --   1030.8528              1037.1664              1054.4649
 Red. masses --      1.2898                 1.3239                 1.8958
 Frc consts  --      0.8076                 0.8391                 1.2419
 IR Inten    --     47.3429                 1.1701               115.2966

                     37                     38                     39
                      A                      A                      A
 Frequencies --   1064.3579              1091.7217              1121.7776
 Red. masses --      2.1972                 1.6579                 1.5485
 Frc consts  --      1.4665                 1.1642                 1.1481
 IR Inten    --     11.6691                11.9772                 4.6661

                     40                     41                     42
                      A                      A                      A
 Frequencies --   1183.5547              1187.3413              1190.3417
 Red. masses --      1.8039                 1.1390                 2.5653
 Frc consts  --      1.4888                 0.9461                 2.1416
 IR Inten    --     19.9208                 1.7632                42.5596

                     43                     44                     45
                      A                      A                      A
 Frequencies --   1215.5788              1238.7276              1314.4206
 Red. masses --      1.1341                 4.3257                 1.4281
 Frc consts  --      0.9873                 3.9107                 1.4537
 IR Inten    --      2.8144               544.6435                 6.9955

                     46                     47                     48
                      A                      A                      A
 Frequencies --   1323.6891              1359.9604              1392.0858
 Red. masses --      3.3976                 1.4781                 2.1904
 Frc consts  --      3.5075                 1.6107                 2.5010
 IR Inten    --      6.4850                 7.1503               457.5721

                     49                     50                     51
                      A                      A                      A
 Frequencies --   1457.1046              1475.0867              1490.8833
 Red. masses --      1.3994                 1.6450                 2.2049
 Frc consts  --      1.7505                 2.1088                 2.8875
 IR Inten    --    159.3334               169.0774                42.0829

                     52                     53                     54
                      A                      A                      A
 Frequencies --   1497.1458              1505.1281              1542.7380
 Red. masses --      1.0533                 1.0339                 2.3190
 Frc consts  --      1.3911                 1.3800                 3.2518
 IR Inten    --     11.1688                12.8738                25.8586

                     55                     56                     57
                      A                      A                      A
 Frequencies --   1647.8502              1651.1059              1672.4552
 Red. masses --      1.0889                 5.6403                 5.9330
 Frc consts  --      1.7421                 9.0594                 9.7776
 IR Inten    --     65.6882                 5.1170                 3.3238

                     58                     59                     60
                      A                      A                      A
 Frequencies --   1686.5297              3000.9042              3040.7984
 Red. masses --      9.2135                 1.0834                 1.0464
 Frc consts  --     15.4405                 5.7484                 5.7008
 IR Inten    --   1016.1265                81.4807                23.8816

                     61                     62                     63
                      A                      A                      A
 Frequencies --   3132.5293              3177.8219              3203.6495
 Red. masses --      1.0879                 1.1068                 1.0866
 Frc consts  --      6.2898                 6.5853                 6.5707
 IR Inten    --     12.2877                12.9522                 0.0468

                     64                     65                     66
                      A                      A                      A
 Frequencies --   3212.9054              3222.4153              3230.0445
 Red. masses --      1.0901                 1.0939                 1.0968
 Frc consts  --      6.6298                 6.6926                 6.7423
 IR Inten    --      8.8796                17.5282                10.8655

                     67                     68                     69
                      A                      A                      A
 Frequencies --   3248.2049              3539.0452              3621.5500
 Red. masses --      1.0924                 1.0515                 1.0969
 Frc consts  --      6.7906                 7.7595                 8.4766
 IR Inten    --      4.3636                74.5356                61.0555

 - Thermochemistry -
 -------------------
 Temperature   298.150 Kelvin.  Pressure   1.00000 Atm.
 Atom     1 has atomic number  6 and mass  12.00000

 Molecular mass:   318.92074 amu.
 Principal axes and moments of inertia in atomic units:
                           1         2         3
     Eigenvalues --  3252.207695882.392307033.64680
           X            0.99962  -0.02159  -0.01706
           Y            0.02092   0.99904  -0.03844
           Z            0.01787   0.03807   0.99912
 This molecule is an asymmetric top.
 Rotational symmetry number  1.
 Warning -- assumption of classical behavior for rotation
           may cause significant error
 Rotational temperatures (Kelvin)      0.02663     0.01472     0.01231
 Rotational constants (GHZ):           0.55493     0.30680     0.25659
    1 imaginary frequencies ignored.
 Zero-point vibrational energy     503269.8 (Joules/Mol)
                                  120.28437 (Kcal/Mol)
 Warning -- explicit consideration of  21 degrees of freedom as
           vibrations may cause significant error
 Vibrational temperatures:     42.14    84.37   103.75   134.45   175.97
          (Kelvin)            185.85   215.78   244.50   271.83   284.72
                              340.17   392.67   397.89   431.94   477.70
                              566.19   602.05   721.40   789.47   853.20
                              879.83   918.04   956.66  1039.24  1082.31
                             1182.30  1257.49  1268.43  1391.13  1461.29
                             1464.57  1476.82  1483.17  1492.25  1517.14
                             1531.37  1570.74  1613.99  1702.87  1708.32
                             1712.64  1748.95  1782.25  1891.16  1904.49
                             1956.68  2002.90  2096.45  2122.32  2145.05
                             2154.06  2165.54  2219.66  2370.89  2375.57
                             2406.29  2426.54  4317.63  4375.03  4507.01
                             4572.18  4609.34  4622.65  4636.34  4647.31
                             4673.44  5091.90  5210.60

 Zero-point correction=                           0.191685 (Hartree/Particle)
 Thermal correction to Energy=                    0.206201
 Thermal correction to Enthalpy=                  0.207145
 Thermal correction to Gibbs Free Energy=         0.147953
 Sum of electronic and zero-point Energies=          -5665.869401
 Sum of electronic and thermal Energies=             -5665.854885
 Sum of electronic and thermal Enthalpies=           -5665.853940
 Sum of electronic and thermal Free Energies=        -5665.913133

                     E (Thermal)             CV                S
                      KCal/Mol        Cal/Mol-Kelvin    Cal/Mol-Kelvin
 Total                  129.393             51.590            124.581
 Electronic               0.000              0.000              0.000
 Translational            0.889              2.981             43.175
 Rotational               0.889              2.981             33.264
 Vibrational            127.616             45.628             48.142
 Vibration     1          0.593              1.984              5.877
 Vibration     2          0.596              1.974              4.502
 Vibration     3          0.598              1.967              4.095
 Vibration     4          0.602              1.954              3.587
 Vibration     5          0.610              1.931              3.064
 Vibration     6          0.612              1.924              2.958
 Vibration     7          0.618              1.903              2.673
 Vibration     8          0.625              1.879              2.436
 Vibration     9          0.633              1.855              2.238
 Vibration    10          0.637              1.843              2.153
 Vibration    11          0.655              1.785              1.830
 Vibration    12          0.676              1.723              1.578
 Vibration    13          0.678              1.717              1.555
 Vibration    14          0.693              1.673              1.416
 Vibration    15          0.714              1.612              1.250
 Vibration    16          0.761              1.484              0.987
 Vibration    17          0.781              1.430              0.897
 Vibration    18          0.857              1.247              0.655
 Vibration    19          0.904              1.143              0.547
 Vibration    20          0.951              1.047              0.462
 Vibration    21          0.971              1.007              0.430

 Optimization completed.
    -- Stationary point found.
 Normal termination of Gaussian 16 at Sat Mar 27 15:31:25 2021.
