 Gaussian 16, Revision A.03,
 Gaussian 16:  ES64L-G16RevA.03 25-Dec-2016

 ----------------------------------------------------------------------
 # wB97XD def2tzvp, opt=(ts, noeigen, calcfc, maxcycles=70, maxstep=8),
  freq=noraman, scrf=(iefpcm, solvent=water)
 ----------------------------------------------------------------------

 ------------------------
 1_iteration/TS-610-1.out
 ------------------------
 Symbolic Z-matrix:
 Charge =  0 Multiplicity = 1

 SCF Done:  E(RwB97XD) =  -3131.76709282     A.U. after   15 cycles
 SCF Done:  E(RwB97XD) =  -3131.76709598     A.U. after   10 cycles
 SCF Done:  E(RwB97XD) =  -3131.76709602     A.U. after    7 cycles
 Optimization completed.
    -- Stationary point found.
 Normal termination of Gaussian 16 at Sat Feb 20 09:34:17 2021.

 ---------------------------------------------------------------------
 #N Geom=AllCheck Guess=TCheck SCRF=Check GenChk RwB97XD/def2TZVP Freq
 ---------------------------------------------------------------------

 Structure from the checkpoint file:  "/beegfs/scratch/user/q/tla25/Gau-6571.chk"
 ------------------------
 1_iteration/TS-610-1.out
 ------------------------
 Charge =  0 Multiplicity = 1

                         Standard orientation:
 ---------------------------------------------------------------------
 Center     Atomic      Atomic             Coordinates (Angstroms)
 Number     Number       Type             X           Y           Z
 ---------------------------------------------------------------------
      1          6           0        1.297356    0.998155   -0.528223
      2          6           0        0.874270    2.360601   -0.599328
      3          8           0        1.601526    3.210941   -1.134330
      4          6           0        0.624985   -0.095801    0.015151
      5          6           0        0.977443    0.891553    2.628005
      6          1           0        1.566073    0.850851    3.543220
      7          1           0        1.294726    1.752941    2.040477
      8          1           0       -0.075788    0.993102    2.878358
      9          7           0        1.183289   -0.307067    1.819594
     10          1           0        2.174327   -0.458350    1.664994
     11          1           0        0.823725   -1.144485    2.266636
     12         35           0        1.389733   -1.821818   -0.598832
     13          6           0       -0.871029   -0.211848    0.028746
     14          6           0       -1.524570    0.053428   -1.176266
     15          6           0       -2.899788   -0.050556   -1.277028
     16          6           0       -3.653359   -0.426387   -0.173882
     17          6           0       -3.013937   -0.708031    1.021755
     18          6           0       -1.633422   -0.610841    1.120627
     19          1           0       -0.940107    0.348397   -2.037612
     20          1           0       -3.384066    0.165047   -2.220692
     21          1           0       -4.730373   -0.503308   -0.247957
     22          1           0       -3.587475   -1.007548    1.889264
     23          1           0       -1.180470   -0.846755    2.071285
     24          1           0        2.309123    0.832916   -0.876396
     25          6           0       -0.452468    2.845435   -0.042975
     26          1           0       -0.304998    3.852685    0.345059
     27          1           0       -1.180340    2.901169   -0.855367
     28          1           0       -0.873114    2.214667    0.735819
 ---------------------------------------------------------------------

 SCF Done:  E(RwB97XD) =  -3131.76709602     A.U. after    1 cycles

 The electronic state is 1-A.
 Alpha  occ. eigenvalues -- -483.13081 -62.67924 -56.47034 -56.46690 -56.46679
 Alpha  occ. eigenvalues --  -19.19944 -14.50072 -10.40804 -10.35320 -10.32283
 Alpha  occ. eigenvalues --  -10.31908 -10.30333 -10.29852 -10.29786 -10.29719
 Alpha  occ. eigenvalues --  -10.29642 -10.27016 -10.25555  -8.82020  -6.64145
 Alpha  occ. eigenvalues --   -6.63056  -6.63022  -2.74528  -2.74228  -2.74201
 Alpha  occ. eigenvalues --   -2.73320  -2.73320  -1.10649  -1.05515  -0.98357
 Alpha  occ. eigenvalues --   -0.93365  -0.86512  -0.86181  -0.84710  -0.80935
 Alpha  occ. eigenvalues --   -0.79663  -0.73893  -0.71518  -0.68085  -0.65433
 Alpha  occ. eigenvalues --   -0.62149  -0.59637  -0.58299  -0.56934  -0.55856
 Alpha  occ. eigenvalues --   -0.54603  -0.53749  -0.53047  -0.51648  -0.51273
 Alpha  occ. eigenvalues --   -0.49144  -0.48654  -0.48037  -0.46698  -0.46210
 Alpha  occ. eigenvalues --   -0.44919  -0.43477  -0.42948  -0.42326  -0.38326
 Alpha  occ. eigenvalues --   -0.37675  -0.34575  -0.33552  -0.31925  -0.28353
 Alpha virt. eigenvalues --    0.01240   0.03825   0.04737   0.07616   0.10326
 Alpha virt. eigenvalues --    0.12205   0.13251   0.13843   0.14619   0.16073
 Alpha virt. eigenvalues --    0.16731   0.17033   0.18062   0.18827   0.19209

 Mulliken charges:
               1
     1  C   -0.464113
     2  C    0.268195
     3  O   -0.526811
     4  C    0.214085
     5  C   -0.318989
     6  H    0.169774
     7  H    0.162284
     8  H    0.164443
     9  N   -0.294679
    10  H    0.287414
    11  H    0.292211
    12  Br  -0.133692
    13  C    0.150723
    14  C   -0.277359
    15  C   -0.120583
    16  C   -0.135843
    17  C   -0.162737
    18  C   -0.188574
    19  H    0.165016
    20  H    0.148105
    21  H    0.148770
    22  H    0.147745
    23  H    0.142100
    24  H    0.119820
    25  C   -0.370988
    26  H    0.137682
    27  H    0.143137
    28  H    0.132863
 Sum of Mulliken charges =  -0.00000

 Dipole moment (field-independent basis, Debye):
    X=             -3.7329    Y=             -5.5711    Z=              8.5580  Tot=             10.8725
 Quadrupole moment (field-independent basis, Debye-Ang):
   XX=            -90.8757   YY=           -120.5208   ZZ=            -83.0288
   XY=            -12.2192   XZ=             12.7446   YZ=              5.6043

  Exact polarizability: 243.578   2.082 233.944  -6.940 -26.450 223.208
 Approx polarizability: 192.889   2.556 184.445  -5.610 -21.058 190.477

 ******    1 imaginary frequencies (negative Signs) ******

                      1                      2                      3
                      A                      A                      A
 Frequencies --   -353.5470                39.5500                65.9958
 Red. masses --      5.4107                 3.3974                 6.6624
 Frc consts  --      0.3985                 0.0031                 0.0171
 IR Inten    --    740.4979                 1.2040                 4.7651

                      4                      5                      6
                      A                      A                      A
 Frequencies --     83.8019               106.0203               127.5158
 Red. masses --      4.6138                 4.2884                 3.2089
 Frc consts  --      0.0191                 0.0284                 0.0307
 IR Inten    --      4.9317                 2.0190                 4.1170

                      7                      8                      9
                      A                      A                      A
 Frequencies --    154.2653               171.7839               188.3275
 Red. masses --      3.1700                 2.8787                 1.3300
 Frc consts  --      0.0444                 0.0501                 0.0278
 IR Inten    --      2.6967                 1.7016                 2.2044

                     10                     11                     12
                      A                      A                      A
 Frequencies --    202.8996               241.6470               253.6996
 Red. masses --      1.2707                 4.1745                 3.2360
 Frc consts  --      0.0308                 0.1436                 0.1227
 IR Inten    --      0.2226                13.7002                13.5263

                     13                     14                     15
                      A                      A                      A
 Frequencies --    271.8968               296.5369               327.7049
 Red. masses --      3.5886                 3.9553                 3.1664
 Frc consts  --      0.1563                 0.2049                 0.2003
 IR Inten    --      1.6794                30.1031                 2.5157

                     16                     17                     18
                      A                      A                      A
 Frequencies --    356.1283               423.7909               512.6724
 Red. masses --      5.1224                 2.8710                 3.2704
 Frc consts  --      0.3828                 0.3038                 0.5064
 IR Inten    --      5.9445                 1.0743                11.2320

                     19                     20                     21
                      A                      A                      A
 Frequencies --    513.9871               560.9289               582.6276
 Red. masses --      3.5440                 3.3978                 5.1895
 Frc consts  --      0.5516                 0.6299                 1.0379
 IR Inten    --     57.4771                90.0158                49.7390

                     22                     23                     24
                      A                      A                      A
 Frequencies --    594.2963               639.0436               706.5519
 Red. masses --      2.0375                 6.3736                 1.8479
 Frc consts  --      0.4240                 1.5336                 0.5435
 IR Inten    --     25.0830                 6.7005                48.5937

                     25                     26                     27
                      A                      A                      A
 Frequencies --    721.2379               741.8121               762.2017
 Red. masses --      1.7835                 1.9142                 2.2710
 Frc consts  --      0.5466                 0.6206                 0.7773
 IR Inten    --     30.3086               240.2690               160.1131

                     28                     29                     30
                      A                      A                      A
 Frequencies --    794.8151               828.7398               871.9512
 Red. masses --      2.2521                 2.9180                 1.2545
 Frc consts  --      0.8382                 1.1808                 0.5620
 IR Inten    --    103.1784                41.7114                 1.0686

                     31                     32                     33
                      A                      A                      A
 Frequencies --    879.3729               962.5710              1002.0419
 Red. masses --      2.9989                 1.4533                 1.1268
 Frc consts  --      1.3664                 0.7934                 0.6666
 IR Inten    --     34.7940                 0.8856                51.4736

                     34                     35                     36
                      A                      A                      A
 Frequencies --   1016.5012              1025.2751              1029.3363
 Red. masses --      1.3644                 4.8532                 1.5838
 Frc consts  --      0.8307                 3.0058                 0.9887
 IR Inten    --      1.3805                 5.5287                72.9402

                     37                     38                     39
                      A                      A                      A
 Frequencies --   1035.7215              1046.1324              1066.0866
 Red. masses --      1.3242                 1.7780                 2.4303
 Frc consts  --      0.8369                 1.1464                 1.6274
 IR Inten    --      2.5546                31.1862                18.7008

                     40                     41                     42
                      A                      A                      A
 Frequencies --   1069.8158              1080.4858              1128.3975
 Red. masses --      2.5646                 1.4374                 1.5851
 Frc consts  --      1.7294                 0.9887                 1.1891
 IR Inten    --      3.8649               120.7957                14.6146

                     43                     44                     45
                      A                      A                      A
 Frequencies --   1162.1470              1187.6360              1223.1654
 Red. masses --      2.5674                 1.1282                 1.1324
 Frc consts  --      2.0430                 0.9376                 0.9982
 IR Inten    --    123.6686                 1.3307                 3.5730

                     46                     47                     48
                      A                      A                      A
 Frequencies --   1244.5916              1312.0832              1316.0737
 Red. masses --      1.3620                 2.2398                 3.3695
 Frc consts  --      1.2430                 2.2719                 3.4386
 IR Inten    --     32.2458               266.0340                49.2295

                     49                     50                     51
                      A                      A                      A
 Frequencies --   1338.4742              1361.5748              1365.3829
 Red. masses --      1.5839                 2.0077                 1.4184
 Frc consts  --      1.6718                 2.1930                 1.5579
 IR Inten    --     46.4645                93.3742                10.8253

                     52                     53                     54
                      A                      A                      A
 Frequencies --   1393.5565              1439.5129              1462.8136
 Red. masses --      1.3376                 1.9081                 1.2265
 Frc consts  --      1.5305                 2.3296                 1.5463
 IR Inten    --     84.1421               688.7209               106.7123

                     55                     56                     57
                      A                      A                      A
 Frequencies --   1472.8452              1484.0702              1492.0371
 Red. masses --      1.3543                 1.1814                 2.1890
 Frc consts  --      1.7309                 1.5330                 2.8711
 IR Inten    --    121.5655                83.0787               116.1876

                     58                     59                     60
                      A                      A                      A
 Frequencies --   1496.0744              1508.1397              1545.0771
 Red. masses --      1.0426                 1.0437                 2.3290
 Frc consts  --      1.3749                 1.3986                 3.2759
 IR Inten    --     23.0016                11.9635                35.0260

                     61                     62                     63
                      A                      A                      A
 Frequencies --   1622.7790              1648.1540              1656.6878
 Red. masses --      7.6698                 1.7217                 2.0317
 Frc consts  --     11.9001                 2.7555                 3.2855
 IR Inten    --    966.7842                37.8970                28.1517

                     64                     65                     66
                      A                      A                      A
 Frequencies --   1674.6948              3066.6809              3076.1249
 Red. masses --      5.5147                 1.0394                 1.0330
 Frc consts  --      9.1127                 5.7592                 5.7589
 IR Inten    --      1.2981                13.4128                28.4653

                     67                     68                     69
                      A                      A                      A
 Frequencies --   3138.5372              3154.2252              3176.7680
 Red. masses --      1.0990                 1.1045                 1.1044
 Frc consts  --      6.3781                 6.4746                 6.5668
 IR Inten    --     18.8950                 5.5353                 9.6181

                     70                     71                     72
                      A                      A                      A
 Frequencies --   3177.1669              3192.8453              3201.8395
 Red. masses --      1.1020                 1.0877                 1.0864
 Frc consts  --      6.5542                 6.5329                 6.5620
 IR Inten    --     31.3388                 6.6917                 0.3158

                     73                     74                     75
                      A                      A                      A
 Frequencies --   3210.2747              3219.5988              3227.0630
 Red. masses --      1.0897                 1.0935                 1.0978
 Frc consts  --      6.6167                 6.6783                 6.7360
 IR Inten    --      6.0761                16.8181                18.0324

                     76                     77                     78
                      A                      A                      A
 Frequencies --   3250.2793              3510.8375              3588.6618
 Red. masses --      1.0918                 1.0517                 1.0960
 Frc consts  --      6.7955                 7.6376                 8.3159
 IR Inten    --     17.3127                48.3938                48.0095

 - Thermochemistry -
 -------------------
 Temperature   298.150 Kelvin.  Pressure   1.00000 Atm.
 Atom     1 has atomic number  6 and mass  12.00000

 Molecular mass:   255.02588 amu.
 Principal axes and moments of inertia in atomic units:
                           1         2         3
     Eigenvalues --  3418.789663826.704875099.32513
           X            0.97599   0.21407   0.04017
           Y           -0.21357   0.97679  -0.01628
           Z           -0.04273   0.00731   0.99906
 This molecule is an asymmetric top.
 Rotational symmetry number  1.
 Warning -- assumption of classical behavior for rotation
           may cause significant error
 Rotational temperatures (Kelvin)      0.02533     0.02263     0.01699
 Rotational constants (GHZ):           0.52789     0.47162     0.35392
    1 imaginary frequencies ignored.
 Zero-point vibrational energy     604608.5 (Joules/Mol)
                                  144.50489 (Kcal/Mol)
 Warning -- explicit consideration of  21 degrees of freedom as
           vibrations may cause significant error
 Vibrational temperatures:     56.90    94.95   120.57   152.54   183.47
          (Kelvin)            221.95   247.16   270.96   291.93   347.68
                              365.02   391.20   426.65   471.49   512.39
                              609.74   737.62   739.51   807.05   838.27
                              855.06   919.44  1016.57  1037.70  1067.30
                             1096.64  1143.56  1192.37  1254.54  1265.22
                             1384.93  1441.71  1462.52  1475.14  1480.99
                             1490.17  1505.15  1533.86  1539.23  1554.58
                             1623.51  1672.07  1708.74  1759.86  1790.69
                             1887.80  1893.54  1925.77  1959.00  1964.48
                             2005.02  2071.14  2104.66  2119.10  2135.25
                             2146.71  2152.52  2169.88  2223.02  2334.82
                             2371.33  2383.60  2409.51  4412.27  4425.86
                             4515.66  4538.23  4570.66  4571.23  4593.79
                             4606.73  4618.87  4632.28  4643.02  4676.43
                             5051.31  5163.28

 Zero-point correction=                           0.230283 (Hartree/Particle)
 Thermal correction to Energy=                    0.244491
 Thermal correction to Enthalpy=                  0.245435
 Thermal correction to Gibbs Free Energy=         0.188357
 Sum of electronic and zero-point Energies=          -3131.536813
 Sum of electronic and thermal Energies=             -3131.522605
 Sum of electronic and thermal Enthalpies=           -3131.521661
 Sum of electronic and thermal Free Energies=        -3131.578739

                     E (Thermal)             CV                S
                      KCal/Mol        Cal/Mol-Kelvin    Cal/Mol-Kelvin
 Total                  153.420             52.843            120.131
 Electronic               0.000              0.000              0.000
 Translational            0.889              2.981             42.509
 Rotational               0.889              2.981             32.567
 Vibrational            151.643             46.882             45.055
 Vibration     1          0.594              1.981              5.281
 Vibration     2          0.597              1.970              4.269
 Vibration     3          0.601              1.960              3.800
 Vibration     4          0.605              1.944              3.341
 Vibration     5          0.611              1.926              2.983
 Vibration     6          0.620              1.898              2.619
 Vibration     7          0.626              1.877              2.416
 Vibration     8          0.633              1.856              2.244
 Vibration     9          0.639              1.836              2.107
 Vibration    10          0.658              1.777              1.791
 Vibration    11          0.665              1.757              1.705
 Vibration    12          0.675              1.725              1.584
 Vibration    13          0.690              1.680              1.436
 Vibration    14          0.711              1.620              1.271
 Vibration    15          0.732              1.563              1.139
 Vibration    16          0.786              1.418              0.879
 Vibration    17          0.868              1.222              0.627
 Vibration    18          0.869              1.219              0.624
 Vibration    19          0.917              1.116              0.522
 Vibration    20          0.939              1.069              0.481
 Vibration    21          0.952              1.044              0.460

 Optimization completed.
    -- Stationary point found.
 Normal termination of Gaussian 16 at Sat Feb 20 10:25:18 2021.
