 Gaussian 16, Revision A.03,
 Gaussian 16:  ES64L-G16RevA.03 25-Dec-2016

 ----------------------------------------------------------------------
 # wB97XD def2tzvp, opt=(ts, noeigen, calcfc, maxcycles=70, maxstep=3),
  freq=noraman, scrf=(iefpcm, solvent=water)
 ----------------------------------------------------------------------

 ------------------------
 0_iteration/TS-663-0.out
 ------------------------
 Symbolic Z-matrix:
 Charge =  0 Multiplicity = 1

 SCF Done:  E(RwB97XD) =  -3187.14330837     A.U. after   14 cycles
 SCF Done:  E(RwB97XD) =  -3187.14330945     A.U. after   10 cycles
 SCF Done:  E(RwB97XD) =  -3187.14331365     A.U. after    9 cycles
 SCF Done:  E(RwB97XD) =  -3187.14333024     A.U. after   10 cycles
 SCF Done:  E(RwB97XD) =  -3187.14339475     A.U. after   10 cycles
 SCF Done:  E(RwB97XD) =  -3187.14350298     A.U. after   11 cycles
 SCF Done:  E(RwB97XD) =  -3187.14362092     A.U. after   11 cycles
 SCF Done:  E(RwB97XD) =  -3187.14373432     A.U. after   11 cycles
 SCF Done:  E(RwB97XD) =  -3187.14384110     A.U. after   11 cycles
 SCF Done:  E(RwB97XD) =  -3187.14391956     A.U. after   11 cycles
 SCF Done:  E(RwB97XD) =  -3187.14405116     A.U. after   10 cycles
 SCF Done:  E(RwB97XD) =  -3187.14405558     A.U. after   10 cycles
 SCF Done:  E(RwB97XD) =  -3187.14404886     A.U. after   10 cycles
 SCF Done:  E(RwB97XD) =  -3187.14405088     A.U. after   10 cycles
 SCF Done:  E(RwB97XD) =  -3187.14405458     A.U. after    9 cycles
 SCF Done:  E(RwB97XD) =  -3187.14405656     A.U. after    9 cycles
 SCF Done:  E(RwB97XD) =  -3187.14404971     A.U. after   10 cycles
 SCF Done:  E(RwB97XD) =  -3187.14405615     A.U. after   10 cycles
 SCF Done:  E(RwB97XD) =  -3187.14405660     A.U. after    8 cycles
 Optimization completed.
    -- Stationary point found.
 Normal termination of Gaussian 16 at Thu Mar 25 14:26:01 2021.

 ---------------------------------------------------------------------
 #N Geom=AllCheck Guess=TCheck SCRF=Check GenChk RwB97XD/def2TZVP Freq
 ---------------------------------------------------------------------

 Structure from the checkpoint file:  "/beegfs/scratch/user/q/tla25/Gau-110701.chk"
 ------------------------
 0_iteration/TS-663-0.out
 ------------------------
 Charge =  0 Multiplicity = 1

                         Standard orientation:
 ---------------------------------------------------------------------
 Center     Atomic      Atomic             Coordinates (Angstroms)
 Number     Number       Type             X           Y           Z
 ---------------------------------------------------------------------
      1          6           0       -0.929516   -0.923120    0.607567
      2          6           0        0.508139   -1.044272    0.593631
      3          8           0        1.081304   -2.097530    0.884209
      4          6           0       -1.554706    0.141751   -0.008338
      5          6           0       -2.449867    2.772576    0.631762
      6          1           0       -2.739963    3.480164    1.408036
      7          1           0       -1.553122    3.137139    0.133339
      8          1           0       -3.254351    2.688311   -0.095688
      9          7           0       -2.177306    1.449149    1.194484
     10          1           0       -1.435050    1.480892    1.884943
     11          1           0       -2.997006    1.059460    1.647613
     12         35           0       -3.250885   -0.186399   -0.940066
     13          1           0       -0.979381    0.818546   -0.625523
     14          6           0       -1.702025   -2.044101    1.249538
     15          1           0       -1.158712   -2.439108    2.108155
     16          1           0       -2.678567   -1.705075    1.599464
     17          1           0       -1.875510   -2.881813    0.565545
     18          7           0        1.253094    0.080057    0.238480
     19          6           0        2.627197    0.149782   -0.000668
     20          6           0        3.381986   -0.936081   -0.447994
     21          6           0        4.735063   -0.778208   -0.706816
     22          6           0        5.360727    0.448760   -0.538573
     23          6           0        4.608930    1.531388   -0.104085
     24          6           0        3.259226    1.384634    0.166277
     25          1           0        0.812162    0.973652    0.359439
     26          1           0        2.908254   -1.894927   -0.586665
     27          1           0        5.305327   -1.632009   -1.052198
     28          1           0        6.417153    0.560529   -0.745074
     29          1           0        5.074822    2.499548    0.031633
     30          1           0        2.683042    2.235804    0.511075
 ---------------------------------------------------------------------

 SCF Done:  E(RwB97XD) =  -3187.14405660     A.U. after    1 cycles

 The electronic state is 1-A.
 Alpha  occ. eigenvalues -- -483.12823 -62.67685 -56.46787 -56.46453 -56.46440
 Alpha  occ. eigenvalues --  -19.20077 -14.49616 -14.45729 -10.38533 -10.37949
 Alpha  occ. eigenvalues --  -10.33482 -10.32319 -10.28921 -10.28796 -10.28650
 Alpha  occ. eigenvalues --  -10.28185 -10.28124 -10.26837 -10.26225  -8.81801
 Alpha  occ. eigenvalues --   -6.63910  -6.62851  -6.62807  -2.74300  -2.74006
 Alpha  occ. eigenvalues --   -2.73970  -2.73114  -2.73114  -1.12905  -1.04945
 Alpha  occ. eigenvalues --   -1.03345  -0.95348  -0.92777  -0.86515  -0.84982
 Alpha  occ. eigenvalues --   -0.83752  -0.79826  -0.77828  -0.73262  -0.71192
 Alpha  occ. eigenvalues --   -0.68374  -0.64188  -0.64072  -0.62735  -0.60278
 Alpha  occ. eigenvalues --   -0.57622  -0.56130  -0.55297  -0.53834  -0.52540
 Alpha  occ. eigenvalues --   -0.51575  -0.51129  -0.50362  -0.49168  -0.48741
 Alpha  occ. eigenvalues --   -0.48143  -0.45937  -0.45667  -0.45079  -0.44766
 Alpha  occ. eigenvalues --   -0.44227  -0.42765  -0.38951  -0.37582  -0.37211
 Alpha  occ. eigenvalues --   -0.34242  -0.33076  -0.29995  -0.26403
 Alpha virt. eigenvalues --    0.04497   0.05058   0.05543   0.08241   0.09383
 Alpha virt. eigenvalues --    0.12303   0.13623   0.14294   0.14403   0.16081
 Alpha virt. eigenvalues --    0.16512   0.16926   0.17676   0.18282   0.18593

 Mulliken charges:
               1
     1  C   -0.116143
     2  C    0.368797
     3  O   -0.529631
     4  C   -0.205332
     5  C   -0.278259
     6  H    0.160522
     7  H    0.155073
     8  H    0.154024
     9  N   -0.271882
    10  H    0.282197
    11  H    0.289875
    12  Br  -0.130440
    13  H    0.191710
    14  C   -0.393918
    15  H    0.126643
    16  H    0.125895
    17  H    0.120002
    18  N   -0.308233
    19  C    0.301806
    20  C   -0.301441
    21  C   -0.097995
    22  C   -0.198980
    23  C   -0.100880
    24  C   -0.305931
    25  H    0.254415
    26  H    0.145673
    27  H    0.140923
    28  H    0.139765
    29  H    0.141949
    30  H    0.139794
 Sum of Mulliken charges =  -0.00000

 Dipole moment (field-independent basis, Debye):
    X=             -5.5332    Y=             10.4892    Z=              2.3753  Tot=             12.0947
 Quadrupole moment (field-independent basis, Debye-Ang):
   XX=            -98.9570   YY=            -98.8715   ZZ=           -102.5786
   XY=             -4.4248   XZ=            -13.0322   YZ=             11.6416

  Exact polarizability: 329.041 -15.772 256.852  -1.750   6.874 172.059
 Approx polarizability: 234.425 -10.413 211.218  -1.169   6.050 150.045

 ******    1 imaginary frequencies (negative Signs) ******

                      1                      2                      3
                      A                      A                      A
 Frequencies --   -392.8159                30.5999                34.1519
 Red. masses --      6.7229                 4.2309                 5.8806
 Frc consts  --      0.6112                 0.0023                 0.0040
 IR Inten    --   1043.7677                 0.3206                 0.5306

                      4                      5                      6
                      A                      A                      A
 Frequencies --     59.2928                88.1315                92.0510
 Red. masses --      3.8594                 4.7394                 1.2844
 Frc consts  --      0.0080                 0.0217                 0.0064
 IR Inten    --      3.1676                 7.4866                 3.0289

                      7                      8                      9
                      A                      A                      A
 Frequencies --    104.6527               114.7246               141.5391
 Red. masses --      1.9648                 3.4175                 4.0871
 Frc consts  --      0.0127                 0.0265                 0.0482
 IR Inten    --      4.1089                 2.9044                 6.4285

                     10                     11                     12
                      A                      A                      A
 Frequencies --    152.6042               176.0023               183.2739
 Red. masses --      1.7255                 2.2434                 4.0292
 Frc consts  --      0.0237                 0.0409                 0.0797
 IR Inten    --      2.8583                 6.9776                13.3841

                     13                     14                     15
                      A                      A                      A
 Frequencies --    248.0915               257.7442               290.5570
 Red. masses --      3.6985                 4.2735                 2.8884
 Frc consts  --      0.1341                 0.1673                 0.1437
 IR Inten    --      1.5714                 9.6792                 8.8925

                     16                     17                     18
                      A                      A                      A
 Frequencies --    337.5547               361.2084               395.1699
 Red. masses --      4.0012                 6.0169                 5.9381
 Frc consts  --      0.2686                 0.4625                 0.5463
 IR Inten    --      9.7908                 6.5142                13.6215

                     19                     20                     21
                      A                      A                      A
 Frequencies --    424.9551               449.9235               470.7854
 Red. masses --      2.9858                 3.1766                 1.3911
 Frc consts  --      0.3177                 0.3789                 0.1817
 IR Inten    --      0.8440               172.4196               197.8017

                     22                     23                     24
                      A                      A                      A
 Frequencies --    526.4103               607.4740               630.4145
 Red. masses --      2.8649                 5.0969                 2.5429
 Frc consts  --      0.4677                 1.1082                 0.5954
 IR Inten    --     11.9751                16.4690                42.8109

                     25                     26                     27
                      A                      A                      A
 Frequencies --    637.8362               710.5239               718.7792
 Red. masses --      4.4473                 3.6513                 1.8840
 Frc consts  --      1.0660                 1.0861                 0.5735
 IR Inten    --     28.6997                55.9419                50.4885

                     28                     29                     30
                      A                      A                      A
 Frequencies --    756.6247               775.6635               782.0774
 Red. masses --      3.6586                 2.3786                 1.9838
 Frc consts  --      1.2340                 0.8432                 0.7149
 IR Inten    --    145.6425               180.4232                63.6361

                     31                     32                     33
                      A                      A                      A
 Frequencies --    857.6416               862.1702               903.9301
 Red. masses --      1.8094                 2.2359                 3.7340
 Frc consts  --      0.7842                 0.9793                 1.7976
 IR Inten    --     10.8670                 7.6082                68.3252

                     34                     35                     36
                      A                      A                      A
 Frequencies --    933.9828              1000.4992              1003.6845
 Red. masses --      1.6570                 1.3642                 1.7214
 Frc consts  --      0.8516                 0.8045                 1.0217
 IR Inten    --      7.4112                 6.4517               110.9107

                     37                     38                     39
                      A                      A                      A
 Frequencies --   1014.2997              1014.5904              1020.9922
 Red. masses --      1.0914                 1.2687                 5.5725
 Frc consts  --      0.6616                 0.7695                 3.4225
 IR Inten    --     17.8401                 5.3361                 3.0043

                     40                     41                     42
                      A                      A                      A
 Frequencies --   1046.6864              1059.5274              1062.4789
 Red. masses --      1.4246                 1.4538                 2.1309
 Frc consts  --      0.9196                 0.9616                 1.4173
 IR Inten    --     24.0894                19.7760                 1.1708

                     43                     44                     45
                      A                      A                      A
 Frequencies --   1073.5549              1107.7957              1122.9484
 Red. masses --      2.5763                 2.0622                 1.6138
 Frc consts  --      1.7494                 1.4911                 1.1990
 IR Inten    --    210.9482               322.5566                70.2511

                     46                     47                     48
                      A                      A                      A
 Frequencies --   1146.7440              1181.7414              1209.8272
 Red. masses --      1.1604                 1.1191                 1.1266
 Frc consts  --      0.8990                 0.9208                 0.9715
 IR Inten    --     66.2177                 3.2046                19.4532

                     49                     50                     51
                      A                      A                      A
 Frequencies --   1240.7074              1252.6592              1276.1691
 Red. masses --      1.3793                 1.5279                 2.3817
 Frc consts  --      1.2510                 1.4126                 2.2854
 IR Inten    --     69.9637               280.1536               317.9226

                     52                     53                     54
                      A                      A                      A
 Frequencies --   1340.0945              1342.5636              1354.7708
 Red. masses --      3.7830                 1.3257                 2.3609
 Frc consts  --      4.0027                 1.4079                 2.5530
 IR Inten    --    358.0016                 1.1618               345.2204

                     55                     56                     57
                      A                      A                      A
 Frequencies --   1367.6409              1414.9699              1454.8075
 Red. masses --      1.8083                 1.3060                 1.8437
 Frc consts  --      1.9928                 1.5406                 2.2991
 IR Inten    --    280.7595                17.9948               259.0605

                     58                     59                     60
                      A                      A                      A
 Frequencies --   1465.1836              1469.1883              1475.5790
 Red. masses --      1.2331                 1.4749                 1.4963
 Frc consts  --      1.5597                 1.8757                 1.9195
 IR Inten    --     85.5328               225.5313               130.1235

                     61                     62                     63
                      A                      A                      A
 Frequencies --   1491.9042              1504.8395              1508.1129
 Red. masses --      1.0406                 1.0930                 1.3244
 Frc consts  --      1.3646                 1.4584                 1.7748
 IR Inten    --     15.5483               149.2654               278.8644

                     64                     65                     66
                      A                      A                      A
 Frequencies --   1546.6128              1553.5351              1650.4996
 Red. masses --      2.4609                 2.0232                 1.1478
 Frc consts  --      3.4682                 2.8769                 1.8423
 IR Inten    --    236.1320               289.2140                47.1148

                     67                     68                     69
                      A                      A                      A
 Frequencies --   1656.3510              1666.3403              1678.1977
 Red. masses --      7.7019                 3.4612                 6.1130
 Frc consts  --     12.4496                 5.6624                10.1436
 IR Inten    --    402.9374               221.0897               533.9798

                     70                     71                     72
                      A                      A                      A
 Frequencies --   3026.0876              3073.5389              3092.2890
 Red. masses --      1.0470                 1.0333                 1.0897
 Frc consts  --      5.6488                 5.7514                 6.1393
 IR Inten    --     86.6033                37.8615                40.2779

                     73                     74                     75
                      A                      A                      A
 Frequencies --   3131.0409              3153.5244              3172.9800
 Red. masses --      1.1010                 1.1056                 1.1056
 Frc consts  --      6.3596                 6.4780                 6.5582
 IR Inten    --     29.7134                11.9332                 9.4512

                     76                     77                     78
                      A                      A                      A
 Frequencies --   3185.3274              3195.2703              3205.0642
 Red. masses --      1.0880                 1.0881                 1.0930
 Frc consts  --      6.5043                 6.5453                 6.6151
 IR Inten    --     15.9245                 2.4583                31.6564

                     79                     80                     81
                      A                      A                      A
 Frequencies --   3206.7548              3220.2619              3258.1268
 Red. masses --      1.0917                 1.0978                 1.0926
 Frc consts  --      6.6140                 6.7076                 6.8338
 IR Inten    --      2.3037                24.4071                 1.6400

                     82                     83                     84
                      A                      A                      A
 Frequencies --   3516.5798              3598.2761              3674.2525
 Red. masses --      1.0511                 1.0966                 1.0761
 Frc consts  --      7.6584                 8.3654                 8.5593
 IR Inten    --     31.1439                50.3039                19.7514

 - Thermochemistry -
 -------------------
 Temperature   298.150 Kelvin.  Pressure   1.00000 Atm.
 Atom     1 has atomic number  6 and mass  12.00000

 Molecular mass:   270.03677 amu.
 Principal axes and moments of inertia in atomic units:
                           1         2         3
     Eigenvalues --  2047.282599373.89028**********
           X            0.99971  -0.00539  -0.02353
           Y            0.00566   0.99992   0.01144
           Z            0.02347  -0.01157   0.99966
 This molecule is an asymmetric top.
 Rotational symmetry number  1.
 Warning -- assumption of classical behavior for rotation
           may cause significant error
 Rotational temperatures (Kelvin)      0.04231     0.00924     0.00845
 Rotational constants (GHZ):           0.88153     0.19253     0.17606
    1 imaginary frequencies ignored.
 Zero-point vibrational energy     649584.3 (Joules/Mol)
                                  155.25437 (Kcal/Mol)
 Warning -- explicit consideration of  22 degrees of freedom as
           vibrations may cause significant error
 Vibrational temperatures:     44.03    49.14    85.31   126.80   132.44
          (Kelvin)            150.57   165.06   203.64   219.56   253.23
                              263.69   356.95   370.84   418.05   485.67
                              519.70   568.56   611.42   647.34   677.36
                              757.39   874.02   907.03   917.70  1022.29
                             1034.16  1088.61  1116.01  1125.24  1233.95
                             1240.47  1300.55  1343.79  1439.50  1444.08
                             1459.35  1459.77  1468.98  1505.95  1524.42
                             1528.67  1544.61  1593.87  1615.67  1649.91
                             1700.26  1740.67  1785.10  1802.30  1836.12
                             1928.10  1931.65  1949.21  1967.73  2035.83
                             2093.14  2108.07  2113.83  2123.03  2146.52
                             2165.13  2169.84  2225.23  2235.19  2374.70
                             2383.12  2397.49  2414.55  4353.87  4422.14
                             4449.11  4504.87  4537.22  4565.21  4582.98
                             4597.28  4611.37  4613.80  4633.24  4687.72
                             5059.57  5177.12  5286.43

 Zero-point correction=                           0.247414 (Hartree/Particle)
 Thermal correction to Energy=                    0.263343
 Thermal correction to Enthalpy=                  0.264287
 Thermal correction to Gibbs Free Energy=         0.201686
 Sum of electronic and zero-point Energies=          -3186.896643
 Sum of electronic and thermal Energies=             -3186.880714
 Sum of electronic and thermal Enthalpies=           -3186.879770
 Sum of electronic and thermal Free Energies=        -3186.942370

                     E (Thermal)             CV                S
                      KCal/Mol        Cal/Mol-Kelvin    Cal/Mol-Kelvin
 Total                  165.250             57.318            131.754
 Electronic               0.000              0.000              0.000
 Translational            0.889              2.981             42.679
 Rotational               0.889              2.981             33.642
 Vibrational            163.472             51.356             55.433
 Vibration     1          0.594              1.984              5.790
 Vibration     2          0.594              1.983              5.572
 Vibration     3          0.597              1.974              4.481
 Vibration     4          0.601              1.958              3.701
 Vibration     5          0.602              1.955              3.616
 Vibration     6          0.605              1.946              3.366
 Vibration     7          0.608              1.937              3.187
 Vibration     8          0.615              1.912              2.783
 Vibration     9          0.619              1.900              2.640
 Vibration    10          0.628              1.872              2.370
 Vibration    11          0.631              1.863              2.295
 Vibration    12          0.662              1.766              1.744
 Vibration    13          0.667              1.750              1.677
 Vibration    14          0.687              1.691              1.471
 Vibration    15          0.718              1.600              1.224
 Vibration    16          0.735              1.552              1.117
 Vibration    17          0.762              1.480              0.981
 Vibration    18          0.787              1.416              0.875
 Vibration    19          0.809              1.361              0.796
 Vibration    20          0.828              1.315              0.735
 Vibration    21          0.881              1.192              0.595
 Vibration    22          0.966              1.016              0.437

 Optimization completed.
    -- Stationary point found.
 Normal termination of Gaussian 16 at Thu Mar 25 15:18:41 2021.
