 Gaussian 16, Revision A.03,
 Gaussian 16:  ES64L-G16RevA.03 25-Dec-2016

 ----------------------------------------------------------------------
 # wB97XD def2tzvp, opt=(ts, noeigen, calcfc, maxcycles=70, maxstep=5),
  freq=noraman, scrf=(iefpcm, solvent=water)
 ----------------------------------------------------------------------

 ------------------------
 2_iteration/TS-636-2.out
 ------------------------
 Symbolic Z-matrix:
 Charge =  0 Multiplicity = 1

 SCF Done:  E(RwB97XD) =  -3666.61103722     A.U. after   15 cycles
 SCF Done:  E(RwB97XD) =  -3666.61111247     A.U. after   12 cycles
 SCF Done:  E(RwB97XD) =  -3666.61112070     A.U. after   10 cycles
 SCF Done:  E(RwB97XD) =  -3666.61112105     A.U. after    8 cycles
 SCF Done:  E(RwB97XD) =  -3666.61112109     A.U. after    7 cycles
 Optimization completed.
    -- Stationary point found.
 Normal termination of Gaussian 16 at Sat Feb 20 23:29:32 2021.

 ---------------------------------------------------------------------
 #N Geom=AllCheck Guess=TCheck SCRF=Check GenChk RwB97XD/def2TZVP Freq
 ---------------------------------------------------------------------

 Structure from the checkpoint file:  "/beegfs/scratch/user/q/tla25/Gau-96057.chk"
 ------------------------
 2_iteration/TS-636-2.out
 ------------------------
 Charge =  0 Multiplicity = 1

                         Standard orientation:
 ---------------------------------------------------------------------
 Center     Atomic      Atomic             Coordinates (Angstroms)
 Number     Number       Type             X           Y           Z
 ---------------------------------------------------------------------
      1          6           0        0.990415    0.843532   -0.287817
      2          6           0        0.321742    2.124738   -0.376747
      3          8           0        0.815289    3.132380   -0.849207
      4          6           0        0.433025   -0.358048    0.131363
      5          6           0        0.626220    0.582093    2.791798
      6          1           0       -0.443301    0.693390    2.950481
      7          1           0        1.136172    0.526126    3.752628
      8          1           0        0.992455    1.450174    2.244549
      9          7           0        0.889511   -0.607666    1.988387
     10          1           0        1.887757   -0.772333    1.916993
     11          1           0        0.479325   -1.448676    2.379749
     12         35           0        1.347315   -2.001122   -0.481012
     13          6           0       -1.047435   -0.591319    0.015635
     14          6           0       -1.597974   -0.472702   -1.261667
     15          6           0       -2.945307   -0.691525   -1.475641
     16          6           0       -3.772455   -1.041343   -0.416070
     17          6           0       -3.231871   -1.175385    0.850664
     18          6           0       -1.877158   -0.957752    1.065573
     19          1           0       -0.957700   -0.198363   -2.090073
     20          1           0       -3.351680   -0.587569   -2.473496
     21          1           0       -4.828698   -1.211207   -0.580095
     22          1           0       -3.862355   -1.450625    1.686225
     23          1           0       -1.504402   -1.070560    2.071715
     24         17           0        2.720907    0.943182   -0.531834
     25          8           0       -0.921935    2.123182    0.134643
     26          6           0       -1.679464    3.315197   -0.033699
     27          1           0       -2.652138    3.107636    0.404595
     28          1           0       -1.208098    4.152180    0.481076
     29          1           0       -1.790628    3.559260   -1.090297
 ---------------------------------------------------------------------

 SCF Done:  E(RwB97XD) =  -3666.61112109     A.U. after    1 cycles

 The electronic state is 1-A.
 Alpha  occ. eigenvalues -- -483.13403-101.69165 -62.68239 -56.47361 -56.47004
 Alpha  occ. eigenvalues --  -56.46986 -19.28875 -19.22138 -14.49745 -10.41297
 Alpha  occ. eigenvalues --  -10.41118 -10.32987 -10.32285 -10.32151 -10.32011
 Alpha  occ. eigenvalues --  -10.30087 -10.29683 -10.29588 -10.29512 -10.29455
 Alpha  occ. eigenvalues --   -9.57694  -8.82334  -7.32338  -7.31477  -7.31461
 Alpha  occ. eigenvalues --   -6.64492  -6.63363  -6.63307  -2.74870  -2.74564
 Alpha  occ. eigenvalues --   -2.74519  -2.73605  -2.73605  -1.20663  -1.10981
 Alpha  occ. eigenvalues --   -1.05300  -0.98887  -0.96753  -0.91737  -0.86718
 Alpha  occ. eigenvalues --   -0.85956  -0.84684  -0.80123  -0.79543  -0.73226
 Alpha  occ. eigenvalues --   -0.71392  -0.69211  -0.65405  -0.64207  -0.61856
 Alpha  occ. eigenvalues --   -0.59228  -0.58052  -0.57643  -0.57004  -0.56175
 Alpha  occ. eigenvalues --   -0.54559  -0.53041  -0.52361  -0.51587  -0.51435
 Alpha  occ. eigenvalues --   -0.49353  -0.48554  -0.48228  -0.47067  -0.45821
 Alpha  occ. eigenvalues --   -0.44221  -0.43798  -0.43500  -0.41989  -0.40466
 Alpha  occ. eigenvalues --   -0.38829  -0.37871  -0.37615  -0.35975  -0.34372
 Alpha  occ. eigenvalues --   -0.32980  -0.28410
 Alpha virt. eigenvalues --    0.01177   0.04022   0.04806   0.07121   0.10329
 Alpha virt. eigenvalues --    0.12035   0.12552   0.13706   0.14301   0.15304
 Alpha virt. eigenvalues --    0.15776   0.16248   0.16656   0.17701   0.18261

 Mulliken charges:
               1
     1  C   -0.253830
     2  C    0.406724
     3  O   -0.471187
     4  C    0.176585
     5  C   -0.290090
     6  H    0.158118
     7  H    0.165826
     8  H    0.157743
     9  N   -0.335100
    10  H    0.287636
    11  H    0.293923
    12  Br  -0.103552
    13  C    0.254022
    14  C   -0.312724
    15  C   -0.119206
    16  C   -0.146165
    17  C   -0.167842
    18  C   -0.218057
    19  H    0.160881
    20  H    0.146484
    21  H    0.147041
    22  H    0.145914
    23  H    0.140903
    24  Cl  -0.148521
    25  O   -0.283527
    26  C   -0.199312
    27  H    0.141414
    28  H    0.132891
    29  H    0.133007
 Sum of Mulliken charges =  -0.00000

 Dipole moment (field-independent basis, Debye):
    X=             -4.8734    Y=             -4.1736    Z=              7.6008  Tot=              9.9470
 Quadrupole moment (field-independent basis, Debye-Ang):
   XX=           -108.1614   YY=           -125.7855   ZZ=            -96.0078
   XY=            -10.2287   XZ=              9.4262   YZ=              1.2745

  Exact polarizability: 275.743   2.905 241.000  -6.856 -19.776 236.104
 Approx polarizability: 219.206   3.587 194.342  -6.783 -16.382 203.859

 ******    1 imaginary frequencies (negative Signs) ******

                      1                      2                      3
                      A                      A                      A
 Frequencies --   -346.0149                39.5926                49.5727
 Red. masses --      5.3990                 4.5385                 3.9543
 Frc consts  --      0.3808                 0.0042                 0.0057
 IR Inten    --    606.6337                 1.3692                 0.9770

                      4                      5                      6
                      A                      A                      A
 Frequencies --     54.1501                79.8307                97.0569
 Red. masses --      5.5640                 5.6589                 5.1356
 Frc consts  --      0.0096                 0.0212                 0.0285
 IR Inten    --      1.4324                 0.8057                 6.7881

                      7                      8                      9
                      A                      A                      A
 Frequencies --    110.7769               128.0622               147.2513
 Red. masses --      4.8284                 3.7298                 2.5387
 Frc consts  --      0.0349                 0.0360                 0.0324
 IR Inten    --      2.1433                 2.3316                 1.3445

                     10                     11                     12
                      A                      A                      A
 Frequencies --    163.3794               172.8291               183.0070
 Red. masses --      1.4232                 2.2498                 3.0021
 Frc consts  --      0.0224                 0.0396                 0.0592
 IR Inten    --      1.4244                 2.1659                 5.5125

                     13                     14                     15
                      A                      A                      A
 Frequencies --    195.4888               236.0409               257.4760
 Red. masses --      2.7451                 3.0742                 6.1315
 Frc consts  --      0.0618                 0.1009                 0.2395
 IR Inten    --      2.9405                 5.7613                10.1199

                     16                     17                     18
                      A                      A                      A
 Frequencies --    278.5064               297.2795               312.4978
 Red. masses --      3.9204                 4.2146                 3.6370
 Frc consts  --      0.1792                 0.2194                 0.2093
 IR Inten    --      6.6532                22.5759                21.9321

                     19                     20                     21
                      A                      A                      A
 Frequencies --    346.4048               383.6199               422.5831
 Red. masses --      9.6342                 6.2279                 2.9103
 Frc consts  --      0.6811                 0.5400                 0.3062
 IR Inten    --      6.0740                13.7093                 0.0853

                     22                     23                     24
                      A                      A                      A
 Frequencies --    432.6408               519.9550               560.8305
 Red. masses --      8.3600                 3.6555                 4.0079
 Frc consts  --      0.9220                 0.5823                 0.7427
 IR Inten    --      5.3321                 9.8819               133.8671

                     25                     26                     27
                      A                      A                      A
 Frequencies --    618.0600               640.6149               680.2469
 Red. masses --      3.7936                 6.1978                 2.6368
 Frc consts  --      0.8538                 1.4986                 0.7189
 IR Inten    --     24.9583                13.3875                96.7394

                     28                     29                     30
                      A                      A                      A
 Frequencies --    716.3193               724.2995               781.7544
 Red. masses --      2.7735                 1.6675                 2.4965
 Frc consts  --      0.8385                 0.5154                 0.8989
 IR Inten    --     23.7878               238.2822                55.0137

                     31                     32                     33
                      A                      A                      A
 Frequencies --    784.1508               853.2668               866.1697
 Red. masses --     11.2605                 4.3653                 1.8644
 Frc consts  --      4.0795                 1.8726                 0.8241
 IR Inten    --     57.6227                60.2761                35.0437

                     34                     35                     36
                      A                      A                      A
 Frequencies --    869.6040               953.3417               962.3980
 Red. masses --      2.2005                 1.8462                 3.0826
 Frc consts  --      0.9804                 0.9886                 1.6822
 IR Inten    --     55.2226                 8.2792                20.4737

                     37                     38                     39
                      A                      A                      A
 Frequencies --   1001.3749              1012.4770              1025.1272
 Red. masses --      1.1581                 1.3350                 5.6088
 Frc consts  --      0.6842                 0.8063                 3.4727
 IR Inten    --     32.8904                 3.0891                 1.6605

                     40                     41                     42
                      A                      A                      A
 Frequencies --   1032.0907              1062.8911              1069.4841
 Red. masses --      1.3150                 1.1880                 2.2041
 Frc consts  --      0.8253                 0.7908                 1.4854
 IR Inten    --      0.2683                73.0136                10.9636

                     43                     44                     45
                      A                      A                      A
 Frequencies --   1074.6388              1122.9364              1132.4513
 Red. masses --      4.6771                 6.7150                 1.6314
 Frc consts  --      3.1824                 4.9890                 1.2327
 IR Inten    --     70.0816               179.6333                13.2405

                     46                     47                     48
                      A                      A                      A
 Frequencies --   1180.7095              1188.3881              1205.9010
 Red. masses --      1.2807                 1.1506                 2.1885
 Frc consts  --      1.0519                 0.9574                 1.8751
 IR Inten    --      1.6003                 0.5268               108.2717

                     49                     50                     51
                      A                      A                      A
 Frequencies --   1224.8791              1229.7722              1236.6588
 Red. masses --      1.9140                 1.2773                 1.3642
 Frc consts  --      1.6919                 1.1381                 1.2292
 IR Inten    --     45.5463                14.9287                 9.4528

                     52                     53                     54
                      A                      A                      A
 Frequencies --   1306.1739              1319.6574              1342.8798
 Red. masses --      6.8687                 4.9750                 1.3221
 Frc consts  --      6.9044                 5.1047                 1.4048
 IR Inten    --    986.9710                51.7741                15.2325

                     55                     56                     57
                      A                      A                      A
 Frequencies --   1375.6858              1436.3306              1469.7901
 Red. masses --      1.3681                 3.7740                 1.3709
 Frc consts  --      1.5255                 4.5873                 1.7449
 IR Inten    --      4.9178               474.5626                45.7996

                     58                     59                     60
                      A                      A                      A
 Frequencies --   1479.8489              1483.0189              1490.7910
 Red. masses --      1.2018                 1.0480                 1.0449
 Frc consts  --      1.5506                 1.3580                 1.3683
 IR Inten    --     59.7506                13.5557                23.4130

                     61                     62                     63
                      A                      A                      A
 Frequencies --   1492.5894              1496.3803              1508.7162
 Red. masses --      2.1556                 1.0740                 1.0419
 Frc consts  --      2.8295                 1.4169                 1.3973
 IR Inten    --     39.2819                34.7982                13.2019

                     64                     65                     66
                      A                      A                      A
 Frequencies --   1548.0403              1649.9638              1660.3396
 Red. masses --      2.2761                 1.8968                 1.8280
 Frc consts  --      3.2137                 3.0425                 2.9691
 IR Inten    --     24.6421                52.9056                31.7886

                     67                     68                     69
                      A                      A                      A
 Frequencies --   1676.4417              1709.2331              3064.7135
 Red. masses --      5.0402                11.4704                 1.0306
 Frc consts  --      8.3460                19.7437                 5.7033
 IR Inten    --      2.9169              1041.5044                57.9071

                     70                     71                     72
                      A                      A                      A
 Frequencies --   3078.0847              3142.3742              3155.0596
 Red. masses --      1.0334                 1.1069                 1.1046
 Frc consts  --      5.7685                 6.4401                 6.4782
 IR Inten    --     29.1682                34.6780                 7.5797

                     73                     74                     75
                      A                      A                      A
 Frequencies --   3175.0434              3180.9232              3200.6061
 Red. masses --      1.1056                 1.1050                 1.0863
 Frc consts  --      6.5669                 6.5877                 6.5561
 IR Inten    --     20.8564                12.6619                 0.5218

                     76                     77                     78
                      A                      A                      A
 Frequencies --   3208.6570              3217.2475              3225.9784
 Red. masses --      1.0894                 1.0938                 1.0982
 Frc consts  --      6.6081                 6.6707                 6.7335
 IR Inten    --      4.5600                20.4286                20.1959

                     79                     80                     81
                      A                      A                      A
 Frequencies --   3255.7205              3520.7172              3597.0595
 Red. masses --      1.0912                 1.0515                 1.0954
 Frc consts  --      6.8148                 7.6792                 8.3507
 IR Inten    --     16.5071                53.9946                54.2953

 - Thermochemistry -
 -------------------
 Temperature   298.150 Kelvin.  Pressure   1.00000 Atm.
 Atom     1 has atomic number  6 and mass  12.00000

 Molecular mass:   304.98182 amu.
 Principal axes and moments of inertia in atomic units:
                           1         2         3
     Eigenvalues --  4283.240334872.922606891.42699
           X            0.99570   0.08890   0.02600
           Y           -0.08861   0.99599  -0.01206
           Z           -0.02697   0.00970   0.99959
 This molecule is an asymmetric top.
 Rotational symmetry number  1.
 Warning -- assumption of classical behavior for rotation
           may cause significant error
 Rotational temperatures (Kelvin)      0.02022     0.01777     0.01257
 Rotational constants (GHZ):           0.42135     0.37036     0.26188
    1 imaginary frequencies ignored.
 Zero-point vibrational energy     593269.4 (Joules/Mol)
                                  141.79480 (Kcal/Mol)
 Warning -- explicit consideration of  24 degrees of freedom as
           vibrations may cause significant error
 Vibrational temperatures:     56.96    71.32    77.91   114.86   139.64
          (Kelvin)            159.38   184.25   211.86   235.07   248.66
                              263.31   281.26   339.61   370.45   400.71
                              427.72   449.61   498.40   551.94   608.00
                              622.47   748.10   806.91   889.25   921.70
                              978.72  1030.62  1042.11  1124.77  1128.22
                             1227.66  1246.23  1251.17  1371.65  1384.68
                             1440.76  1456.73  1474.93  1484.95  1529.26
                             1538.75  1546.17  1615.65  1629.34  1698.78
                             1709.83  1735.02  1762.33  1769.37  1779.28
                             1879.29  1898.69  1932.10  1979.31  2066.56
                             2114.70  2129.17  2133.73  2144.92  2147.50
                             2152.96  2170.71  2227.28  2373.93  2388.86
                             2412.03  2459.21  4409.44  4428.68  4521.18
                             4539.43  4568.18  4576.64  4604.96  4616.54
                             4628.90  4641.46  4684.26  5065.53  5175.37

 Zero-point correction=                           0.225964 (Hartree/Particle)
 Thermal correction to Energy=                    0.242682
 Thermal correction to Enthalpy=                  0.243626
 Thermal correction to Gibbs Free Energy=         0.180065
 Sum of electronic and zero-point Energies=          -3666.385157
 Sum of electronic and thermal Energies=             -3666.368439
 Sum of electronic and thermal Enthalpies=           -3666.367495
 Sum of electronic and thermal Free Energies=        -3666.431056

                     E (Thermal)             CV                S
                      KCal/Mol        Cal/Mol-Kelvin    Cal/Mol-Kelvin
 Total                  152.285             59.571            133.777
 Electronic               0.000              0.000              0.000
 Translational            0.889              2.981             43.042
 Rotational               0.889              2.981             33.330
 Vibrational            150.508             53.609             57.404
 Vibration     1          0.594              1.981              5.279
 Vibration     2          0.595              1.978              4.834
 Vibration     3          0.596              1.976              4.660
 Vibration     4          0.600              1.963              3.895
 Vibration     5          0.603              1.951              3.513
 Vibration     6          0.607              1.941              3.255
 Vibration     7          0.611              1.925              2.975
 Vibration     8          0.617              1.906              2.707
 Vibration     9          0.623              1.887              2.510
 Vibration    10          0.626              1.876              2.404
 Vibration    11          0.631              1.863              2.298
 Vibration    12          0.636              1.846              2.175
 Vibration    13          0.655              1.786              1.833
 Vibration    14          0.667              1.750              1.679
 Vibration    15          0.679              1.713              1.543
 Vibration    16          0.691              1.679              1.432
 Vibration    17          0.701              1.650              1.349
 Vibration    18          0.724              1.583              1.182
 Vibration    19          0.753              1.505              1.025
 Vibration    20          0.785              1.421              0.883
 Vibration    21          0.794              1.399              0.850
 Vibration    22          0.875              1.206              0.610
 Vibration    23          0.916              1.116              0.522
 Vibration    24          0.978              0.994              0.420

 Optimization completed.
    -- Stationary point found.
 Normal termination of Gaussian 16 at Sun Feb 21 00:45:57 2021.
