 Gaussian 16, Revision A.03,
 Gaussian 16:  ES64L-G16RevA.03 25-Dec-2016

 ----------------------------------------------------------------------
 # wB97XD def2tzvp, opt=(ts, noeigen, calcfc, maxcycles=70, maxstep=8),
  freq=noraman, scrf=(iefpcm, solvent=water)
 ----------------------------------------------------------------------

 ------------------------
 1_iteration/TS-670-1.out
 ------------------------
 Symbolic Z-matrix:
 Charge =  0 Multiplicity = 1

 SCF Done:  E(RwB97XD) =  -5569.00850925     A.U. after   15 cycles
 SCF Done:  E(RwB97XD) =  -5569.00851972     A.U. after   10 cycles
 SCF Done:  E(RwB97XD) =  -5569.00851976     A.U. after    8 cycles
 SCF Done:  E(RwB97XD) =  -5569.00851984     A.U. after    7 cycles
 Optimization completed.
    -- Stationary point found.
 Normal termination of Gaussian 16 at Fri Feb 19 12:57:58 2021.

 ---------------------------------------------------------------------
 #N Geom=AllCheck Guess=TCheck SCRF=Check GenChk RwB97XD/def2TZVP Freq
 ---------------------------------------------------------------------

 Structure from the checkpoint file:  "/beegfs/scratch/user/q/tla25/Gau-120716.chk"
 ------------------------
 1_iteration/TS-670-1.out
 ------------------------
 Charge =  0 Multiplicity = 1

                         Standard orientation:
 ---------------------------------------------------------------------
 Center     Atomic      Atomic             Coordinates (Angstroms)
 Number     Number       Type             X           Y           Z
 ---------------------------------------------------------------------
      1          6           0        0.400400    0.008636   -0.212004
      2          6           0        1.524135    0.946243   -0.233087
      3          8           0        1.307034    2.165175   -0.109978
      4          6           0       -0.843714    0.557065   -0.455360
      5          6           0       -2.557519    2.527364    0.813523
      6          1           0       -2.672457    3.236914    1.634118
      7          1           0       -2.417579    3.082073   -0.114063
      8          1           0       -3.461648    1.927221    0.732077
      9          7           0       -1.410629    1.649936    1.016222
     10          1           0       -0.536798    2.165956    1.091155
     11          1           0       -1.515917    1.050770    1.826104
     12         35           0       -2.372808   -0.555837   -0.733074
     13          1           0       -0.860732    1.393757   -1.140889
     14         35           0        0.539759   -1.576857    0.848894
     15          7           0        2.791140    0.483565   -0.377595
     16          6           0        3.125167   -0.779037   -1.004327
     17          6           0        3.898090    1.397904   -0.193428
     18          1           0        2.238096   -1.237177   -1.432221
     19          1           0        3.838160   -0.595890   -1.812137
     20          1           0        3.578466   -1.474451   -0.293889
     21          1           0        3.627531    2.167737    0.523921
     22          1           0        4.756971    0.840709    0.182937
     23          1           0        4.183424    1.881704   -1.133269
 ---------------------------------------------------------------------

 SCF Done:  E(RwB97XD) =  -5569.00851984     A.U. after    1 cycles

 The electronic state is 1-A.
 Alpha  occ. eigenvalues -- -483.13650-483.12391 -62.68507 -62.67216 -56.47622
 Alpha  occ. eigenvalues --  -56.47269 -56.47252 -56.46325 -56.45982 -56.45978
 Alpha  occ. eigenvalues --  -19.20952 -14.47868 -14.45971 -10.38565 -10.38540
 Alpha  occ. eigenvalues --  -10.31730 -10.30841 -10.30670 -10.30535  -8.82628
 Alpha  occ. eigenvalues --   -8.81325  -6.64788  -6.63658  -6.63603  -6.63450
 Alpha  occ. eigenvalues --   -6.62352  -6.62339  -2.75179  -2.74856  -2.74813
 Alpha  occ. eigenvalues --   -2.73899  -2.73898  -2.73844  -2.73521  -2.73511
 Alpha  occ. eigenvalues --   -2.72622  -2.72622  -1.13644  -1.03676  -1.03202
 Alpha  occ. eigenvalues --   -0.94469  -0.89070  -0.82781  -0.81550  -0.79745
 Alpha  occ. eigenvalues --   -0.78148  -0.68988  -0.63424  -0.62544  -0.59476
 Alpha  occ. eigenvalues --   -0.56799  -0.56118  -0.55945  -0.54261  -0.51529
 Alpha  occ. eigenvalues --   -0.50460  -0.48630  -0.48310  -0.48174  -0.47429
 Alpha  occ. eigenvalues --   -0.45865  -0.45500  -0.44805  -0.39573  -0.38671
 Alpha  occ. eigenvalues --   -0.37406  -0.36355  -0.34776  -0.32130  -0.27084
 Alpha virt. eigenvalues --    0.04698   0.05551   0.09372   0.11086   0.12385
 Alpha virt. eigenvalues --    0.13963   0.15386   0.15746   0.16335   0.17397
 Alpha virt. eigenvalues --    0.17765   0.18942   0.19201   0.19910   0.20087

 Mulliken charges:
               1
     1  C   -0.275484
     2  C    0.353436
     3  O   -0.563658
     4  C   -0.037317
     5  C   -0.274402
     6  H    0.152109
     7  H    0.148168
     8  H    0.150741
     9  N   -0.328531
    10  H    0.274128
    11  H    0.280932
    12  Br  -0.072118
    13  H    0.189058
    14  Br  -0.147204
    15  N   -0.117556
    16  C   -0.301484
    17  C   -0.291697
    18  H    0.159297
    19  H    0.140210
    20  H    0.143862
    21  H    0.140173
    22  H    0.141190
    23  H    0.136144
 Sum of Mulliken charges =  -0.00000

 Dipole moment (field-independent basis, Debye):
    X=             -1.3162    Y=              2.3458    Z=              1.5853  Tot=              3.1222
 Quadrupole moment (field-independent basis, Debye-Ang):
   XX=            -76.8068   YY=            -94.0094   ZZ=            -88.3166
   XY=            -10.8166   XZ=             -6.9955   YZ=              4.9118

  Exact polarizability: 233.817 -13.452 194.618  -8.767   3.659 147.088
 Approx polarizability: 170.427  -7.062 162.210  -4.586   1.381 129.414

 ******    1 imaginary frequencies (negative Signs) ******

                      1                      2                      3
                      A                      A                      A
 Frequencies --   -380.7460                49.3523                59.7803
 Red. masses --      6.8118                 5.7265                 3.9658
 Frc consts  --      0.5818                 0.0082                 0.0084
 IR Inten    --    991.7763                 1.0453                 9.5905

                      4                      5                      6
                      A                      A                      A
 Frequencies --     86.3471                97.2585               115.3636
 Red. masses --      3.2252                 3.3782                 3.8767
 Frc consts  --      0.0142                 0.0188                 0.0304
 IR Inten    --      1.1833                 6.0397                 1.6368

                      7                      8                      9
                      A                      A                      A
 Frequencies --    120.5183               131.1480               157.2262
 Red. masses --      2.5596                 1.9283                 2.1132
 Frc consts  --      0.0219                 0.0195                 0.0308
 IR Inten    --     11.7691                22.1580                 2.6811

                     10                     11                     12
                      A                      A                      A
 Frequencies --    163.3484               182.7040               206.8436
 Red. masses --      2.0524                 1.7497                 2.2117
 Frc consts  --      0.0323                 0.0344                 0.0558
 IR Inten    --      1.5455                 8.0428                12.8598

                     13                     14                     15
                      A                      A                      A
 Frequencies --    244.0733               258.1906               285.1482
 Red. masses --      3.0053                 3.1569                 2.7718
 Frc consts  --      0.1055                 0.1240                 0.1328
 IR Inten    --     18.0451                 2.6295                11.4185

                     16                     17                     18
                      A                      A                      A
 Frequencies --    299.4531               391.8437               446.0122
 Red. masses --      2.7232                 3.3722                 8.2611
 Frc consts  --      0.1439                 0.3051                 0.9682
 IR Inten    --     26.0118                21.2435               107.2977

                     19                     20                     21
                      A                      A                      A
 Frequencies --    466.5079               589.3152               647.6482
 Red. masses --      3.4150                 3.1859                 5.4826
 Frc consts  --      0.4379                 0.6519                 1.3549
 IR Inten    --     40.1853                 9.0483                15.6988

                     22                     23                     24
                      A                      A                      A
 Frequencies --    666.0331               756.2081               780.3984
 Red. masses --      2.5514                 2.4891                 7.6832
 Frc consts  --      0.6668                 0.8387                 2.7569
 IR Inten    --     44.6621                74.4354                87.0549

                     25                     26                     27
                      A                      A                      A
 Frequencies --    906.5050              1005.0486              1047.4499
 Red. masses --      4.0301                 1.1032                 2.1358
 Frc consts  --      1.9512                 0.6566                 1.3806
 IR Inten    --     44.1990                25.2199                65.4668

                     28                     29                     30
                      A                      A                      A
 Frequencies --   1054.9943              1081.5564              1089.8219
 Red. masses --      1.1815                 3.6997                 1.4198
 Frc consts  --      0.7748                 2.5499                 0.9935
 IR Inten    --     84.9985               259.0062                20.2597

                     31                     32                     33
                      A                      A                      A
 Frequencies --   1133.4815              1140.2588              1169.8791
 Red. masses --      1.2286                 1.1822                 1.4051
 Frc consts  --      0.9300                 0.9056                 1.1330
 IR Inten    --      1.2818                33.5876                 5.8167

                     34                     35                     36
                      A                      A                      A
 Frequencies --   1208.0511              1221.0312              1237.2161
 Red. masses --      1.4360                 2.5800                 1.2534
 Frc consts  --      1.2347                 2.2664                 1.1304
 IR Inten    --     62.7167               172.7938                31.6351

                     37                     38                     39
                      A                      A                      A
 Frequencies --   1314.9471              1348.7792              1410.0705
 Red. masses --      5.1903                 1.3175                 4.4756
 Frc consts  --      5.2876                 1.4122                 5.2430
 IR Inten    --     41.1723                13.6105              1173.3183

                     40                     41                     42
                      A                      A                      A
 Frequencies --   1438.1184              1447.5514              1464.6624
 Red. masses --      1.7456                 1.3264                 1.2120
 Frc consts  --      2.1271                 1.6376                 1.5318
 IR Inten    --     39.9375                33.0810                20.5129

                     43                     44                     45
                      A                      A                      A
 Frequencies --   1474.5202              1483.4654              1489.5851
 Red. masses --      1.1960                 1.0890                 1.0403
 Frc consts  --      1.5321                 1.4120                 1.3600
 IR Inten    --     52.1057                 7.8144                17.8093

                     46                     47                     48
                      A                      A                      A
 Frequencies --   1499.4023              1501.2935              1506.5264
 Red. masses --      1.0543                 1.0578                 1.0326
 Frc consts  --      1.3965                 1.4047                 1.3808
 IR Inten    --     17.2688                28.7377                14.3428

                     49                     50                     51
                      A                      A                      A
 Frequencies --   1533.3175              1619.4380              1653.1965
 Red. masses --      1.6695                 5.5585                 1.1051
 Frc consts  --      2.3126                 8.5888                 1.7795
 IR Inten    --    232.4656               677.9603                67.3381

                     52                     53                     54
                      A                      A                      A
 Frequencies --   3032.2235              3041.8608              3063.4246
 Red. masses --      1.0449                 1.0387                 1.0342
 Frc consts  --      5.6603                 5.6624                 5.7181
 IR Inten    --     83.9694               105.6336                57.7493

                     55                     56                     57
                      A                      A                      A
 Frequencies --   3097.3185              3107.8342              3138.1859
 Red. masses --      1.1030                 1.0955                 1.1044
 Frc consts  --      6.2343                 6.2344                 6.4084
 IR Inten    --     63.3471                23.6682                19.3385

                     58                     59                     60
                      A                      A                      A
 Frequencies --   3163.3554              3173.9031              3176.5195
 Red. masses --      1.1049                 1.1003                 1.0984
 Frc consts  --      6.5142                 6.5303                 6.5303
 IR Inten    --     15.4766                11.1641                13.3928

                     61                     62                     63
                      A                      A                      A
 Frequencies --   3206.3178              3477.4232              3594.8461
 Red. masses --      1.0906                 1.0570                 1.0914
 Frc consts  --      6.6056                 7.5304                 8.3098
 IR Inten    --      0.3894                70.8204                73.8691

 - Thermochemistry -
 -------------------
 Temperature   298.150 Kelvin.  Pressure   1.00000 Atm.
 Atom     1 has atomic number  6 and mass  12.00000

 Molecular mass:   285.93164 amu.
 Principal axes and moments of inertia in atomic units:
                           1         2         3
     Eigenvalues --  2334.906644699.503385939.03573
           X            0.99882  -0.02374  -0.04235
           Y            0.02620   0.99794   0.05860
           Z            0.04087  -0.05964   0.99738
 This molecule is an asymmetric top.
 Rotational symmetry number  1.
 Warning -- assumption of classical behavior for rotation
           may cause significant error
 Rotational temperatures (Kelvin)      0.03710     0.01843     0.01458
 Rotational constants (GHZ):           0.77294     0.38403     0.30388
    1 imaginary frequencies ignored.
 Zero-point vibrational energy     484213.1 (Joules/Mol)
                                  115.72970 (Kcal/Mol)
 Warning -- explicit consideration of  19 degrees of freedom as
           vibrations may cause significant error
 Vibrational temperatures:     71.01    86.01   124.23   139.93   165.98
          (Kelvin)            173.40   188.69   226.21   235.02   262.87
                              297.60   351.17   371.48   410.26   430.85
                              563.78   641.71   671.20   847.89   931.82
                              958.27  1088.01  1122.82  1304.26  1446.04
                             1507.05  1517.90  1556.12  1568.01  1630.83
                             1640.58  1683.20  1738.12  1756.79  1780.08
                             1891.92  1940.59  2028.78  2069.13  2082.70
                             2107.32  2121.51  2134.38  2143.18  2157.31
                             2160.03  2167.56  2206.10  2330.01  2378.58
                             4362.69  4376.56  4407.58  4456.35  4471.48
                             4515.15  4551.36  4566.54  4570.30  4613.18
                             5003.24  5172.18

 Zero-point correction=                           0.184427 (Hartree/Particle)
 Thermal correction to Energy=                    0.198544
 Thermal correction to Enthalpy=                  0.199488
 Thermal correction to Gibbs Free Energy=         0.141437
 Sum of electronic and zero-point Energies=          -5568.824093
 Sum of electronic and thermal Energies=             -5568.809976
 Sum of electronic and thermal Enthalpies=           -5568.809031
 Sum of electronic and thermal Free Energies=        -5568.867082

                     E (Thermal)             CV                S
                      KCal/Mol        Cal/Mol-Kelvin    Cal/Mol-Kelvin
 Total                  124.588             47.114            122.179
 Electronic               0.000              0.000              0.000
 Translational            0.889              2.981             42.850
 Rotational               0.889              2.981             32.544
 Vibrational            122.811             41.152             46.785
 Vibration     1          0.595              1.978              4.843
 Vibration     2          0.597              1.973              4.464
 Vibration     3          0.601              1.959              3.741
 Vibration     4          0.603              1.951              3.509
 Vibration     5          0.608              1.937              3.177
 Vibration     6          0.609              1.932              3.092
 Vibration     7          0.612              1.922              2.929
 Vibration     8          0.621              1.895              2.583
 Vibration     9          0.623              1.887              2.511
 Vibration    10          0.630              1.863              2.301
 Vibration    11          0.641              1.830              2.071
 Vibration    12          0.659              1.773              1.773
 Vibration    13          0.667              1.749              1.674
 Vibration    14          0.683              1.701              1.503
 Vibration    15          0.692              1.675              1.420
 Vibration    16          0.759              1.488              0.993
 Vibration    17          0.805              1.370              0.808
 Vibration    18          0.824              1.324              0.747
 Vibration    19          0.947              1.055              0.468

 Optimization completed.
    -- Stationary point found.
 Normal termination of Gaussian 16 at Fri Feb 19 13:28:42 2021.
