 Gaussian 16, Revision A.03,
 Gaussian 16:  ES64L-G16RevA.03 25-Dec-2016

 ----------------------------------------------------------------------
 # wB97XD def2tzvp, opt=(ts, noeigen, calcfc, maxcycles=70, maxstep=1),
  freq=noraman, scrf=(iefpcm, solvent=water)
 ----------------------------------------------------------------------

 ------------------------
 0_iteration/TS-645-0.out
 ------------------------
 Symbolic Z-matrix:
 Charge =  0 Multiplicity = 1

 SCF Done:  E(RwB97XD) =  -3187.14990877     A.U. after   14 cycles
 SCF Done:  E(RwB97XD) =  -3187.14994726     A.U. after   10 cycles
 SCF Done:  E(RwB97XD) =  -3187.14998454     A.U. after   10 cycles
 SCF Done:  E(RwB97XD) =  -3187.15002636     A.U. after   10 cycles
 SCF Done:  E(RwB97XD) =  -3187.15007021     A.U. after   10 cycles
 SCF Done:  E(RwB97XD) =  -3187.15011432     A.U. after   10 cycles
 SCF Done:  E(RwB97XD) =  -3187.15015623     A.U. after   10 cycles
 SCF Done:  E(RwB97XD) =  -3187.15019810     A.U. after   10 cycles
 SCF Done:  E(RwB97XD) =  -3187.15023995     A.U. after    9 cycles
 SCF Done:  E(RwB97XD) =  -3187.15028344     A.U. after   10 cycles
 SCF Done:  E(RwB97XD) =  -3187.15056004     A.U. after    9 cycles
 SCF Done:  E(RwB97XD) =  -3187.15057270     A.U. after    9 cycles
 SCF Done:  E(RwB97XD) =  -3187.15058251     A.U. after    9 cycles
 SCF Done:  E(RwB97XD) =  -3187.15058896     A.U. after    9 cycles
 SCF Done:  E(RwB97XD) =  -3187.15059160     A.U. after   10 cycles
 SCF Done:  E(RwB97XD) =  -3187.15059165     A.U. after    8 cycles
 SCF Done:  E(RwB97XD) =  -3187.15059167     A.U. after    8 cycles
 SCF Done:  E(RwB97XD) =  -3187.15059168     A.U. after    7 cycles
 SCF Done:  E(RwB97XD) =  -3187.15059167     A.U. after    6 cycles
 Optimization completed.
    -- Stationary point found.
 Normal termination of Gaussian 16 at Fri Feb 19 05:55:34 2021.

 ---------------------------------------------------------------------
 #N Geom=AllCheck Guess=TCheck SCRF=Check GenChk RwB97XD/def2TZVP Freq
 ---------------------------------------------------------------------

 Structure from the checkpoint file:  "/beegfs/scratch/user/q/tla25/Gau-118124.chk"
 ------------------------
 0_iteration/TS-645-0.out
 ------------------------
 Charge =  0 Multiplicity = 1

                         Standard orientation:
 ---------------------------------------------------------------------
 Center     Atomic      Atomic             Coordinates (Angstroms)
 Number     Number       Type             X           Y           Z
 ---------------------------------------------------------------------
      1          6           0       -0.269385   -0.555630   -0.167114
      2          6           0       -1.217023   -1.641680   -0.383914
      3          8           0       -0.880407   -2.810425   -0.637466
      4          6           0        1.063307   -0.917884   -0.202077
      5          6           0        0.978595   -2.009871    2.306572
      6          1           0        1.301146   -2.004188    3.346543
      7          1           0       -0.034507   -1.611970    2.234989
      8          1           0        0.981288   -3.027997    1.925143
      9          7           0        1.849796   -1.186495    1.474952
     10          1           0        1.999754   -0.268458    1.879296
     11          1           0        2.759801   -1.611931    1.335100
     12         35           0        2.378623    0.345329   -0.895600
     13          1           0        1.272829   -1.910615   -0.576020
     14          6           0       -0.717279    0.835063    0.090611
     15          6           0       -1.373052    1.569542   -0.901959
     16          6           0       -1.786269    2.874185   -0.680002
     17          6           0       -1.540299    3.485484    0.541864
     18          6           0       -0.888678    2.775540    1.539279
     19          6           0       -0.492172    1.464486    1.316549
     20          1           0       -1.552210    1.105292   -1.864710
     21          1           0       -2.291225    3.419538   -1.467807
     22          1           0       -1.855769    4.506559    0.715243
     23          1           0       -0.696690    3.238911    2.499144
     24          1           0       -0.012561    0.917985    2.119568
     25          7           0       -2.538580   -1.333201   -0.291635
     26          6           0       -3.573051   -2.315460   -0.501126
     27          1           0       -2.804678   -0.391851   -0.069518
     28          1           0       -4.540263   -1.829743   -0.388107
     29          1           0       -3.516386   -2.749157   -1.501804
     30          1           0       -3.505756   -3.130266    0.223348
 ---------------------------------------------------------------------

 SCF Done:  E(RwB97XD) =  -3187.15059167     A.U. after    1 cycles

 The electronic state is 1-A.
 Alpha  occ. eigenvalues -- -483.12703 -62.67561 -56.46661 -56.46329 -56.46318
 Alpha  occ. eigenvalues --  -19.19164 -14.49536 -14.44009 -10.37675 -10.37023
 Alpha  occ. eigenvalues --  -10.31864 -10.30436 -10.29952 -10.28929 -10.28902
 Alpha  occ. eigenvalues --  -10.28797 -10.28755 -10.28616 -10.25884  -8.81675
 Alpha  occ. eigenvalues --   -6.63781  -6.62725  -6.62686  -2.74174  -2.73876
 Alpha  occ. eigenvalues --   -2.73845  -2.72991  -2.72990  -1.11892  -1.04876
 Alpha  occ. eigenvalues --   -1.00672  -0.96664  -0.92237  -0.87165  -0.84916
 Alpha  occ. eigenvalues --   -0.82449  -0.79428  -0.79266  -0.71490  -0.70230
 Alpha  occ. eigenvalues --   -0.68286  -0.65277  -0.64066  -0.61696  -0.58945
 Alpha  occ. eigenvalues --   -0.57569  -0.55767  -0.55000  -0.53534  -0.53386
 Alpha  occ. eigenvalues --   -0.52893  -0.51008  -0.50652  -0.49761  -0.48291
 Alpha  occ. eigenvalues --   -0.47049  -0.46480  -0.46148  -0.45627  -0.44890
 Alpha  occ. eigenvalues --   -0.42522  -0.42454  -0.37652  -0.37039  -0.34472
 Alpha  occ. eigenvalues --   -0.33844  -0.32849  -0.32451  -0.26571
 Alpha virt. eigenvalues --    0.04994   0.05139   0.05870   0.07898   0.10147
 Alpha virt. eigenvalues --    0.12145   0.13705   0.14486   0.14720   0.15287
 Alpha virt. eigenvalues --    0.16354   0.17212   0.17582   0.18272   0.18827

 Mulliken charges:
               1
     1  C   -0.236321
     2  C    0.347937
     3  O   -0.572944
     4  C   -0.007182
     5  C   -0.294552
     6  H    0.165490
     7  H    0.156645
     8  H    0.158623
     9  N   -0.310477
    10  H    0.282286
    11  H    0.295141
    12  Br  -0.136963
    13  H    0.185197
    14  C    0.134652
    15  C   -0.293879
    16  C   -0.115994
    17  C   -0.146026
    18  C   -0.169835
    19  C   -0.226455
    20  H    0.142229
    21  H    0.141129
    22  H    0.142803
    23  H    0.139169
    24  H    0.147729
    25  N   -0.314025
    26  C   -0.257472
    27  H    0.260011
    28  H    0.137493
    29  H    0.123315
    30  H    0.122276
 Sum of Mulliken charges =  -0.00000

 Dipole moment (field-independent basis, Debye):
    X=              1.8159    Y=              1.7635    Z=              6.3790  Tot=              6.8629
 Quadrupole moment (field-independent basis, Debye-Ang):
   XX=            -87.9575   YY=           -109.5312   ZZ=            -92.8092
   XY=            -11.5072   XZ=             11.0524   YZ=             -8.5658

  Exact polarizability: 250.440  -8.399 253.268  19.718   0.239 217.701
 Approx polarizability: 192.635  -8.441 203.808  14.627   1.732 184.687

 ******    1 imaginary frequencies (negative Signs) ******

                      1                      2                      3
                      A                      A                      A
 Frequencies --   -376.4013                32.8936                48.4959
 Red. masses --      6.0754                 3.7807                 2.9397
 Frc consts  --      0.5071                 0.0024                 0.0041
 IR Inten    --    748.2999                 7.5095                12.5329

                      4                      5                      6
                      A                      A                      A
 Frequencies --     57.2595                70.8954                84.8064
 Red. masses --      6.8542                 2.7222                 2.7460
 Frc consts  --      0.0132                 0.0081                 0.0116
 IR Inten    --      2.1147                 4.5163                 5.8133

                      7                      8                      9
                      A                      A                      A
 Frequencies --     98.0747               119.9895               131.9806
 Red. masses --      3.4779                 4.0657                 1.9949
 Frc consts  --      0.0197                 0.0345                 0.0205
 IR Inten    --     12.1161                 6.6553                 3.3107

                     10                     11                     12
                      A                      A                      A
 Frequencies --    146.7212               171.0329               178.9594
 Red. masses --      2.5238                 1.5894                 1.7397
 Frc consts  --      0.0320                 0.0274                 0.0328
 IR Inten    --     10.6051                 1.2968                 9.1089

                     13                     14                     15
                      A                      A                      A
 Frequencies --    209.0797               259.4494               283.7087
 Red. masses --      5.7072                 4.3883                 4.5615
 Frc consts  --      0.1470                 0.1740                 0.2163
 IR Inten    --      5.7771                 6.5222                37.9315

                     16                     17                     18
                      A                      A                      A
 Frequencies --    306.8116               344.6296               390.0144
 Red. masses --      4.1593                 3.0893                 6.3223
 Frc consts  --      0.2307                 0.2162                 0.5666
 IR Inten    --     16.8605                57.5571                25.6152

                     19                     20                     21
                      A                      A                      A
 Frequencies --    393.1976               425.4831               474.2721
 Red. masses --      1.2473                 2.8275                 4.0262
 Frc consts  --      0.1136                 0.3016                 0.5336
 IR Inten    --     53.4977                 1.1599                33.0896

                     22                     23                     24
                      A                      A                      A
 Frequencies --    550.6034               586.0028               638.1152
 Red. masses --      3.2612                 3.4625                 6.2275
 Frc consts  --      0.5825                 0.7005                 1.4940
 IR Inten    --     54.5945                25.9646                17.1412

                     25                     26                     27
                      A                      A                      A
 Frequencies --    664.8388               684.3572               731.4690
 Red. masses --      4.2728                 3.4332                 1.5175
 Frc consts  --      1.1127                 0.9474                 0.4784
 IR Inten    --    197.2512                96.7632                81.8767

                     28                     29                     30
                      A                      A                      A
 Frequencies --    747.6156               796.7136               810.1871
 Red. masses --      2.3709                 4.3321                 3.1161
 Frc consts  --      0.7808                 1.6201                 1.2051
 IR Inten    --      6.8859                46.7697                16.4743

                     31                     32                     33
                      A                      A                      A
 Frequencies --    820.7049               880.4425               954.2054
 Red. masses --      3.2754                 1.2432                 1.4741
 Frc consts  --      1.2998                 0.5678                 0.7908
 IR Inten    --     41.1326                 0.8042                 2.5617

                     34                     35                     36
                      A                      A                      A
 Frequencies --    995.1308              1012.7262              1014.1043
 Red. masses --      2.2882                 1.3917                 1.2624
 Frc consts  --      1.3351                 0.8409                 0.7649
 IR Inten    --      7.0740                 0.6265                23.9684

                     37                     38                     39
                      A                      A                      A
 Frequencies --   1025.4425              1028.4275              1035.8504
 Red. masses --      4.0885                 1.4140                 1.1191
 Frc consts  --      2.5330                 0.8811                 0.7075
 IR Inten    --      1.2835                 0.1374                73.5197

                     40                     41                     42
                      A                      A                      A
 Frequencies --   1062.1435              1079.9885              1111.1964
 Red. masses --      2.2379                 5.0212                 1.6278
 Frc consts  --      1.4875                 3.4506                 1.1842
 IR Inten    --     12.4202                52.2267                24.9924

                     43                     44                     45
                      A                      A                      A
 Frequencies --   1131.1238              1156.5001              1158.5599
 Red. masses --      3.0450                 1.2839                 1.3204
 Frc consts  --      2.2954                 1.0117                 1.0442
 IR Inten    --     19.1640                 5.6308                53.1781

                     46                     47                     48
                      A                      A                      A
 Frequencies --   1181.8999              1186.6427              1206.9839
 Red. masses --      1.1323                 1.7146                 1.4545
 Frc consts  --      0.9319                 1.4225                 1.2485
 IR Inten    --      0.1357                29.4340                24.7416

                     49                     50                     51
                      A                      A                      A
 Frequencies --   1210.8778              1226.0367              1291.1961
 Red. masses --      1.1245                 1.3752                 2.1524
 Frc consts  --      0.9714                 1.2180                 2.1142
 IR Inten    --      0.6043                45.1028               283.8519

                     52                     53                     54
                      A                      A                      A
 Frequencies --   1303.5757              1339.7323              1343.5405
 Red. masses --      3.6239                 1.3277                 2.6376
 Frc consts  --      3.6282                 1.4040                 2.8052
 IR Inten    --     30.9166                 6.2861               461.8598

                     55                     56                     57
                      A                      A                      A
 Frequencies --   1363.2932              1434.0757              1458.1320
 Red. masses --      1.5182                 2.7131                 1.2356
 Frc consts  --      1.6625                 3.2874                 1.5479
 IR Inten    --     89.1256               377.8281                23.8149

                     58                     59                     60
                      A                      A                      A
 Frequencies --   1461.8386              1475.0544              1487.9865
 Red. masses --      1.4777                 1.0400                 2.2374
 Frc consts  --      1.8605                 1.3332                 2.9188
 IR Inten    --    151.1834                11.8704                21.5261

                     61                     62                     63
                      A                      A                      A
 Frequencies --   1491.2268              1499.4804              1508.1045
 Red. masses --      1.0447                 1.0439                 1.0834
 Frc consts  --      1.3688                 1.3828                 1.4518
 IR Inten    --     13.2171                21.7632                13.6949

                     64                     65                     66
                      A                      A                      A
 Frequencies --   1546.0580              1555.6074              1640.3707
 Red. masses --      2.4580                 1.9533                 5.4465
 Frc consts  --      3.4616                 2.7850                 8.6348
 IR Inten    --     68.3827               590.9585               159.9338

                     67                     68                     69
                      A                      A                      A
 Frequencies --   1646.8225              1650.6597              1671.5624
 Red. masses --      2.3072                 1.5967                 5.8652
 Frc consts  --      3.6866                 2.5632                 9.6556
 IR Inten    --    436.3511               182.8324                 8.2769

                     70                     71                     72
                      A                      A                      A
 Frequencies --   3044.5699              3070.8260              3098.8120
 Red. masses --      1.0360                 1.0339                 1.1043
 Frc consts  --      5.6579                 5.7443                 6.2478
 IR Inten    --     97.9959                32.9477                50.7572

                     73                     74                     75
                      A                      A                      A
 Frequencies --   3150.0645              3154.1345              3177.1346
 Red. masses --      1.1038                 1.1010                 1.1059
 Frc consts  --      6.4532                 6.4536                 6.5773
 IR Inten    --      7.2840                26.1002                 9.3350

                     76                     77                     78
                      A                      A                      A
 Frequencies --   3188.3734              3192.3569              3202.0296
 Red. masses --      1.0861                 1.0874                 1.0913
 Frc consts  --      6.5052                 6.5293                 6.5921
 IR Inten    --      8.1423                 3.0206                15.9221

                     79                     80                     81
                      A                      A                      A
 Frequencies --   3208.5828              3219.7994              3222.3112
 Red. masses --      1.0949                 1.0988                 1.0898
 Frc consts  --      6.6416                 6.7114                 6.6668
 IR Inten    --     54.1573                16.6811                 6.6883

                     82                     83                     84
                      A                      A                      A
 Frequencies --   3516.6282              3599.2657              3685.3491
 Red. masses --      1.0508                 1.0967                 1.0778
 Frc consts  --      7.6566                 8.3707                 8.6246
 IR Inten    --     44.8101                53.4227                80.9930

 - Thermochemistry -
 -------------------
 Temperature   298.150 Kelvin.  Pressure   1.00000 Atm.
 Atom     1 has atomic number  6 and mass  12.00000

 Molecular mass:   270.03677 amu.
 Principal axes and moments of inertia in atomic units:
                           1         2         3
     Eigenvalues --  3959.028634508.515906461.82049
           X            0.99674  -0.05809   0.05595
           Y            0.05875   0.99822  -0.01023
           Z           -0.05526   0.01348   0.99838
 This molecule is an asymmetric top.
 Rotational symmetry number  1.
 Warning -- assumption of classical behavior for rotation
           may cause significant error
 Rotational temperatures (Kelvin)      0.02188     0.01921     0.01340
 Rotational constants (GHZ):           0.45585     0.40030     0.27929
    1 imaginary frequencies ignored.
 Zero-point vibrational energy     650859.4 (Joules/Mol)
                                  155.55914 (Kcal/Mol)
 Warning -- explicit consideration of  22 degrees of freedom as
           vibrations may cause significant error
 Vibrational temperatures:     47.33    69.77    82.38   102.00   122.02
          (Kelvin)            141.11   172.64   189.89   211.10   246.08
                              257.48   300.82   373.29   408.19   441.43
                              495.85   561.14   565.72   612.18   682.37
                              792.20   843.13   918.11   956.55   984.64
                             1052.42  1075.65  1146.29  1165.68  1180.81
                             1266.76  1372.89  1431.77  1457.09  1459.07
                             1475.38  1479.68  1490.36  1528.19  1553.86
                             1598.76  1627.43  1663.95  1666.91  1700.49
                             1707.31  1736.58  1742.18  1763.99  1857.74
                             1875.55  1927.58  1933.06  1961.47  2063.32
                             2097.93  2103.26  2122.27  2140.88  2145.54
                             2157.42  2169.83  2224.43  2238.17  2360.13
                             2369.41  2374.93  2405.01  4380.46  4418.23
                             4458.50  4532.24  4538.10  4571.19  4587.36
                             4593.09  4607.01  4616.44  4632.57  4636.19
                             5059.64  5178.54  5302.40

 Zero-point correction=                           0.247899 (Hartree/Particle)
 Thermal correction to Energy=                    0.263994
 Thermal correction to Enthalpy=                  0.264939
 Thermal correction to Gibbs Free Energy=         0.202239
 Sum of electronic and zero-point Energies=          -3186.902692
 Sum of electronic and thermal Energies=             -3186.886597
 Sum of electronic and thermal Enthalpies=           -3186.885653
 Sum of electronic and thermal Free Energies=        -3186.948353

                     E (Thermal)             CV                S
                      KCal/Mol        Cal/Mol-Kelvin    Cal/Mol-Kelvin
 Total                  165.659             57.186            131.963
 Electronic               0.000              0.000              0.000
 Translational            0.889              2.981             42.679
 Rotational               0.889              2.981             33.111
 Vibrational            163.882             51.225             56.172
 Vibration     1          0.594              1.983              5.647
 Vibration     2          0.595              1.978              4.878
 Vibration     3          0.596              1.975              4.549
 Vibration     4          0.598              1.968              4.128
 Vibration     5          0.601              1.960              3.776
 Vibration     6          0.604              1.951              3.492
 Vibration     7          0.609              1.933              3.101
 Vibration     8          0.612              1.921              2.917
 Vibration     9          0.617              1.906              2.714
 Vibration    10          0.626              1.878              2.424
 Vibration    11          0.629              1.868              2.339
 Vibration    12          0.642              1.827              2.052
 Vibration    13          0.668              1.747              1.665
 Vibration    14          0.682              1.704              1.511
 Vibration    15          0.697              1.661              1.379
 Vibration    16          0.723              1.586              1.191
 Vibration    17          0.758              1.492              1.000
 Vibration    18          0.760              1.485              0.988
 Vibration    19          0.787              1.415              0.874
 Vibration    20          0.831              1.307              0.726
 Vibration    21          0.906              1.138              0.543
 Vibration    22          0.943              1.062              0.474

 Optimization completed.
    -- Stationary point found.
 Normal termination of Gaussian 16 at Fri Feb 19 07:00:07 2021.
