 Gaussian 16, Revision A.03,
 Gaussian 16:  ES64L-G16RevA.03 25-Dec-2016

 ----------------------------------------------------------------------
 # wB97XD def2tzvp, opt=(ts, noeigen, calcfc, maxcycles=70, maxstep=5),
  freq=noraman, scrf=(iefpcm, solvent=water)
 ----------------------------------------------------------------------

 ------------------------
 2_iteration/TS-628-2.out
 ------------------------
 Symbolic Z-matrix:
 Charge =  0 Multiplicity = 1

 SCF Done:  E(RwB97XD) =  -5780.61566582     A.U. after   15 cycles
 Optimization completed.
    -- Stationary point found.
 Normal termination of Gaussian 16 at Sat Feb 20 17:12:07 2021.

 ---------------------------------------------------------------------
 #N Geom=AllCheck Guess=TCheck SCRF=Check GenChk RwB97XD/def2TZVP Freq
 ---------------------------------------------------------------------

 Structure from the checkpoint file:  "/beegfs/scratch/user/q/tla25/Gau-19075.chk"
 ------------------------
 2_iteration/TS-628-2.out
 ------------------------
 Charge =  0 Multiplicity = 1

                         Standard orientation:
 ---------------------------------------------------------------------
 Center     Atomic      Atomic             Coordinates (Angstroms)
 Number     Number       Type             X           Y           Z
 ---------------------------------------------------------------------
      1          6           0        0.826998    0.592543   -0.178138
      2          6           0        0.415056    1.979542   -0.271648
      3          8           0        1.094385    2.879613   -0.729268
      4          6           0        0.021570   -0.479218    0.185112
      5          6           0        0.233359    0.384332    2.881032
      6          1           0        0.662459    0.219243    3.868602
      7          1           0        0.799607    1.164583    2.373232
      8          1           0       -0.799342    0.708911    2.979432
      9          7           0        0.298900   -0.827518    2.070522
     10          1           0        1.245671   -1.190996    2.053902
     11          1           0       -0.295459   -1.570289    2.421612
     12         35           0        0.610072   -2.273817   -0.394538
     13          6           0       -1.467160   -0.409500   -0.022058
     14          6           0       -1.901481   -0.168431   -1.326538
     15          6           0       -3.249351   -0.110873   -1.625278
     16          6           0       -4.194481   -0.300124   -0.625398
     17          6           0       -3.771860   -0.553944    0.667712
     18          6           0       -2.417320   -0.614312    0.967852
     19          1           0       -1.168621   -0.018620   -2.108818
     20          1           0       -3.563091    0.083577   -2.642868
     21          1           0       -5.250971   -0.253316   -0.855688
     22          1           0       -4.495870   -0.706435    1.457652
     23          1           0       -2.138100   -0.809561    1.991482
     24         35           0        2.709239    0.355826   -0.351178
     25          8           0       -0.815344    2.209891    0.219352
     26          6           0       -1.336756    3.520960    0.038362
     27          1           0       -2.339046    3.497208    0.458012
     28          1           0       -0.728317    4.257351    0.563022
     29          1           0       -1.380876    3.778790   -1.019858
 ---------------------------------------------------------------------

 SCF Done:  E(RwB97XD) =  -5780.61566582     A.U. after    1 cycles

 The electronic state is 1-A.
 Alpha  occ. eigenvalues -- -483.13481-483.12583 -62.68316 -62.67409 -56.47438
 Alpha  occ. eigenvalues --  -56.47080 -56.47063 -56.46525 -56.46175 -56.46164
 Alpha  occ. eigenvalues --  -19.28926 -19.22217 -14.49602 -10.41393 -10.41238
 Alpha  occ. eigenvalues --  -10.32998 -10.32094 -10.32023 -10.31994 -10.30061
 Alpha  occ. eigenvalues --  -10.29671 -10.29583 -10.29507 -10.29445  -8.82410
 Alpha  occ. eigenvalues --   -8.81520  -6.64569  -6.63666  -6.63437  -6.63382
 Alpha  occ. eigenvalues --   -6.62544  -6.62515  -2.74948  -2.74639  -2.74596
 Alpha  occ. eigenvalues --   -2.74058  -2.73731  -2.73708  -2.73679  -2.73679
 Alpha  occ. eigenvalues --   -2.72800  -2.72800  -1.20731  -1.11035  -1.05134
 Alpha  occ. eigenvalues --   -0.98506  -0.94929  -0.89559  -0.86649  -0.85929
 Alpha  occ. eigenvalues --   -0.84147  -0.79939  -0.79451  -0.73066  -0.71375
 Alpha  occ. eigenvalues --   -0.69088  -0.65301  -0.64111  -0.61742  -0.59104
 Alpha  occ. eigenvalues --   -0.57932  -0.57529  -0.56911  -0.56152  -0.54469
 Alpha  occ. eigenvalues --   -0.52883  -0.51906  -0.51503  -0.51302  -0.49172
 Alpha  occ. eigenvalues --   -0.48237  -0.47288  -0.47002  -0.45530  -0.44097
 Alpha  occ. eigenvalues --   -0.43463  -0.43294  -0.40168  -0.39243  -0.38786
 Alpha  occ. eigenvalues --   -0.37834  -0.37043  -0.35375  -0.34347  -0.32857
 Alpha  occ. eigenvalues --   -0.28491
 Alpha virt. eigenvalues --    0.00958   0.03874   0.04807   0.06683   0.09933
 Alpha virt. eigenvalues --    0.10241   0.12183   0.13543   0.14117   0.15190
 Alpha virt. eigenvalues --    0.15415   0.16212   0.16597   0.17528   0.18152

 Mulliken charges:
               1
     1  C   -0.330608
     2  C    0.439402
     3  O   -0.468257
     4  C    0.186018
     5  C   -0.287361
     6  H    0.165324
     7  H    0.155577
     8  H    0.157078
     9  N   -0.339693
    10  H    0.286843
    11  H    0.292860
    12  Br  -0.096931
    13  C    0.252242
    14  C   -0.311220
    15  C   -0.120775
    16  C   -0.145668
    17  C   -0.168342
    18  C   -0.215708
    19  H    0.160526
    20  H    0.146432
    21  H    0.146959
    22  H    0.145815
    23  H    0.140046
    24  Br  -0.116817
    25  O   -0.282194
    26  C   -0.199973
    27  H    0.141656
    28  H    0.133373
    29  H    0.133397
 Sum of Mulliken charges =  -0.00000

 Dipole moment (field-independent basis, Debye):
    X=             -6.0390    Y=             -3.1658    Z=              7.2321  Tot=              9.9396
 Quadrupole moment (field-independent basis, Debye-Ang):
   XX=           -115.4445   YY=           -126.6999   ZZ=           -100.7674
   XY=            -11.4586   XZ=              5.5636   YZ=             -1.6479

  Exact polarizability: 295.811  -1.983 248.398 -10.265 -18.332 242.833
 Approx polarizability: 231.982  -0.485 200.944  -9.793 -15.276 209.588

 ******    1 imaginary frequencies (negative Signs) ******

                      1                      2                      3
                      A                      A                      A
 Frequencies --   -343.1111                33.8199                44.3109
 Red. masses --      5.3863                 6.0655                 3.9163
 Frc consts  --      0.3736                 0.0041                 0.0045
 IR Inten    --    598.5716                 0.8401                 0.3259

                      4                      5                      6
                      A                      A                      A
 Frequencies --     48.1463                72.9142                86.7276
 Red. masses --      4.8912                 5.1366                 4.5139
 Frc consts  --      0.0067                 0.0161                 0.0200
 IR Inten    --      1.3369                 2.9646                 5.2963

                      7                      8                      9
                      A                      A                      A
 Frequencies --    102.1882               121.5464               134.1590
 Red. masses --      3.7870                 4.5174                 4.3085
 Frc consts  --      0.0233                 0.0393                 0.0457
 IR Inten    --      1.1710                 2.3780                 0.3068

                     10                     11                     12
                      A                      A                      A
 Frequencies --    150.5920               155.2087               178.1622
 Red. masses --      1.8016                 1.2181                 4.3484
 Frc consts  --      0.0241                 0.0173                 0.0813
 IR Inten    --      3.7475                 0.7027                 5.2696

                     13                     14                     15
                      A                      A                      A
 Frequencies --    185.2261               199.7244               243.5683
 Red. masses --      2.5842                 3.1482                 4.2940
 Frc consts  --      0.0522                 0.0740                 0.1501
 IR Inten    --      4.5618                 4.4763                 5.7048

                     16                     17                     18
                      A                      A                      A
 Frequencies --    263.7618               283.0284               292.6099
 Red. masses --      5.4791                 9.1331                 3.6994
 Frc consts  --      0.2246                 0.4310                 0.1866
 IR Inten    --      9.1360                 1.6757                25.7645

                     19                     20                     21
                      A                      A                      A
 Frequencies --    305.1112               373.1333               404.6653
 Red. masses --      4.0418                 5.9489                 7.3098
 Frc consts  --      0.2217                 0.4880                 0.7053
 IR Inten    --     23.5401                11.8445                 9.6825

                     22                     23                     24
                      A                      A                      A
 Frequencies --    420.9108               521.7972               554.3015
 Red. masses --      2.8818                 3.6560                 3.5868
 Frc consts  --      0.3008                 0.5865                 0.6493
 IR Inten    --      0.2778                 8.9249               130.3876

                     25                     26                     27
                      A                      A                      A
 Frequencies --    601.2123               640.1893               671.5890
 Red. masses --      3.9458                 6.4244                 2.5397
 Frc consts  --      0.8403                 1.5513                 0.6749
 IR Inten    --     36.8012                 8.9721                74.2312

                     28                     29                     30
                      A                      A                      A
 Frequencies --    713.7790               720.9247               775.8740
 Red. masses --      3.6486                 1.5773                 2.6831
 Frc consts  --      1.0952                 0.4830                 0.9516
 IR Inten    --     94.5695               157.9293                83.1441

                     31                     32                     33
                      A                      A                      A
 Frequencies --    783.4014               833.2112               861.7618
 Red. masses --      9.9128                 4.3816                 3.8143
 Frc consts  --      3.5844                 1.7922                 1.6689
 IR Inten    --     52.6357                50.9258                60.4735

                     34                     35                     36
                      A                      A                      A
 Frequencies --    868.2054               948.7297               957.2585
 Red. masses --      1.3288                 3.4473                 1.7151
 Frc consts  --      0.5901                 1.8281                 0.9260
 IR Inten    --      7.0848                20.0035                 5.0679

                     37                     38                     39
                      A                      A                      A
 Frequencies --    997.0217              1012.0373              1025.0968
 Red. masses --      1.1492                 1.3572                 5.4913
 Frc consts  --      0.6730                 0.8190                 3.3998
 IR Inten    --     37.5789                 1.1971                 2.1056

                     40                     41                     42
                      A                      A                      A
 Frequencies --   1031.9027              1063.0945              1067.0686
 Red. masses --      1.3158                 1.2167                 2.0374
 Frc consts  --      0.8255                 0.8102                 1.3668
 IR Inten    --      0.2526                85.4707                23.0261

                     43                     44                     45
                      A                      A                      A
 Frequencies --   1074.6245              1116.2361              1127.2959
 Red. masses --      5.1345                 6.9638                 1.5860
 Frc consts  --      3.4935                 5.1122                 1.1875
 IR Inten    --     42.0744               158.5675                11.5679

                     46                     47                     48
                      A                      A                      A
 Frequencies --   1179.9804              1186.7893              1202.1725
 Red. masses --      1.2820                 1.1390                 2.4086
 Frc consts  --      1.0517                 0.9452                 2.0509
 IR Inten    --      1.8558                 0.3282                94.8262

                     49                     50                     51
                      A                      A                      A
 Frequencies --   1220.1416              1222.9827              1231.0492
 Red. masses --      1.2658                 1.6012                 1.4854
 Frc consts  --      1.1103                 1.4111                 1.3263
 IR Inten    --     19.1665                38.0117                26.8210

                     52                     53                     54
                      A                      A                      A
 Frequencies --   1296.3926              1318.1999              1342.3246
 Red. masses --      7.0749                 4.5901                 1.3198
 Frc consts  --      7.0056                 4.6993                 1.4011
 IR Inten    --   1027.8915                39.0413                12.6600

                     55                     56                     57
                      A                      A                      A
 Frequencies --   1364.5609              1426.7074              1459.8814
 Red. masses --      1.4258                 3.6189                 1.4007
 Frc consts  --      1.5642                 4.3401                 1.7589
 IR Inten    --      4.9444               487.8621                63.4933

                     58                     59                     60
                      A                      A                      A
 Frequencies --   1477.9094              1481.1264              1488.0838
 Red. masses --      1.1982                 1.0444                 1.0517
 Frc consts  --      1.5419                 1.3499                 1.3721
 IR Inten    --     54.3710                12.7046                15.6943

                     61                     62                     63
                      A                      A                      A
 Frequencies --   1490.6257              1494.8438              1502.0416
 Red. masses --      2.1242                 1.0691                 1.0532
 Frc consts  --      2.7809                 1.4076                 1.4000
 IR Inten    --     44.6512                32.3095                12.5049

                     64                     65                     66
                      A                      A                      A
 Frequencies --   1544.1146              1647.1775              1656.5786
 Red. masses --      2.3202                 1.4386                 2.5543
 Frc consts  --      3.2594                 2.2997                 4.1299
 IR Inten    --     23.6084                68.1831                15.8636

                     67                     68                     69
                      A                      A                      A
 Frequencies --   1674.2273              1710.3085              3064.7117
 Red. masses --      5.6768                11.5353                 1.0306
 Frc consts  --      9.3753                19.8806                 5.7032
 IR Inten    --      2.1540               970.3709                57.8479

                     70                     71                     72
                      A                      A                      A
 Frequencies --   3074.9726              3142.5724              3151.3323
 Red. masses --      1.0336                 1.1070                 1.1047
 Frc consts  --      5.7580                 6.4412                 6.4635
 IR Inten    --     30.6121                34.3529                 7.4922

                     73                     74                     75
                      A                      A                      A
 Frequencies --   3175.5108              3178.8373              3200.0505
 Red. masses --      1.1056                 1.1052                 1.0862
 Frc consts  --      6.5689                 6.5798                 6.5535
 IR Inten    --     20.7363                12.8197                 0.4694

                     76                     77                     78
                      A                      A                      A
 Frequencies --   3207.8952              3216.4701              3225.4118
 Red. masses --      1.0894                 1.0938                 1.0981
 Frc consts  --      6.6048                 6.6675                 6.7310
 IR Inten    --      4.2108                20.4160                20.1666

                     79                     80                     81
                      A                      A                      A
 Frequencies --   3252.5218              3519.5951              3595.8228
 Red. masses --      1.0916                 1.0516                 1.0956
 Frc consts  --      6.8039                 7.6749                 8.3463
 IR Inten    --     16.3478                47.6644                52.2384

 - Thermochemistry -
 -------------------
 Temperature   298.150 Kelvin.  Pressure   1.00000 Atm.
 Atom     1 has atomic number  6 and mass  12.00000

 Molecular mass:   348.93130 amu.
 Principal axes and moments of inertia in atomic units:
                           1         2         3
     Eigenvalues --  4391.971426131.924538201.12210
           X            0.99963  -0.02175   0.01650
           Y            0.02199   0.99965  -0.01496
           Z           -0.01616   0.01532   0.99975
 This molecule is an asymmetric top.
 Rotational symmetry number  1.
 Warning -- assumption of classical behavior for rotation
           may cause significant error
 Rotational temperatures (Kelvin)      0.01972     0.01413     0.01056
 Rotational constants (GHZ):           0.41092     0.29432     0.22006
    1 imaginary frequencies ignored.
 Zero-point vibrational energy     590297.6 (Joules/Mol)
                                  141.08451 (Kcal/Mol)
 Warning -- explicit consideration of  24 degrees of freedom as
           vibrations may cause significant error
 Vibrational temperatures:     48.66    63.75    69.27   104.91   124.78
          (Kelvin)            147.03   174.88   193.02   216.67   223.31
                              256.34   266.50   287.36   350.44   379.49
                              407.21   421.00   438.99   536.86   582.22
                              605.60   750.75   797.52   865.01   921.09
                              966.27  1026.97  1037.25  1116.31  1127.14
                             1198.81  1239.88  1249.15  1365.01  1377.28
                             1434.49  1456.10  1474.89  1484.68  1529.56
                             1535.27  1546.14  1606.01  1621.93  1697.73
                             1707.53  1729.66  1755.51  1759.60  1771.21
                             1865.22  1896.60  1931.31  1963.30  2052.71
                             2100.44  2126.38  2131.01  2141.02  2144.68
                             2150.75  2161.10  2221.64  2369.92  2383.45
                             2408.84  2460.75  4409.44  4424.20  4521.46
                             4534.06  4568.85  4573.64  4604.16  4615.45
                             4627.78  4640.65  4679.65  5063.91  5173.59

 Zero-point correction=                           0.224832 (Hartree/Particle)
 Thermal correction to Energy=                    0.242004
 Thermal correction to Enthalpy=                  0.242949
 Thermal correction to Gibbs Free Energy=         0.177454
 Sum of electronic and zero-point Energies=          -5780.390833
 Sum of electronic and thermal Energies=             -5780.373661
 Sum of electronic and thermal Enthalpies=           -5780.372717
 Sum of electronic and thermal Free Energies=        -5780.438212

                     E (Thermal)             CV                S
                      KCal/Mol        Cal/Mol-Kelvin    Cal/Mol-Kelvin
 Total                  151.860             60.197            137.846
 Electronic               0.000              0.000              0.000
 Translational            0.889              2.981             43.443
 Rotational               0.889              2.981             33.757
 Vibrational            150.083             54.236             60.646
 Vibration     1          0.594              1.983              5.592
 Vibration     2          0.595              1.980              5.056
 Vibration     3          0.595              1.978              4.892
 Vibration     4          0.599              1.967              4.073
 Vibration     5          0.601              1.958              3.733
 Vibration     6          0.604              1.947              3.412
 Vibration     7          0.609              1.931              3.076
 Vibration     8          0.613              1.919              2.886
 Vibration     9          0.618              1.902              2.665
 Vibration    10          0.620              1.897              2.607
 Vibration    11          0.629              1.869              2.348
 Vibration    12          0.631              1.860              2.275
 Vibration    13          0.638              1.840              2.136
 Vibration    14          0.659              1.773              1.777
 Vibration    15          0.670              1.739              1.637
 Vibration    16          0.682              1.705              1.515
 Vibration    17          0.688              1.688              1.459
 Vibration    18          0.696              1.664              1.389
 Vibration    19          0.745              1.527              1.067
 Vibration    20          0.770              1.460              0.946
 Vibration    21          0.783              1.425              0.889
 Vibration    22          0.877              1.202              0.606
 Vibration    23          0.910              1.130              0.535
 Vibration    24          0.959              1.029              0.448

 Optimization completed.
    -- Stationary point found.
 Normal termination of Gaussian 16 at Sat Feb 20 18:32:22 2021.
