 Gaussian 16, Revision A.03,
 Gaussian 16:  ES64L-G16RevA.03 25-Dec-2016

 ----------------------------------------------------------------------
 # wB97XD def2tzvp, opt=(ts, noeigen, calcfc, maxcycles=70, maxstep=1),
  freq=noraman, scrf=(iefpcm, solvent=water)
 ----------------------------------------------------------------------

 ------------------------
 0_iteration/TS-650-0.out
 ------------------------
 Symbolic Z-matrix:
 Charge =  0 Multiplicity = 1

 SCF Done:  E(RwB97XD) =  -2900.71957478     A.U. after   15 cycles
 SCF Done:  E(RwB97XD) =  -2900.71953192     A.U. after   10 cycles
 SCF Done:  E(RwB97XD) =  -2900.71949484     A.U. after   10 cycles
 SCF Done:  E(RwB97XD) =  -2900.71946409     A.U. after   10 cycles
 SCF Done:  E(RwB97XD) =  -2900.71944085     A.U. after   10 cycles
 SCF Done:  E(RwB97XD) =  -2900.71942655     A.U. after   10 cycles
 SCF Done:  E(RwB97XD) =  -2900.71942313     A.U. after   10 cycles
 SCF Done:  E(RwB97XD) =  -2900.71943137     A.U. after   10 cycles
 SCF Done:  E(RwB97XD) =  -2900.71944940     A.U. after   10 cycles
 SCF Done:  E(RwB97XD) =  -2900.71947600     A.U. after   10 cycles
 SCF Done:  E(RwB97XD) =  -2900.72102222     A.U. after   10 cycles
 SCF Done:  E(RwB97XD) =  -2900.72102608     A.U. after   10 cycles
 SCF Done:  E(RwB97XD) =  -2900.72102560     A.U. after   10 cycles
 SCF Done:  E(RwB97XD) =  -2900.72102576     A.U. after    6 cycles
 SCF Done:  E(RwB97XD) =  -2900.72102591     A.U. after    7 cycles
 SCF Done:  E(RwB97XD) =  -2900.72102584     A.U. after    7 cycles
 SCF Done:  E(RwB97XD) =  -2900.72102552     A.U. after    9 cycles
 SCF Done:  E(RwB97XD) =  -2900.72102594     A.U. after    9 cycles
 SCF Done:  E(RwB97XD) =  -2900.72102585     A.U. after    6 cycles
 Optimization completed.
    -- Stationary point found.
 Normal termination of Gaussian 16 at Thu Feb 18 19:45:04 2021.

 ---------------------------------------------------------------------
 #N Geom=AllCheck Guess=TCheck SCRF=Check GenChk RwB97XD/def2TZVP Freq
 ---------------------------------------------------------------------

 Structure from the checkpoint file:  "/beegfs/scratch/user/q/tla25/Gau-15075.chk"
 ------------------------
 0_iteration/TS-650-0.out
 ------------------------
 Charge =  0 Multiplicity = 1

                         Standard orientation:
 ---------------------------------------------------------------------
 Center     Atomic      Atomic             Coordinates (Angstroms)
 Number     Number       Type             X           Y           Z
 ---------------------------------------------------------------------
      1          6           0       -1.109896   -0.605792   -0.431909
      2          6           0       -2.464133   -0.308038   -0.088854
      3          8           0       -3.416937   -0.839871   -0.670550
      4          6           0       -0.033265    0.004509    0.176582
      5          6           0        1.374048    2.540882   -0.002736
      6          1           0        1.550191    3.461243   -0.560182
      7          1           0        0.912998    2.787113    0.952850
      8          1           0        2.326099    2.046224    0.179286
      9          7           0        0.495242    1.628519   -0.731786
     10          1           0       -0.402805    2.053197   -0.933336
     11          1           0        0.899706    1.331691   -1.613109
     12         35           0        1.658510   -0.920908    0.130197
     13          1           0       -0.147083    0.510717    1.125577
     14          1           0       -0.947067   -1.296944   -1.249233
     15          6           0       -2.749486    0.680113    1.029770
     16          1           0       -2.365321    1.673676    0.788866
     17          1           0       -3.825238    0.748328    1.176115
     18          1           0       -2.284114    0.365832    1.966036
 ---------------------------------------------------------------------

 SCF Done:  E(RwB97XD) =  -2900.72102585     A.U. after    1 cycles

 The electronic state is 1-A.
 Alpha  occ. eigenvalues -- -483.13404 -62.68268 -56.47375 -56.47031 -56.47018
 Alpha  occ. eigenvalues --  -19.20435 -14.48742 -10.38739 -10.35396 -10.32032
 Alpha  occ. eigenvalues --  -10.27401 -10.25502  -8.82391  -6.64528  -6.63428
 Alpha  occ. eigenvalues --   -6.63383  -2.74919  -2.74606  -2.74571  -2.73681
 Alpha  occ. eigenvalues --   -2.73681  -1.11040  -1.04145  -0.93076  -0.86036
 Alpha  occ. eigenvalues --   -0.80935  -0.78991  -0.71096  -0.63696  -0.62135
 Alpha  occ. eigenvalues --   -0.57204  -0.55522  -0.54565  -0.53085  -0.51578
 Alpha  occ. eigenvalues --   -0.48629  -0.47712  -0.47178  -0.46055  -0.44952
 Alpha  occ. eigenvalues --   -0.42990  -0.37976  -0.37370  -0.32114  -0.28323
 Alpha virt. eigenvalues --    0.04001   0.06247   0.09993   0.13441   0.14013
 Alpha virt. eigenvalues --    0.14748   0.15772   0.17048   0.18520   0.19034
 Alpha virt. eigenvalues --    0.19328   0.20245   0.21658   0.23437   0.24531

 Mulliken charges:
               1
     1  C   -0.356621
     2  C    0.262273
     3  O   -0.517667
     4  C   -0.054973
     5  C   -0.269832
     6  H    0.156078
     7  H    0.152445
     8  H    0.150231
     9  N   -0.319607
    10  H    0.277354
    11  H    0.284259
    12  Br  -0.099365
    13  H    0.189955
    14  H    0.127230
    15  C   -0.390569
    16  H    0.135397
    17  H    0.126174
    18  H    0.147238
 Sum of Mulliken charges =  -0.00000

 Dipole moment (field-independent basis, Debye):
    X=              6.8803    Y=              8.1918    Z=              0.7674  Tot=             10.7253
 Quadrupole moment (field-independent basis, Debye-Ang):
   XX=            -85.3399   YY=            -54.7114   ZZ=            -59.3546
   XY=             -5.6323   XZ=             -9.0777   YZ=             -3.6613

  Exact polarizability: 186.633  17.442 132.332   4.362   4.160 101.944
 Approx polarizability: 137.322  10.437 106.703   5.036   3.226  89.322

 ******    1 imaginary frequencies (negative Signs) ******

                      1                      2                      3
                      A                      A                      A
 Frequencies --   -367.8646                51.1957                87.1029
 Red. masses --      6.2890                 2.3204                 4.4998
 Frc consts  --      0.5014                 0.0036                 0.0201
 IR Inten    --    970.4665                 2.7502                 7.2865

                      4                      5                      6
                      A                      A                      A
 Frequencies --    101.1461               110.4465               153.1287
 Red. masses --      2.0242                 1.2394                 1.6068
 Frc consts  --      0.0122                 0.0089                 0.0222
 IR Inten    --      2.2755                 0.6533                 1.7040

                      7                      8                      9
                      A                      A                      A
 Frequencies --    156.2122               198.4027               255.2158
 Red. masses --      3.7168                 2.0866                 6.6574
 Frc consts  --      0.0534                 0.0484                 0.2555
 IR Inten    --      7.0386                 1.1782                 1.3297

                     10                     11                     12
                      A                      A                      A
 Frequencies --    287.1823               422.3706               478.5404
 Red. masses --      3.0219                 4.6362                 3.2354
 Frc consts  --      0.1468                 0.4873                 0.4365
 IR Inten    --      6.2552               159.4991                 8.1124

                     13                     14                     15
                      A                      A                      A
 Frequencies --    560.3140               580.7454               639.8126
 Red. masses --      3.8854                 1.8927                 1.5836
 Frc consts  --      0.7187                 0.3761                 0.3820
 IR Inten    --     43.2130                 2.3321                 4.7350

                     16                     17                     18
                      A                      A                      A
 Frequencies --    763.2117               767.1697               837.3407
 Red. masses --      1.7601                 1.9061                 3.5662
 Frc consts  --      0.6040                 0.6610                 1.4732
 IR Inten    --    137.2660               230.6486                 6.3097

                     19                     20                     21
                      A                      A                      A
 Frequencies --   1002.6337              1010.0355              1032.6768
 Red. masses --      1.0974                 1.5078                 1.2127
 Frc consts  --      0.6500                 0.9063                 0.7619
 IR Inten    --     13.6056               210.5895                58.1504

                     22                     23                     24
                      A                      A                      A
 Frequencies --   1045.5399              1072.1270              1151.7998
 Red. masses --      1.6529                 4.2767                 1.1120
 Frc consts  --      1.0646                 2.8964                 0.8692
 IR Inten    --      5.2295               124.9583                65.2626

                     25                     26                     27
                      A                      A                      A
 Frequencies --   1221.9100              1225.0494              1271.6526
 Red. masses --      1.1805                 1.4108                 1.3753
 Frc consts  --      1.0385                 1.2475                 1.3104
 IR Inten    --    153.0441                15.7534               170.3387

                     28                     29                     30
                      A                      A                      A
 Frequencies --   1318.9516              1339.2969              1395.9365
 Red. masses --      3.3793                 1.3257                 1.5072
 Frc consts  --      3.4636                 1.4011                 1.7304
 IR Inten    --    157.6677                 0.2092                82.9617

                     31                     32                     33
                      A                      A                      A
 Frequencies --   1457.6156              1466.5913              1478.6534
 Red. masses --      1.3693                 1.0704                 2.0172
 Frc consts  --      1.7141                 1.3564                 2.5986
 IR Inten    --    276.2681                33.2316               663.1103

                     34                     35                     36
                      A                      A                      A
 Frequencies --   1480.6549              1491.2790              1506.3591
 Red. masses --      1.1469                 1.0417                 1.0448
 Frc consts  --      1.4815                 1.3649                 1.3968
 IR Inten    --    177.1786                18.4151                 8.5158

                     37                     38                     39
                      A                      A                      A
 Frequencies --   1640.2470              1649.7203              3057.5244
 Red. masses --      1.1016                 7.8293                 1.0376
 Frc consts  --      1.7461                12.5543                 5.7148
 IR Inten    --    111.3958               954.2612                 8.4097

                     40                     41                     42
                      A                      A                      A
 Frequencies --   3068.8664              3125.3207              3146.6759
 Red. masses --      1.0336                 1.1005                 1.1051
 Frc consts  --      5.7353                 6.3331                 6.4471
 IR Inten    --     43.9972                18.8199                14.5924

                     43                     44                     45
                      A                      A                      A
 Frequencies --   3162.4940              3167.6666              3199.2480
 Red. masses --      1.1024                 1.1053                 1.0908
 Frc consts  --      6.4959                 6.5344                 6.5777
 IR Inten    --     28.1006                11.8193                 4.5698

                     46                     47                     48
                      A                      A                      A
 Frequencies --   3210.8202              3518.5107              3603.0213
 Red. masses --      1.0905                 1.0508                 1.0967
 Frc consts  --      6.6236                 7.6649                 8.3882
 IR Inten    --      4.9596                24.7364                45.5509

 - Thermochemistry -
 -------------------
 Temperature   298.150 Kelvin.  Pressure   1.00000 Atm.
 Atom     1 has atomic number  6 and mass  12.00000

 Molecular mass:   178.99458 amu.
 Principal axes and moments of inertia in atomic units:
                           1         2         3
     Eigenvalues --  1002.937872457.803603141.57196
           X            0.99882   0.04419  -0.02028
           Y           -0.04389   0.99892   0.01514
           Z            0.02092  -0.01424   0.99968
 This molecule is an asymmetric top.
 Rotational symmetry number  1.
 Warning -- assumption of classical behavior for rotation
           may cause significant error
 Rotational temperatures (Kelvin)      0.08636     0.03524     0.02757
 Rotational constants (GHZ):           1.79945     0.73429     0.57447
    1 imaginary frequencies ignored.
 Zero-point vibrational energy     388597.4 (Joules/Mol)
                                   92.87701 (Kcal/Mol)
 Warning -- explicit consideration of  13 degrees of freedom as
           vibrations may cause significant error
 Vibrational temperatures:     73.66   125.32   145.53   158.91   220.32
          (Kelvin)            224.75   285.46   367.20   413.19   607.70
                              688.51   806.17   835.56   920.55  1098.09
                             1103.79  1204.75  1442.57  1453.22  1485.79
                             1504.30  1542.55  1657.18  1758.06  1762.57
                             1829.62  1897.68  1926.95  2008.44  2097.18
                             2110.10  2127.45  2130.33  2145.62  2167.31
                             2359.95  2373.58  4399.10  4415.41  4496.64
                             4527.36  4550.12  4557.57  4603.00  4619.65
                             5062.35  5183.94

 Zero-point correction=                           0.148009 (Hartree/Particle)
 Thermal correction to Energy=                    0.158190
 Thermal correction to Enthalpy=                  0.159134
 Thermal correction to Gibbs Free Energy=         0.110671
 Sum of electronic and zero-point Energies=          -2900.573017
 Sum of electronic and thermal Energies=             -2900.562836
 Sum of electronic and thermal Enthalpies=           -2900.561892
 Sum of electronic and thermal Free Energies=        -2900.610355

                     E (Thermal)             CV                S
                      KCal/Mol        Cal/Mol-Kelvin    Cal/Mol-Kelvin
 Total                   99.266             34.192            101.999
 Electronic               0.000              0.000              0.000
 Translational            0.889              2.981             41.453
 Rotational               0.889              2.981             30.427
 Vibrational             97.488             28.230             30.119
 Vibration     1          0.595              1.977              4.771
 Vibration     2          0.601              1.958              3.724
 Vibration     3          0.604              1.948              3.432
 Vibration     4          0.606              1.941              3.261
 Vibration     5          0.619              1.899              2.633
 Vibration     6          0.620              1.896              2.595
 Vibration     7          0.637              1.842              2.148
 Vibration     8          0.666              1.754              1.694
 Vibration     9          0.684              1.698              1.491
 Vibration    10          0.785              1.422              0.884
 Vibration    11          0.835              1.298              0.714
 Vibration    12          0.916              1.117              0.523
 Vibration    13          0.937              1.073              0.484

 Optimization completed.
    -- Stationary point found.
 Normal termination of Gaussian 16 at Thu Feb 18 19:52:04 2021.
