 Gaussian 16, Revision A.03,
 Gaussian 16:  ES64L-G16RevA.03 25-Dec-2016

 ----------------------------------------------------------------------
 # wB97XD def2tzvp, opt=(ts, noeigen, calcfc, maxcycles=70, maxstep=3),
  freq=noraman, scrf=(iefpcm, solvent=water)
 ----------------------------------------------------------------------

 ------------------------
 3_iteration/TS-631-3.out
 ------------------------
 Symbolic Z-matrix:
 Charge =  0 Multiplicity = 1

 SCF Done:  E(RwB97XD) =  -5952.49008685     A.U. after   15 cycles
 Optimization completed.
    -- Stationary point found.
 Normal termination of Gaussian 16 at Sun Feb 21 00:55:25 2021.

 ---------------------------------------------------------------------
 #N Geom=AllCheck Guess=TCheck SCRF=Check GenChk RwB97XD/def2TZVP Freq
 ---------------------------------------------------------------------

 Structure from the checkpoint file:  "/beegfs/scratch/user/q/tla25/Gau-5979.chk"
 ------------------------
 3_iteration/TS-631-3.out
 ------------------------
 Charge =  0 Multiplicity = 1

                         Standard orientation:
 ---------------------------------------------------------------------
 Center     Atomic      Atomic             Coordinates (Angstroms)
 Number     Number       Type             X           Y           Z
 ---------------------------------------------------------------------
      1          6           0       -0.897000   -0.897490   -0.042810
      2          6           0        0.458700   -1.449660   -0.122360
      3          8           0        0.693379   -2.520330   -0.670710
      4          6           0       -1.282510    0.420271    0.147930
      5          6           0       -1.107660    0.006900    2.926370
      6          1           0       -1.660310   -0.216949    3.837280
      7          1           0       -0.701660   -0.920720    2.520430
      8          1           0       -0.289200    0.683560    3.159610
      9          7           0       -1.979040    0.599241    1.916050
     10          1           0       -2.833640    0.059271    1.828150
     11          1           0       -2.254080    1.551331    2.133610
     12         35           0       -2.976160    1.011881   -0.732200
     13          6           0       -0.283740    1.528010   -0.050000
     14          6           0        0.343480    1.596240   -1.297240
     15          6           0        1.282640    2.573040   -1.563720
     16          6           0        1.610330    3.511500   -0.593040
     17          6           0        0.984660    3.461670    0.639090
     18          6           0        0.039760    2.479180    0.909660
     19          1           0        0.092510    0.866640   -2.056010
     20          1           0        1.762480    2.601600   -2.533210
     21          1           0        2.348661    4.275140   -0.799480
     22          1           0        1.226940    4.186750    1.404760
     23          1           0       -0.419550    2.479000    1.885800
     24         35           0       -2.248291   -2.240729   -0.140230
     25          7           0        1.460140   -0.720910    0.477720
     26          6           0        2.839240   -0.782310    0.233000
     27          6           0        3.494909   -1.909790   -0.258420
     28          6           0        4.868409   -1.871291   -0.457890
     29          6           0        5.605380   -0.734451   -0.165460
     30          6           0        4.950980    0.384339    0.333450
     31          6           0        3.582040    0.363750    0.527340
     32          1           0        1.176040    0.121460    0.945490
     33          1           0        2.931189   -2.801180   -0.479480
     34          1           0        5.365849   -2.753021   -0.842850
     35          1           0        6.676110   -0.718891   -0.321800
     36          1           0        5.507290    1.283499    0.566760
     37          1           0        3.074700    1.247070    0.899830
 ---------------------------------------------------------------------

 SCF Done:  E(RwB97XD) =  -5952.49008685     A.U. after    1 cycles

 The electronic state is 1-A.
 Alpha  occ. eigenvalues -- -483.13225-483.12562 -62.68058 -62.67384 -56.47176
 Alpha  occ. eigenvalues --  -56.46824 -56.46809 -56.46498 -56.46151 -56.46142
 Alpha  occ. eigenvalues --  -19.21481 -14.50319 -14.46792 -10.41602 -10.40033
 Alpha  occ. eigenvalues --  -10.33873 -10.32749 -10.32581 -10.31992 -10.30907
 Alpha  occ. eigenvalues --  -10.30406 -10.30200 -10.30106 -10.30046 -10.29156
 Alpha  occ. eigenvalues --  -10.29015 -10.29004 -10.28460 -10.28454  -8.82147
 Alpha  occ. eigenvalues --   -8.81492  -6.64290  -6.63629  -6.63179  -6.63131
 Alpha  occ. eigenvalues --   -6.62519  -6.62493  -2.74667  -2.74368  -2.74329
 Alpha  occ. eigenvalues --   -2.74023  -2.73698  -2.73678  -2.73430  -2.73430
 Alpha  occ. eigenvalues --   -2.72779  -2.72779  -1.14702  -1.05879  -1.04595
 Alpha  occ. eigenvalues --   -0.99058  -0.95891  -0.94687  -0.89474  -0.86924
 Alpha  occ. eigenvalues --   -0.86597  -0.85337  -0.85165  -0.81453  -0.80037
 Alpha  occ. eigenvalues --   -0.75182  -0.72181  -0.71999  -0.71311  -0.68394
 Alpha  occ. eigenvalues --   -0.65955  -0.65169  -0.63015  -0.61733  -0.59277
 Alpha  occ. eigenvalues --   -0.58414  -0.58132  -0.57180  -0.55132  -0.54436
 Alpha  occ. eigenvalues --   -0.53568  -0.53177  -0.52575  -0.52095  -0.51907
 Alpha  occ. eigenvalues --   -0.51236  -0.50413  -0.49141  -0.47897  -0.47576
 Alpha  occ. eigenvalues --   -0.46707  -0.45854  -0.44820  -0.43874  -0.43768
 Alpha  occ. eigenvalues --   -0.42952  -0.40536  -0.39703  -0.39013  -0.37792
 Alpha  occ. eigenvalues --   -0.36414  -0.35270  -0.34767  -0.33777  -0.33680
 Alpha  occ. eigenvalues --   -0.30631  -0.27964
 Alpha virt. eigenvalues --    0.00084   0.03400   0.04059   0.05241   0.05540
 Alpha virt. eigenvalues --    0.07186   0.09788   0.10156   0.12293   0.13406
 Alpha virt. eigenvalues --    0.13734   0.13987   0.15269   0.15488   0.15813

 Mulliken charges:
               1
     1  C   -0.261239
     2  C    0.353272
     3  O   -0.492228
     4  C    0.180623
     5  C   -0.319872
     6  H    0.173989
     7  H    0.161836
     8  H    0.167049
     9  N   -0.309753
    10  H    0.291018
    11  H    0.298716
    12  Br  -0.117076
    13  C    0.034201
    14  C   -0.262790
    15  C   -0.096119
    16  C   -0.160316
    17  C   -0.146660
    18  C   -0.170453
    19  H    0.165484
    20  H    0.149332
    21  H    0.148483
    22  H    0.148382
    23  H    0.142028
    24  Br  -0.124172
    25  N   -0.217917
    26  C    0.295698
    27  C   -0.319168
    28  C   -0.098855
    29  C   -0.187042
    30  C   -0.121280
    31  C   -0.299756
    32  H    0.253837
    33  H    0.153662
    34  H    0.142191
    35  H    0.140713
    36  H    0.141364
    37  H    0.162817
 Sum of Mulliken charges =   0.00000

 Dipole moment (field-independent basis, Debye):
    X=             -0.5680    Y=              9.4833    Z=              7.7297  Tot=             12.2476
 Quadrupole moment (field-independent basis, Debye-Ang):
   XX=           -141.3317   YY=           -152.8758   ZZ=           -132.8660
   XY=              5.1078   XZ=            -14.3286   YZ=              3.2167

  Exact polarizability: 415.157  19.860 363.648 -15.221  33.233 282.678
 Approx polarizability: 312.541  15.351 297.513 -12.230  30.996 249.631

 ******    1 imaginary frequencies (negative Signs) ******

                      1                      2                      3
                      A                      A                      A
 Frequencies --   -359.6798                20.1073                30.8410
 Red. masses --      5.3928                 4.4820                 6.0364
 Frc consts  --      0.4111                 0.0011                 0.0034
 IR Inten    --    578.5398                 0.0789                 1.2555

                      4                      5                      6
                      A                      A                      A
 Frequencies --     41.1439                58.7625                60.9039
 Red. masses --      6.0127                 3.9235                 8.9992
 Frc consts  --      0.0060                 0.0080                 0.0197
 IR Inten    --      0.2773                 0.7244                15.5945

                      7                      8                      9
                      A                      A                      A
 Frequencies --     80.8862                89.5264               118.5380
 Red. masses --      6.6457                 5.3090                 5.1648
 Frc consts  --      0.0256                 0.0251                 0.0428
 IR Inten    --      0.1321                 2.0422                 2.8475

                     10                     11                     12
                      A                      A                      A
 Frequencies --    128.7258               135.7079               162.3348
 Red. masses --      4.9320                 6.7812                 3.2456
 Frc consts  --      0.0482                 0.0736                 0.0504
 IR Inten    --      0.1565                 0.5390                 3.7780

                     13                     14                     15
                      A                      A                      A
 Frequencies --    168.3568               187.3236               217.5660
 Red. masses --      2.6983                 2.2069                 7.4257
 Frc consts  --      0.0451                 0.0456                 0.2071
 IR Inten    --      8.6714                 8.4073                 8.9263

                     16                     17                     18
                      A                      A                      A
 Frequencies --    230.3202               253.1151               270.3130
 Red. masses --      2.5401                 5.1835                 4.4235
 Frc consts  --      0.0794                 0.1957                 0.1904
 IR Inten    --     10.9912                 4.3275                 6.9274

                     19                     20                     21
                      A                      A                      A
 Frequencies --    277.0005               304.3461               352.6239
 Red. masses --      4.7690                 3.6783                 6.8408
 Frc consts  --      0.2156                 0.2007                 0.5012
 IR Inten    --      2.1093                16.3448                 5.8217

                     22                     23                     24
                      A                      A                      A
 Frequencies --    368.1474               382.0114               420.7972
 Red. masses --      5.5323                 8.1036                 2.8610
 Frc consts  --      0.4418                 0.6968                 0.2985
 IR Inten    --     15.9319                13.2536                 0.4020

                     25                     26                     27
                      A                      A                      A
 Frequencies --    425.5937               524.6455               529.3157
 Red. masses --      2.9729                 3.5552                 2.9252
 Frc consts  --      0.3173                 0.5766                 0.4829
 IR Inten    --      0.0634                 9.6440                20.1116

                     28                     29                     30
                      A                      A                      A
 Frequencies --    546.4758               573.5326               603.4450
 Red. masses --      4.4865                 5.9925                 3.6868
 Frc consts  --      0.7894                 1.1614                 0.7910
 IR Inten    --    126.4506                40.4679                13.7083

                     31                     32                     33
                      A                      A                      A
 Frequencies --    613.0581               636.1443               639.3113
 Red. masses --      1.2373                 5.9279                 6.0078
 Frc consts  --      0.2740                 1.4134                 1.4467
 IR Inten    --    141.8095                 6.4101                17.4135

                     34                     35                     36
                      A                      A                      A
 Frequencies --    674.0495               718.6636               720.7994
 Red. masses --      2.3054                 2.5911                 1.8488
 Frc consts  --      0.6171                 0.7885                 0.5660
 IR Inten    --     81.9984                14.8444                28.5164

                     37                     38                     39
                      A                      A                      A
 Frequencies --    729.2806               756.6791               777.0237
 Red. masses --      1.9230                 6.7821                 3.6328
 Frc consts  --      0.6026                 2.2879                 1.2923
 IR Inten    --    435.9384                 5.1210                53.3253

                     40                     41                     42
                      A                      A                      A
 Frequencies --    786.7970               822.6918               863.4924
 Red. masses --      1.9506                 3.2778                 1.5443
 Frc consts  --      0.7115                 1.3071                 0.6784
 IR Inten    --     83.8244                19.3091                18.2082

                     43                     44                     45
                      A                      A                      A
 Frequencies --    867.9675               872.4864               899.3846
 Red. masses --      2.6086                 1.3138                 5.0631
 Frc consts  --      1.1579                 0.5892                 2.4130
 IR Inten    --     31.1911                 5.0708                34.0590

                     46                     47                     48
                      A                      A                      A
 Frequencies --    939.3296               962.7388              1000.9124
 Red. masses --      1.4955                 1.4688                 1.1596
 Frc consts  --      0.7774                 0.8021                 0.6844
 IR Inten    --     18.7985                 0.6282                22.1271

                     49                     50                     51
                      A                      A                      A
 Frequencies --   1005.0132              1018.6565              1021.0621
 Red. masses --      1.3512                 1.3852                 1.3767
 Frc consts  --      0.8041                 0.8469                 0.8457
 IR Inten    --      0.2426                 0.9756                 1.0015

                     52                     53                     54
                      A                      A                      A
 Frequencies --   1021.7327              1024.9781              1039.5470
 Red. masses --      4.5347                 5.3435                 1.6572
 Frc consts  --      2.7891                 3.3075                 1.0551
 IR Inten    --      1.1521                 1.3065                 4.1251

                     55                     56                     57
                      A                      A                      A
 Frequencies --   1039.9815              1064.9932              1068.4934
 Red. masses --      2.7429                 2.1737                 1.8399
 Frc consts  --      1.7479                 1.4526                 1.2377
 IR Inten    --     14.7721                14.5851                21.0962

                     58                     59                     60
                      A                      A                      A
 Frequencies --   1073.5046              1077.7606              1123.9722
 Red. masses --      4.8239                 1.2817                 1.5453
 Frc consts  --      3.2753                 0.8771                 1.1502
 IR Inten    --     74.1781                80.2957                16.0816

                     61                     62                     63
                      A                      A                      A
 Frequencies --   1128.2816              1183.0948              1189.5916
 Red. masses --      1.5848                 1.1236                 1.1403
 Frc consts  --      1.1887                 0.9266                 0.9508
 IR Inten    --      9.8364                 4.4350                 0.4252

                     64                     65                     66
                      A                      A                      A
 Frequencies --   1207.2559              1211.6471              1223.0498
 Red. masses --      2.8683                 1.2233                 1.1316
 Frc consts  --      2.4631                 1.0581                 0.9973
 IR Inten    --     67.9916                52.8050                 2.6597

                     67                     68                     69
                      A                      A                      A
 Frequencies --   1236.0355              1257.3557              1278.7879
 Red. masses --      1.4181                 3.5610                 3.3337
 Frc consts  --      1.2765                 3.3170                 3.2120
 IR Inten    --     38.7730               952.7332                38.9652

                     70                     71                     72
                      A                      A                      A
 Frequencies --   1318.5835              1343.0038              1344.7502
 Red. masses --      4.5909                 1.3507                 3.5698
 Frc consts  --      4.7029                 1.4354                 3.8034
 IR Inten    --     25.5791                40.9257               409.1457

                     73                     74                     75
                      A                      A                      A
 Frequencies --   1363.8085              1366.6328              1431.9069
 Red. masses --      1.5710                 1.4350                 4.0706
 Frc consts  --      1.7217                 1.5791                 4.9174
 IR Inten    --      8.7988                 6.7160               514.4956

                     76                     77                     78
                      A                      A                      A
 Frequencies --   1468.6623              1479.0389              1491.0353
 Red. masses --      1.3131                 2.0946                 2.2188
 Frc consts  --      1.6688                 2.6997                 2.9063
 IR Inten    --     59.8160               189.5609                58.6028

                     79                     80                     81
                      A                      A                      A
 Frequencies --   1499.3584              1507.3803              1542.8706
 Red. masses --      1.0405                 1.0375                 2.2897
 Frc consts  --      1.3782                 1.3890                 3.2114
 IR Inten    --     28.8730                14.8274                98.6558

                     82                     83                     84
                      A                      A                      A
 Frequencies --   1547.1033              1569.6937              1644.3562
 Red. masses --      2.4065                 1.9798                 1.3300
 Frc consts  --      3.3936                 2.8740                 2.1189
 IR Inten    --    145.2510               437.4764                81.0898

                     85                     86                     87
                      A                      A                      A
 Frequencies --   1654.3423              1663.1968              1672.6710
 Red. masses --      2.9449                 5.9413                 5.6505
 Frc consts  --      4.7486                 9.6832                 9.3144
 IR Inten    --     12.3601               138.1312                 0.3807

                     88                     89                     90
                      A                      A                      A
 Frequencies --   1672.9643              1693.4085              3073.0040
 Red. masses --      4.8436                 6.7500                 1.0341
 Frc consts  --      7.9871                11.4045                 5.7537
 IR Inten    --     61.6713               687.2601                26.6444

                     91                     92                     93
                      A                      A                      A
 Frequencies --   3151.1289              3176.7103              3186.9238
 Red. masses --      1.1032                 1.1058                 1.0885
 Frc consts  --      6.4540                 6.5747                 6.5137
 IR Inten    --      5.3880                12.9866                 7.6977

                     94                     95                     96
                      A                      A                      A
 Frequencies --   3198.3470              3204.9549              3207.8267
 Red. masses --      1.0880                 1.0867                 1.0930
 Frc consts  --      6.5572                 6.5764                 6.6268
 IR Inten    --      2.3420                 0.4136                26.5173

                     97                     98                     99
                      A                      A                      A
 Frequencies --   3212.4932              3220.6924              3222.2996
 Red. masses --      1.0895                 1.0940                 1.0980
 Frc consts  --      6.6246                 6.6861                 6.7170
 IR Inten    --      2.9582                13.8404                24.4258

                    100                    101                    102
                      A                      A                      A
 Frequencies --   3229.4660              3253.0939              3274.2823
 Red. masses --      1.0982                 1.0922                 1.0920
 Frc consts  --      6.7481                 6.8102                 6.8978
 IR Inten    --     16.7799                12.2401                 3.0457

                    103                    104                    105
                      A                      A                      A
 Frequencies --   3514.2976              3589.1383              3660.9932
 Red. masses --      1.0518                 1.0959                 1.0759
 Frc consts  --      7.6537                 8.3175                 8.4960
 IR Inten    --     57.0114                60.7621                83.5763

 - Thermochemistry -
 -------------------
 Temperature   298.150 Kelvin.  Pressure   1.00000 Atm.
 Atom     1 has atomic number  6 and mass  12.00000

 Molecular mass:   409.96294 amu.
 Principal axes and moments of inertia in atomic units:
                           1         2         3
     Eigenvalues --  5892.40976********************
           X            0.99979  -0.00973  -0.01821
           Y            0.00996   0.99987   0.01266
           Z            0.01809  -0.01284   0.99975
 This molecule is an asymmetric top.
 Rotational symmetry number  1.
 Warning -- assumption of classical behavior for rotation
           may cause significant error
 Rotational temperatures (Kelvin)      0.01470     0.00773     0.00591
 Rotational constants (GHZ):           0.30628     0.16099     0.12322
    1 imaginary frequencies ignored.
 Zero-point vibrational energy     765540.8 (Joules/Mol)
                                  182.96865 (Kcal/Mol)
 Warning -- explicit consideration of  30 degrees of freedom as
           vibrations may cause significant error
 Vibrational temperatures:     28.93    44.37    59.20    84.55    87.63
          (Kelvin)            116.38   128.81   170.55   185.21   195.25
                              233.56   242.23   269.52   313.03   331.38
                              364.18   388.92   398.54   437.89   507.35
                              529.68   549.63   605.43   612.33   754.85
                              761.57   786.26   825.19   868.22   882.05
                              915.27   919.83   969.81  1034.00  1037.07
                             1049.27  1088.69  1117.96  1132.03  1183.67
                             1242.37  1248.81  1255.31  1294.01  1351.49
                             1385.17  1440.09  1445.99  1465.62  1469.08
                             1470.05  1474.71  1495.68  1496.30  1532.29
                             1537.32  1544.53  1550.66  1617.15  1623.35
                             1702.21  1711.56  1736.97  1743.29  1759.70
                             1778.38  1809.05  1839.89  1897.15  1932.28
                             1934.80  1962.22  1966.28  2060.19  2113.08
                             2128.01  2145.27  2157.24  2168.78  2219.85
                             2225.94  2258.44  2365.86  2380.23  2392.97
                             2406.60  2407.02  2436.44  4421.37  4533.77
                             4570.58  4585.27  4601.71  4611.22  4615.35
                             4622.06  4633.86  4636.17  4646.48  4680.48
                             4710.96  5056.29  5163.97  5267.35

 Zero-point correction=                           0.291579 (Hartree/Particle)
 Thermal correction to Energy=                    0.311633
 Thermal correction to Enthalpy=                  0.312577
 Thermal correction to Gibbs Free Energy=         0.239900
 Sum of electronic and zero-point Energies=          -5952.198508
 Sum of electronic and thermal Energies=             -5952.178454
 Sum of electronic and thermal Enthalpies=           -5952.177510
 Sum of electronic and thermal Free Energies=        -5952.250187

                     E (Thermal)             CV                S
                      KCal/Mol        Cal/Mol-Kelvin    Cal/Mol-Kelvin
 Total                  195.553             74.263            152.962
 Electronic               0.000              0.000              0.000
 Translational            0.889              2.981             43.924
 Rotational               0.889              2.981             35.224
 Vibrational            193.775             68.301             73.814
 Vibration     1          0.593              1.986              6.624
 Vibration     2          0.594              1.984              5.775
 Vibration     3          0.594              1.981              5.203
 Vibration     4          0.596              1.974              4.498
 Vibration     5          0.597              1.973              4.428
 Vibration     6          0.600              1.962              3.869
 Vibration     7          0.602              1.957              3.670
 Vibration     8          0.609              1.934              3.124
 Vibration     9          0.611              1.925              2.965
 Vibration    10          0.614              1.918              2.864
 Vibration    11          0.622              1.889              2.522
 Vibration    12          0.625              1.881              2.454
 Vibration    13          0.632              1.857              2.254
 Vibration    14          0.646              1.814              1.979
 Vibration    15          0.652              1.795              1.876
 Vibration    16          0.664              1.758              1.709
 Vibration    17          0.674              1.728              1.594
 Vibration    18          0.678              1.716              1.552
 Vibration    19          0.695              1.665              1.393
 Vibration    20          0.729              1.570              1.154
 Vibration    21          0.741              1.538              1.087
 Vibration    22          0.751              1.509              1.031
 Vibration    23          0.783              1.425              0.889
 Vibration    24          0.787              1.415              0.873
 Vibration    25          0.880              1.195              0.599
 Vibration    26          0.884              1.185              0.589
 Vibration    27          0.902              1.147              0.552
 Vibration    28          0.930              1.088              0.497
 Vibration    29          0.962              1.024              0.444
 Vibration    30          0.972              1.004              0.428

 Optimization completed.
    -- Stationary point found.
 Normal termination of Gaussian 16 at Sun Feb 21 03:36:55 2021.
