 Gaussian 16, Revision A.03,
 Gaussian 16:  ES64L-G16RevA.03 25-Dec-2016

 ----------------------------------------------------------------------
 # wB97XD def2tzvp, opt=(ts, noeigen, calcfc, maxcycles=70, maxstep=8),
  freq=noraman, scrf=(iefpcm, solvent=water)
 ----------------------------------------------------------------------

 -----------------------
 1_iteration/TS-60-1.out
 -----------------------
 Symbolic Z-matrix:
 Charge =  0 Multiplicity = 1

 SCF Done:  E(RwB97XD) =  -672.715829773     A.U. after   14 cycles
 SCF Done:  E(RwB97XD) =  -672.716041352     A.U. after   12 cycles
 SCF Done:  E(RwB97XD) =  -672.716047356     A.U. after   10 cycles
 SCF Done:  E(RwB97XD) =  -672.716054660     A.U. after   10 cycles
 SCF Done:  E(RwB97XD) =  -672.715998268     A.U. after   12 cycles
 SCF Done:  E(RwB97XD) =  -672.716052229     A.U. after   11 cycles
 SCF Done:  E(RwB97XD) =  -672.716047709     A.U. after   10 cycles
 SCF Done:  E(RwB97XD) =  -672.716047904     A.U. after    8 cycles
 SCF Done:  E(RwB97XD) =  -672.716049792     A.U. after    9 cycles
 SCF Done:  E(RwB97XD) =  -672.716050010     A.U. after    8 cycles
 SCF Done:  E(RwB97XD) =  -672.716042447     A.U. after   12 cycles
 SCF Done:  E(RwB97XD) =  -672.716034875     A.U. after   12 cycles
 SCF Done:  E(RwB97XD) =  -672.716047930     A.U. after   10 cycles
 SCF Done:  E(RwB97XD) =  -672.716048077     A.U. after    8 cycles
 SCF Done:  E(RwB97XD) =  -672.716005012     A.U. after   11 cycles
 SCF Done:  E(RwB97XD) =  -672.716049911     A.U. after   11 cycles
 SCF Done:  E(RwB97XD) =  -672.716050174     A.U. after    8 cycles
 SCF Done:  E(RwB97XD) =  -672.716050195     A.U. after    7 cycles
 SCF Done:  E(RwB97XD) =  -672.716050164     A.U. after    6 cycles
 Optimization completed.
    -- Stationary point found.
 Normal termination of Gaussian 16 at Sun Jan 31 01:20:45 2021.

 ---------------------------------------------------------------------
 #N Geom=AllCheck Guess=TCheck SCRF=Check GenChk RwB97XD/def2TZVP Freq
 ---------------------------------------------------------------------

 Structure from the checkpoint file:  "/beegfs/scratch/user/q/tla25/Gau-103031.chk"
 -----------------------
 1_iteration/TS-60-1.out
 -----------------------
 Charge =  0 Multiplicity = 1

                         Standard orientation:
 ---------------------------------------------------------------------
 Center     Atomic      Atomic             Coordinates (Angstroms)
 Number     Number       Type             X           Y           Z
 ---------------------------------------------------------------------
      1          6           0        0.895440   -0.099326    0.792570
      2          6           0        2.225040   -0.535990    0.566197
      3          8           0        3.073257   -0.788880    1.425674
      4          6           0        0.038131    0.156722   -0.310117
      5          6           0        1.437530    2.400906   -0.957812
      6          1           0        1.441348    3.481180   -1.092308
      7          1           0        1.995092    2.139601   -0.059031
      8          1           0        1.901752    1.917170   -1.813310
      9          7           0        0.073787    1.897250   -0.805828
     10          1           0       -0.424189    2.422110   -0.095445
     11          1           0       -0.456548    1.980095   -1.666798
     12          6           0       -1.438206   -0.082757   -0.207828
     13          6           0       -2.010896   -1.036251   -1.046951
     14          6           0       -3.365118   -1.325660   -0.979764
     15          6           0       -4.175724   -0.652392   -0.077417
     16          6           0       -3.620661    0.309016    0.754502
     17          6           0       -2.264008    0.589628    0.691364
     18          1           0       -1.385142   -1.561386   -1.759178
     19          1           0       -3.788110   -2.073497   -1.638638
     20          1           0       -5.234514   -0.871961   -0.025780
     21          1           0       -4.245334    0.843911    1.458713
     22          1           0       -1.853952    1.340808    1.354563
     23          1           0        0.427073   -0.234088   -1.243118
     24          6           0        0.472127    0.152013    2.214851
     25          1           0        0.326154    1.216634    2.439734
     26          1           0       -0.463825   -0.353631    2.470734
     27          1           0        1.242632   -0.213349    2.892146
     28          8           0        2.554957   -0.696630   -0.759502
     29          6           0        3.867072   -1.148552   -1.031219
     30          1           0        4.048504   -2.135076   -0.601112
     31          1           0        3.946106   -1.203668   -2.115404
     32          1           0        4.616377   -0.455669   -0.644598
 ---------------------------------------------------------------------

 SCF Done:  E(RwB97XD) =  -672.716050164     A.U. after    1 cycles

 The electronic state is 1-A.
 Alpha  occ. eigenvalues --  -19.26453 -19.19188 -14.49880 -10.37432 -10.33437
 Alpha  occ. eigenvalues --  -10.31892 -10.31748 -10.30402 -10.29361 -10.29259
 Alpha  occ. eigenvalues --  -10.29249 -10.29185 -10.29092 -10.26023 -10.24450
 Alpha  occ. eigenvalues --   -1.17416  -1.07626  -1.05258  -0.97168  -0.90389
 Alpha  occ. eigenvalues --   -0.85546  -0.85315  -0.80440  -0.79649  -0.77564
 Alpha  occ. eigenvalues --   -0.71389  -0.70819  -0.67642  -0.64443  -0.62329
 Alpha  occ. eigenvalues --   -0.60904  -0.58267  -0.57186  -0.56318  -0.55354
 Alpha  occ. eigenvalues --   -0.54772  -0.53938  -0.52195  -0.51303  -0.50136
 Alpha  occ. eigenvalues --   -0.49651  -0.48856  -0.48111  -0.46951  -0.45633
 Alpha  occ. eigenvalues --   -0.45053  -0.44115  -0.43857  -0.42843  -0.42415
 Alpha  occ. eigenvalues --   -0.41140  -0.36634  -0.34055  -0.34003  -0.33099
 Alpha  occ. eigenvalues --   -0.25183
 Alpha virt. eigenvalues --    0.03861   0.05026   0.09173   0.10838   0.12530
 Alpha virt. eigenvalues --    0.13203   0.13645   0.15156   0.15897   0.16281
 Alpha virt. eigenvalues --    0.16968   0.17832   0.18032   0.18445   0.19158

 Mulliken charges:
               1
     1  C   -0.262553
     2  C    0.376035
     3  O   -0.558448
     4  C   -0.065685
     5  C   -0.301785
     6  H    0.163367
     7  H    0.158320
     8  H    0.156360
     9  N   -0.250902
    10  H    0.283347
    11  H    0.291330
    12  C    0.296217
    13  C   -0.246207
    14  C   -0.128996
    15  C   -0.161769
    16  C   -0.139461
    17  C   -0.333509
    18  H    0.141104
    19  H    0.143974
    20  H    0.144981
    21  H    0.144229
    22  H    0.173781
    23  H    0.166257
    24  C   -0.400178
    25  H    0.110141
    26  H    0.127771
    27  H    0.126978
    28  O   -0.324146
    29  C   -0.192364
    30  H    0.117040
    31  H    0.128778
    32  H    0.115992
 Sum of Mulliken charges =  -0.00000

 Dipole moment (field-independent basis, Debye):
    X=             -5.8085    Y=              6.9043    Z=             -6.5218  Tot=             11.1329
 Quadrupole moment (field-independent basis, Debye-Ang):
   XX=            -96.6459   YY=            -77.9291   ZZ=            -91.7091
   XY=              5.5595   XZ=            -14.3632   YZ=              2.9725

  Exact polarizability: 275.169  -8.405 191.769   5.301  12.063 198.344
 Approx polarizability: 203.751  -4.923 160.557   4.156  12.123 168.063

 ******    1 imaginary frequencies (negative Signs) ******

                      1                      2                      3
                      A                      A                      A
 Frequencies --   -339.1463                39.9971                43.3107
 Red. masses --      6.2168                 3.3708                 2.4819
 Frc consts  --      0.4213                 0.0032                 0.0027
 IR Inten    --    860.3720                 1.4381                 0.9796

                      4                      5                      6
                      A                      A                      A
 Frequencies --     55.3789                80.2255                94.6679
 Red. masses --      3.3439                 3.9633                 3.5286
 Frc consts  --      0.0060                 0.0150                 0.0186
 IR Inten    --      5.5011                 3.0231                10.6043

                      7                      8                      9
                      A                      A                      A
 Frequencies --    114.3521               133.7844               154.7555
 Red. masses --      3.8239                 3.3438                 2.1130
 Frc consts  --      0.0295                 0.0353                 0.0298
 IR Inten    --      5.7565                 6.1955                 9.2288

                     10                     11                     12
                      A                      A                      A
 Frequencies --    174.2791               181.1922               213.2688
 Red. masses --      1.0983                 1.3725                 2.7490
 Frc consts  --      0.0197                 0.0265                 0.0737
 IR Inten    --      4.3074                 0.9259                 1.1321

                     13                     14                     15
                      A                      A                      A
 Frequencies --    241.7997               268.3352               295.9690
 Red. masses --      1.2782                 3.1924                 3.1426
 Frc consts  --      0.0440                 0.1354                 0.1622
 IR Inten    --      2.8224                 3.0972                21.3698

                     16                     17                     18
                      A                      A                      A
 Frequencies --    310.1860               331.9636               375.0052
 Red. masses --      3.1920                 4.6284                 4.3611
 Frc consts  --      0.1810                 0.3005                 0.3613
 IR Inten    --      9.1065                17.4541                32.7652

                     19                     20                     21
                      A                      A                      A
 Frequencies --    422.8208               471.0375               495.3598
 Red. masses --      2.8893                 4.4233                 4.1185
 Frc consts  --      0.3043                 0.5782                 0.5954
 IR Inten    --      1.0322                36.4189                 6.1323

                     22                     23                     24
                      A                      A                      A
 Frequencies --    560.8909               628.3095               638.2414
 Red. masses --      2.6503                 4.8916                 6.3639
 Frc consts  --      0.4912                 1.1378                 1.5274
 IR Inten    --    154.2247                52.3124                 3.2291

                     25                     26                     27
                      A                      A                      A
 Frequencies --    655.9715               728.0700               754.2710
 Red. masses --      2.2246                 1.5707                 3.2296
 Frc consts  --      0.5640                 0.4906                 1.0826
 IR Inten    --     17.5902                88.2264                18.3175

                     28                     29                     30
                      A                      A                      A
 Frequencies --    787.6276               798.1421               843.4864
 Red. masses --      8.2603                 2.1349                 2.5968
 Frc consts  --      3.0192                 0.8013                 1.0886
 IR Inten    --     45.7219                12.7793                13.6369

                     31                     32                     33
                      A                      A                      A
 Frequencies --    874.3412               878.7129               958.1138
 Red. masses --      4.1490                 1.2596                 1.5048
 Frc consts  --      1.8688                 0.5730                 0.8139
 IR Inten    --     19.0392                 0.1282                20.2682

                     34                     35                     36
                      A                      A                      A
 Frequencies --    966.6245              1013.1666              1023.6142
 Red. masses --      2.1443                 1.3669                 1.2131
 Frc consts  --      1.1804                 0.8267                 0.7489
 IR Inten    --     67.1361                 0.1406                 7.5670

                     37                     38                     39
                      A                      A                      A
 Frequencies --   1026.1257              1030.7161              1048.4406
 Red. masses --      5.8635                 1.3123                 1.9253
 Frc consts  --      3.6375                 0.8214                 1.2469
 IR Inten    --      0.5436                 0.6854               106.4377

                     40                     41                     42
                      A                      A                      A
 Frequencies --   1060.5013              1064.4462              1069.5430
 Red. masses --      1.5421                 1.7834                 1.5641
 Frc consts  --      1.0219                 1.1905                 1.0542
 IR Inten    --     33.7416                10.0301                 5.7224

                     43                     44                     45
                      A                      A                      A
 Frequencies --   1088.2030              1118.6616              1149.7735
 Red. masses --      2.9418                 1.6053                 5.3225
 Frc consts  --      2.0525                 1.1836                 4.1456
 IR Inten    --     88.6638                15.2567               470.7442

                     46                     47                     48
                      A                      A                      A
 Frequencies --   1182.2918              1184.2935              1207.8672
 Red. masses --      1.2772                 1.1369                 1.4897
 Frc consts  --      1.0519                 0.9395                 1.2805
 IR Inten    --      1.0862                 0.2542               149.6047

                     49                     50                     51
                      A                      A                      A
 Frequencies --   1214.5891              1217.7230              1248.9997
 Red. masses --      1.1405                 1.5650                 1.3751
 Frc consts  --      0.9913                 1.3673                 1.2639
 IR Inten    --      2.5883                13.2142               111.4361

                     52                     53                     54
                      A                      A                      A
 Frequencies --   1265.1050              1285.6644              1335.7321
 Red. masses --      1.8537                 1.8567                 4.1345
 Frc consts  --      1.7480                 1.8082                 4.3463
 IR Inten    --     28.6121               231.1184               103.8750

                     55                     56                     57
                      A                      A                      A
 Frequencies --   1348.1958              1368.5494              1384.3087
 Red. masses --      1.3188                 1.4031                 1.6484
 Frc consts  --      1.4123                 1.5483                 1.8611
 IR Inten    --      5.6453                40.3759               107.0746

                     58                     59                     60
                      A                      A                      A
 Frequencies --   1410.6311              1441.7971              1456.4882
 Red. masses --      2.2580                 1.5027                 1.5818
 Frc consts  --      2.6473                 1.8405                 1.9770
 IR Inten    --     30.0765               128.8496                92.1357

                     61                     62                     63
                      A                      A                      A
 Frequencies --   1477.9413              1480.4368              1485.7445
 Red. masses --      1.1642                 1.0475                 1.1061
 Frc consts  --      1.4983                 1.3527                 1.4386
 IR Inten    --     41.8621                 7.3085                40.8956

                     64                     65                     66
                      A                      A                      A
 Frequencies --   1498.3729              1498.5120              1500.7446
 Red. masses --      1.0714                 1.1716                 1.0479
 Frc consts  --      1.4172                 1.5500                 1.3906
 IR Inten    --     16.7601                26.8201                16.7532

                     67                     68                     69
                      A                      A                      A
 Frequencies --   1502.1519              1510.3873              1548.1708
 Red. masses --      1.2667                 1.5369                 2.3751
 Frc consts  --      1.6841                 2.0657                 3.3541
 IR Inten    --      5.5970               113.7966                 4.1980

                     70                     71                     72
                      A                      A                      A
 Frequencies --   1644.6741              1651.0265              1654.1711
 Red. masses --      1.1070                 9.5483                 5.3621
 Frc consts  --      1.7642                15.3351                 8.6446
 IR Inten    --     98.5644              1439.9921                74.2476

                     73                     74                     75
                      A                      A                      A
 Frequencies --   1677.6884              2996.4365              3049.6231
 Red. masses --      5.8414                 1.0530                 1.0313
 Frc consts  --      9.6870                 5.5702                 5.6510
 IR Inten    --      2.2096               112.6950                88.5322

                     76                     77                     78
                      A                      A                      A
 Frequencies --   3055.4530              3077.1311              3118.5687
 Red. masses --      1.0882                 1.0330                 1.1060
 Frc consts  --      5.9859                 5.7626                 6.3372
 IR Inten    --     63.4111                31.1794                54.1745

                     79                     80                     81
                      A                      A                      A
 Frequencies --   3139.1977              3153.0101              3158.4191
 Red. masses --      1.0940                 1.1042                 1.1050
 Frc consts  --      6.3519                 6.4678                 6.4947
 IR Inten    --     21.0800                35.3823                 5.0309

                     82                     83                     84
                      A                      A                      A
 Frequencies --   3181.4005              3183.2602              3190.7463
 Red. masses --      1.1060                 1.0885                 1.0872
 Frc consts  --      6.5952                 6.4984                 6.5214
 IR Inten    --     10.3856                 6.3866                 6.8946

                     85                     86                     87
                      A                      A                      A
 Frequencies --   3195.9267              3204.1102              3212.2529
 Red. masses --      1.0876                 1.0911                 1.0950
 Frc consts  --      6.5450                 6.6001                 6.6570
 IR Inten    --      2.0731                11.0257                38.6688

                     88                     89                     90
                      A                      A                      A
 Frequencies --   3222.5381              3518.7471              3596.7349
 Red. masses --      1.0989                 1.0512                 1.0959
 Frc consts  --      6.7236                 7.6689                 8.3530
 IR Inten    --     17.2728                44.7165                45.2398

 - Thermochemistry -
 -------------------
 Temperature   298.150 Kelvin.  Pressure   1.00000 Atm.
 Atom     1 has atomic number  6 and mass  12.00000

 Molecular mass:   207.12593 amu.
 Principal axes and moments of inertia in atomic units:
                           1         2         3
     Eigenvalues --  1707.624065456.702435539.75549
           X            0.99989   0.00650  -0.01325
           Y           -0.00407   0.98450   0.17534
           Z            0.01419  -0.17527   0.98442
 This molecule is an asymmetric top.
 Rotational symmetry number  1.
 Warning -- assumption of classical behavior for rotation
           may cause significant error
 Rotational temperatures (Kelvin)      0.05072     0.01587     0.01563
 Rotational constants (GHZ):           1.05687     0.33074     0.32578
    1 imaginary frequencies ignored.
 Zero-point vibrational energy     718952.7 (Joules/Mol)
                                  171.83381 (Kcal/Mol)
 Warning -- explicit consideration of  21 degrees of freedom as
           vibrations may cause significant error
 Vibrational temperatures:     57.55    62.31    79.68   115.43   136.21
          (Kelvin)            164.53   192.49   222.66   250.75   260.70
                              306.85   347.90   386.07   425.83   446.29
                              477.62   539.55   608.34   677.72   712.71
                              807.00   904.00   918.29   943.80  1047.53
                             1085.23  1133.22  1148.35  1213.59  1257.98
                             1264.27  1378.51  1390.76  1457.72  1472.75
                             1476.37  1482.97  1508.47  1525.82  1531.50
                             1538.83  1565.68  1609.50  1654.27  1701.05
                             1703.93  1737.85  1747.52  1752.03  1797.03
                             1820.20  1849.78  1921.82  1939.75  1969.04
                             1991.71  2029.58  2074.42  2095.56  2126.43
                             2130.02  2137.65  2155.82  2156.02  2159.24
                             2161.26  2173.11  2227.47  2366.32  2375.46
                             2379.98  2413.82  4311.20  4387.73  4396.12
                             4427.31  4486.92  4516.61  4536.48  4544.26
                             4577.33  4580.00  4590.77  4598.23  4610.00
                             4621.72  4636.51  5062.69  5174.90

 Zero-point correction=                           0.273835 (Hartree/Particle)
 Thermal correction to Energy=                    0.289509
 Thermal correction to Enthalpy=                  0.290453
 Thermal correction to Gibbs Free Energy=         0.229859
 Sum of electronic and zero-point Energies=           -672.442216
 Sum of electronic and thermal Energies=              -672.426542
 Sum of electronic and thermal Enthalpies=            -672.425597
 Sum of electronic and thermal Free Energies=         -672.486191

                     E (Thermal)             CV                S
                      KCal/Mol        Cal/Mol-Kelvin    Cal/Mol-Kelvin
 Total                  181.669             56.975            127.530
 Electronic               0.000              0.000              0.000
 Translational            0.889              2.981             41.888
 Rotational               0.889              2.981             32.312
 Vibrational            179.892             51.014             53.329
 Vibration     1          0.594              1.981              5.259
 Vibration     2          0.595              1.980              5.102
 Vibration     3          0.596              1.975              4.615
 Vibration     4          0.600              1.963              3.885
 Vibration     5          0.603              1.953              3.561
 Vibration     6          0.607              1.938              3.194
 Vibration     7          0.613              1.920              2.891
 Vibration     8          0.620              1.897              2.613
 Vibration     9          0.627              1.874              2.389
 Vibration    10          0.630              1.865              2.316
 Vibration    11          0.644              1.821              2.016
 Vibration    12          0.658              1.776              1.790
 Vibration    13          0.673              1.731              1.607
 Vibration    14          0.690              1.681              1.440
 Vibration    15          0.699              1.654              1.361
 Vibration    16          0.714              1.612              1.251
 Vibration    17          0.746              1.523              1.059
 Vibration    18          0.785              1.421              0.882
 Vibration    19          0.828              1.314              0.735
 Vibration    20          0.851              1.260              0.670
 Vibration    21          0.917              1.116              0.522

 Optimization completed.
    -- Stationary point found.
 Normal termination of Gaussian 16 at Sun Jan 31 02:22:29 2021.
