 Gaussian 16, Revision A.03,
 Gaussian 16:  ES64L-G16RevA.03 25-Dec-2016

 ----------------------------------------------------------------------
 # wB97XD def2tzvp, opt=(ts, noeigen, calcfc, maxcycles=70, maxstep=3),
  freq=noraman, scrf=(iefpcm, solvent=water)
 ----------------------------------------------------------------------

 ------------------------
 0_iteration/TS-692-0.out
 ------------------------
 Symbolic Z-matrix:
 Charge =  0 Multiplicity = 1

 SCF Done:  E(RwB97XD) =  -3015.27454664     A.U. after   14 cycles
 SCF Done:  E(RwB97XD) =  -3015.27448537     A.U. after   10 cycles
 SCF Done:  E(RwB97XD) =  -3015.27446513     A.U. after   10 cycles
 SCF Done:  E(RwB97XD) =  -3015.27450445     A.U. after   10 cycles
 SCF Done:  E(RwB97XD) =  -3015.27465177     A.U. after   11 cycles
 SCF Done:  E(RwB97XD) =  -3015.27497482     A.U. after   11 cycles
 SCF Done:  E(RwB97XD) =  -3015.27540327     A.U. after   11 cycles
 SCF Done:  E(RwB97XD) =  -3015.27585775     A.U. after   11 cycles
 SCF Done:  E(RwB97XD) =  -3015.27636812     A.U. after   11 cycles
 SCF Done:  E(RwB97XD) =  -3015.27691349     A.U. after   11 cycles
 SCF Done:  E(RwB97XD) =  -3015.28043374     A.U. after   12 cycles
 SCF Done:  E(RwB97XD) =  -3015.28054331     A.U. after   11 cycles
 SCF Done:  E(RwB97XD) =  -3015.28056534     A.U. after   12 cycles
 SCF Done:  E(RwB97XD) =  -3015.28057338     A.U. after   11 cycles
 SCF Done:  E(RwB97XD) =  -3015.28058771     A.U. after   10 cycles
 SCF Done:  E(RwB97XD) =  -3015.28059103     A.U. after   10 cycles
 SCF Done:  E(RwB97XD) =  -3015.28059125     A.U. after    9 cycles
 SCF Done:  E(RwB97XD) =  -3015.28059149     A.U. after    9 cycles
 SCF Done:  E(RwB97XD) =  -3015.28059142     A.U. after    7 cycles
 Optimization completed.
    -- Stationary point found.
 Normal termination of Gaussian 16 at Mon Apr 12 14:32:12 2021.

 ---------------------------------------------------------------------
 #N Geom=AllCheck Guess=TCheck SCRF=Check GenChk RwB97XD/def2TZVP Freq
 ---------------------------------------------------------------------

 Structure from the checkpoint file:  "/beegfs/scratch/user/q/tla25/Gau-140335.chk"
 ------------------------
 0_iteration/TS-692-0.out
 ------------------------
 Charge =  0 Multiplicity = 1

                         Standard orientation:
 ---------------------------------------------------------------------
 Center     Atomic      Atomic             Coordinates (Angstroms)
 Number     Number       Type             X           Y           Z
 ---------------------------------------------------------------------
      1          6           0       -0.573251   -0.426414   -0.328824
      2          6           0       -1.907760   -0.248706    0.141079
      3          8           0       -2.307004    0.351100    1.131817
      4          6           0        0.550434    0.119278    0.282731
      5          6           0       -0.049439    2.672816   -0.659265
      6          1           0       -0.178122    3.129250    0.319076
      7          1           0        0.134103    3.450704   -1.399111
      8          1           0       -0.955510    2.128478   -0.927844
      9          7           0        1.052492    1.717303   -0.610633
     10          1           0        1.295220    1.396833   -1.541475
     11          1           0        1.886560    2.116953   -0.193107
     12         35           0        2.202881   -0.870780   -0.133593
     13          6           0        0.562285    0.602044    1.705199
     14          1           0       -0.259335    1.295994    1.864975
     15          1           0        0.409300   -0.249230    2.368711
     16          1           0        1.509072    1.075133    1.958832
     17          1           0       -0.452930   -0.970613   -1.253708
     18          8           0       -2.794766   -0.877127   -0.684545
     19          6           0       -4.163518   -0.784988   -0.322667
     20          1           0       -4.500505    0.252515   -0.311612
     21          1           0       -4.710417   -1.340560   -1.081112
     22          1           0       -4.344054   -1.225244    0.658859
 ---------------------------------------------------------------------

 SCF Done:  E(RwB97XD) =  -3015.28059142     A.U. after    1 cycles

 The electronic state is 1-A.
 Alpha  occ. eigenvalues -- -483.12687 -62.67556 -56.46654 -56.46323 -56.46312
 Alpha  occ. eigenvalues --  -19.27497 -19.20772 -14.49336 -10.39929 -10.39284
 Alpha  occ. eigenvalues --  -10.32293 -10.31853 -10.28578 -10.25230  -8.81673
 Alpha  occ. eigenvalues --   -6.63775  -6.62724  -6.62689  -2.74166  -2.73873
 Alpha  occ. eigenvalues --   -2.73845  -2.72994  -2.72994  -1.18741  -1.09296
 Alpha  occ. eigenvalues --   -1.04824  -0.93672  -0.85478  -0.83168  -0.79212
 Alpha  occ. eigenvalues --   -0.78573  -0.68539  -0.63670  -0.62582  -0.58830
 Alpha  occ. eigenvalues --   -0.57583  -0.56537  -0.55846  -0.54504  -0.53319
 Alpha  occ. eigenvalues --   -0.50133  -0.49764  -0.48373  -0.46826  -0.46193
 Alpha  occ. eigenvalues --   -0.44850  -0.43444  -0.42930  -0.37592  -0.37454
 Alpha  occ. eigenvalues --   -0.37177  -0.34555  -0.28063
 Alpha virt. eigenvalues --    0.04823   0.06391   0.10257   0.13093   0.14485
 Alpha virt. eigenvalues --    0.15113   0.15738   0.16708   0.17028   0.18309
 Alpha virt. eigenvalues --    0.19217   0.19952   0.20741   0.21168   0.21190

 Mulliken charges:
               1
     1  C   -0.510863
     2  C    0.447646
     3  O   -0.521848
     4  C    0.194654
     5  C   -0.302215
     6  H    0.160939
     7  H    0.162337
     8  H    0.153360
     9  N   -0.299019
    10  H    0.284830
    11  H    0.292505
    12  Br  -0.141926
    13  C   -0.385130
    14  H    0.157309
    15  H    0.151660
    16  H    0.146524
    17  H    0.133184
    18  O   -0.315674
    19  C   -0.186464
    20  H    0.121317
    21  H    0.134688
    22  H    0.122186
 Sum of Mulliken charges =  -0.00000

 Dipole moment (field-independent basis, Debye):
    X=              3.7366    Y=              5.6204    Z=             -2.5447  Tot=              7.2130
 Quadrupole moment (field-independent basis, Debye-Ang):
   XX=            -73.2788   YY=            -64.3676   ZZ=            -73.4676
   XY=              8.7028   XZ=              3.6143   YZ=             -4.5062

  Exact polarizability: 196.245   4.618 147.580  -5.398   2.644 128.601
 Approx polarizability: 144.544   1.212 121.283  -4.843   4.880 112.579

 ******    1 imaginary frequencies (negative Signs) ******

                      1                      2                      3
                      A                      A                      A
 Frequencies --   -367.6342                58.3597                63.6402
 Red. masses --      5.5189                 3.6293                 5.0719
 Frc consts  --      0.4395                 0.0073                 0.0121
 IR Inten    --    771.4921                 3.8240                 3.4354

                      4                      5                      6
                      A                      A                      A
 Frequencies --     88.8814               133.7305               144.0483
 Red. masses --      2.0383                 2.4206                 3.7354
 Frc consts  --      0.0095                 0.0255                 0.0457
 IR Inten    --      6.7546                 6.0334                 3.6843

                      7                      8                      9
                      A                      A                      A
 Frequencies --    163.8345               178.6528               192.8455
 Red. masses --      1.5197                 3.2449                 1.1277
 Frc consts  --      0.0240                 0.0610                 0.0247
 IR Inten    --      0.3754                 5.2711                 2.6348

                     10                     11                     12
                      A                      A                      A
 Frequencies --    241.5064               265.7006               282.0523
 Red. masses --      4.6933                 2.1646                 2.9431
 Frc consts  --      0.1613                 0.0900                 0.1379
 IR Inten    --      3.5407                 4.6962                13.8519

                     13                     14                     15
                      A                      A                      A
 Frequencies --    290.5235               337.0393               358.9917
 Red. masses --      2.3507                 2.7156                 2.1044
 Frc consts  --      0.1169                 0.1818                 0.1598
 IR Inten    --     34.8747                 2.1278                10.8710

                     16                     17                     18
                      A                      A                      A
 Frequencies --    418.5755               494.4555               634.3497
 Red. masses --      3.9034                 3.1467                 3.0113
 Frc consts  --      0.4029                 0.4533                 0.7139
 IR Inten    --     59.0656                43.8858                99.5043

                     19                     20                     21
                      A                      A                      A
 Frequencies --    695.0516               729.7475               746.9759
 Red. masses --      1.2613                 1.5813                 4.7279
 Frc consts  --      0.3590                 0.4962                 1.5543
 IR Inten    --     62.8170                96.3007                38.8568

                     22                     23                     24
                      A                      A                      A
 Frequencies --    799.0749               911.1244               981.7631
 Red. masses --      7.2472                 4.5880                 2.5748
 Frc consts  --      2.7264                 2.2440                 1.4622
 IR Inten    --     89.6852               177.7979                46.2713

                     25                     26                     27
                      A                      A                      A
 Frequencies --   1007.9407              1046.1582              1067.8009
 Red. masses --      1.1788                 1.1687                 1.7000
 Frc consts  --      0.7056                 0.7536                 1.1420
 IR Inten    --     35.4546                20.4286               123.1822

                     28                     29                     30
                      A                      A                      A
 Frequencies --   1079.1146              1105.6992              1111.8319
 Red. masses --      2.9954                 2.0157                 2.7293
 Frc consts  --      2.0551                 1.4519                 1.9878
 IR Inten    --      2.4969                82.4507               235.6716

                     31                     32                     33
                      A                      A                      A
 Frequencies --   1181.6864              1203.0908              1215.0063
 Red. masses --      1.2826                 3.5553                 1.5090
 Frc consts  --      1.0552                 3.0320                 1.3125
 IR Inten    --      1.7757               737.5437                20.5983

                     34                     35                     36
                      A                      A                      A
 Frequencies --   1231.8364              1339.6398              1363.8423
 Red. masses --      1.3896                 1.4086                 1.7476
 Frc consts  --      1.2424                 1.4894                 1.9153
 IR Inten    --     62.1117                 0.8400                 9.4203

                     37                     38                     39
                      A                      A                      A
 Frequencies --   1425.3883              1443.0613              1464.7177
 Red. masses --      1.3234                 1.2955                 1.4512
 Frc consts  --      1.5842                 1.5895                 1.8344
 IR Inten    --     63.8578               290.8998               294.7053

                     40                     41                     42
                      A                      A                      A
 Frequencies --   1477.9002              1480.9973              1483.1686
 Red. masses --      1.1063                 1.0466                 1.1046
 Frc consts  --      1.4236                 1.3525                 1.4316
 IR Inten    --     52.2769                19.5689               145.6431

                     43                     44                     45
                      A                      A                      A
 Frequencies --   1491.4909              1495.7184              1503.9041
 Red. masses --      1.1163                 1.0603                 1.0485
 Frc consts  --      1.4631                 1.3975                 1.3972
 IR Inten    --    112.9283                40.3511                23.2599

                     46                     47                     48
                      A                      A                      A
 Frequencies --   1506.9599              1641.3178              1695.0387
 Red. masses --      1.5699                 1.0875                10.0390
 Frc consts  --      2.1006                 1.7262                16.9942
 IR Inten    --    482.4697                71.5046               747.7300

                     49                     50                     51
                      A                      A                      A
 Frequencies --   3055.6597              3070.9017              3079.6233
 Red. masses --      1.0310                 1.0339                 1.0367
 Frc consts  --      5.6719                 5.7447                 5.7931
 IR Inten    --     68.6177                34.3527                11.7626

                     52                     53                     54
                      A                      A                      A
 Frequencies --   3127.9459              3147.7938              3153.9046
 Red. masses --      1.1063                 1.1040                 1.1026
 Frc consts  --      6.3775                 6.4453                 6.4620
 IR Inten    --     45.6243                 6.1196                16.6249

                     55                     56                     57
                      A                      A                      A
 Frequencies --   3162.6628              3176.3560              3184.9546
 Red. masses --      1.1048                 1.1052                 1.1011
 Frc consts  --      6.5108                 6.5697                 6.5808
 IR Inten    --     29.8493                12.8692                 1.4371

                     58                     59                     60
                      A                      A                      A
 Frequencies --   3226.0220              3515.0281              3599.6554
 Red. masses --      1.0889                 1.0507                 1.0968
 Frc consts  --      6.6767                 7.6487                 8.3734
 IR Inten    --      1.4571                51.0582                50.3384

 - Thermochemistry -
 -------------------
 Temperature   298.150 Kelvin.  Pressure   1.00000 Atm.
 Atom     1 has atomic number  6 and mass  12.00000

 Molecular mass:   209.00514 amu.
 Principal axes and moments of inertia in atomic units:
                           1         2         3
     Eigenvalues --  1261.387643712.440994259.57650
           X            0.99898   0.04417   0.00910
           Y           -0.04397   0.99881  -0.02096
           Z           -0.01002   0.02054   0.99974
 This molecule is an asymmetric top.
 Rotational symmetry number  1.
 Warning -- assumption of classical behavior for rotation
           may cause significant error
 Rotational temperatures (Kelvin)      0.06867     0.02333     0.02033
 Rotational constants (GHZ):           1.43076     0.48613     0.42369
    1 imaginary frequencies ignored.
 Zero-point vibrational energy     477158.9 (Joules/Mol)
                                  114.04372 (Kcal/Mol)
 Warning -- explicit consideration of  16 degrees of freedom as
           vibrations may cause significant error
 Vibrational temperatures:     83.97    91.56   127.88   192.41   207.25
          (Kelvin)            235.72   257.04   277.46   347.47   382.28
                              405.81   418.00   484.92   516.51   602.24
                              711.41   912.69  1000.02  1049.94  1074.73
                             1149.69  1310.90  1412.54  1450.20  1505.19
                             1536.33  1552.61  1590.85  1599.68  1700.18
                             1730.98  1748.12  1772.34  1927.44  1962.26
                             2050.82  2076.24  2107.40  2126.37  2130.82
                             2133.95  2145.92  2152.01  2163.78  2168.18
                             2361.49  2438.78  4396.41  4418.34  4430.89
                             4500.42  4528.97  4537.77  4550.37  4570.07
                             4582.44  4641.53  5057.34  5179.10

 Zero-point correction=                           0.181740 (Hartree/Particle)
 Thermal correction to Energy=                    0.194087
 Thermal correction to Enthalpy=                  0.195031
 Thermal correction to Gibbs Free Energy=         0.142154
 Sum of electronic and zero-point Energies=          -3015.098851
 Sum of electronic and thermal Energies=             -3015.086505
 Sum of electronic and thermal Enthalpies=           -3015.085560
 Sum of electronic and thermal Free Energies=        -3015.138437

                     E (Thermal)             CV                S
                      KCal/Mol        Cal/Mol-Kelvin    Cal/Mol-Kelvin
 Total                  121.791             42.706            111.289
 Electronic               0.000              0.000              0.000
 Translational            0.889              2.981             41.915
 Rotational               0.889              2.981             31.367
 Vibrational            120.014             36.744             38.006
 Vibration     1          0.596              1.974              4.512
 Vibration     2          0.597              1.972              4.341
 Vibration     3          0.602              1.957              3.685
 Vibration     4          0.613              1.920              2.892
 Vibration     5          0.616              1.909              2.749
 Vibration     6          0.623              1.887              2.505
 Vibration     7          0.629              1.869              2.342
 Vibration     8          0.635              1.850              2.200
 Vibration     9          0.658              1.777              1.792
 Vibration    10          0.672              1.736              1.624
 Vibration    11          0.681              1.707              1.521
 Vibration    12          0.686              1.691              1.471
 Vibration    13          0.718              1.602              1.226
 Vibration    14          0.734              1.557              1.126
 Vibration    15          0.781              1.430              0.897
 Vibration    16          0.850              1.262              0.672

 Optimization completed.
    -- Stationary point found.
 Normal termination of Gaussian 16 at Mon Apr 12 14:39:14 2021.
