 Gaussian 16, Revision A.03,
 Gaussian 16:  ES64L-G16RevA.03 25-Dec-2016

 ----------------------------------------------------------------------
 # wB97XD def2tzvp, opt=(ts, noeigen, calcfc, maxcycles=70, maxstep=5),
  freq=noraman, scrf=(iefpcm, solvent=water)
 ----------------------------------------------------------------------

 ------------------------
 2_iteration/TS-672-2.out
 ------------------------
 Symbolic Z-matrix:
 Charge =  0 Multiplicity = 1

 SCF Done:  E(RwB97XD) =  -5666.06560864     A.U. after   15 cycles
 SCF Done:  E(RwB97XD) =  -5666.06560869     A.U. after    6 cycles
 Optimization completed.
    -- Stationary point found.
 Normal termination of Gaussian 16 at Sat Feb 20 15:32:58 2021.

 ---------------------------------------------------------------------
 #N Geom=AllCheck Guess=TCheck SCRF=Check GenChk RwB97XD/def2TZVP Freq
 ---------------------------------------------------------------------

 Structure from the checkpoint file:  "/beegfs/scratch/user/q/tla25/Gau-53587.chk"
 ------------------------
 2_iteration/TS-672-2.out
 ------------------------
 Charge =  0 Multiplicity = 1

                         Standard orientation:
 ---------------------------------------------------------------------
 Center     Atomic      Atomic             Coordinates (Angstroms)
 Number     Number       Type             X           Y           Z
 ---------------------------------------------------------------------
      1          6           0        0.220737    0.107997   -0.224262
      2          6           0       -0.860147    1.012489   -0.534101
      3          8           0       -0.647831    2.123475   -1.022195
      4          6           0        1.505105    0.552878   -0.430266
      5          6           0        3.332432    2.395512    1.077627
      6          1           0        3.533416    2.989210    1.971183
      7          1           0        4.179867    1.737244    0.894135
      8          1           0        3.218842    3.066370    0.226796
      9          7           0        2.122942    1.591681    1.214040
     10          1           0        2.196006    0.912321    1.961907
     11          1           0        1.306212    2.164993    1.387657
     12         35           0        2.974565   -0.623441   -0.641779
     13          1           0        1.609508    1.439118   -1.038566
     14         35           0       -0.110213   -1.588246    0.564239
     15          6           0       -2.285046    0.611103   -0.280506
     16          6           0       -3.143989    0.441035   -1.360116
     17          6           0       -4.480296    0.136836   -1.146645
     18          6           0       -4.969449    0.022914    0.146960
     19          6           0       -4.117081    0.207996    1.226842
     20          6           0       -2.776822    0.492341    1.014576
     21          1           0       -2.763790    0.543758   -2.369160
     22          1           0       -5.141318   -0.006144   -1.992058
     23          1           0       -6.013962   -0.207708    0.313813
     24          1           0       -4.495893    0.127184    2.237808
     25          1           0       -2.111817    0.626549    1.859018
 ---------------------------------------------------------------------

 SCF Done:  E(RwB97XD) =  -5666.06560869     A.U. after    1 cycles

 The electronic state is 1-A.
 Alpha  occ. eigenvalues -- -483.14350-483.13014 -62.69202 -62.67843 -56.48322
 Alpha  occ. eigenvalues --  -56.47967 -56.47942 -56.46959 -56.46606 -56.46600
 Alpha  occ. eigenvalues --  -19.22774 -14.47506 -10.39068 -10.37790 -10.32330
 Alpha  occ. eigenvalues --  -10.31634 -10.30243 -10.29561 -10.29532 -10.29318
 Alpha  occ. eigenvalues --  -10.29292 -10.29224  -8.83324  -8.81956  -6.65498
 Alpha  occ. eigenvalues --   -6.64360  -6.64277  -6.64104  -6.62972  -6.62955
 Alpha  occ. eigenvalues --   -2.75890  -2.75567  -2.75503  -2.74582  -2.74581
 Alpha  occ. eigenvalues --   -2.74497  -2.74162  -2.74149  -2.73234  -2.73233
 Alpha  occ. eigenvalues --   -1.13742  -1.03012  -0.97105  -0.95563  -0.90160
 Alpha  occ. eigenvalues --   -0.86500  -0.85507  -0.83057  -0.78534  -0.75108
 Alpha  occ. eigenvalues --   -0.70887  -0.69029  -0.63773  -0.62755  -0.60822
 Alpha  occ. eigenvalues --   -0.57600  -0.56089  -0.55609  -0.54374  -0.53683
 Alpha  occ. eigenvalues --   -0.53103  -0.51396  -0.50101  -0.48589  -0.47795
 Alpha  occ. eigenvalues --   -0.47421  -0.46169  -0.44895  -0.44424  -0.42954
 Alpha  occ. eigenvalues --   -0.40338  -0.39437  -0.37598  -0.36862  -0.35107
 Alpha  occ. eigenvalues --   -0.33915  -0.32645  -0.28830
 Alpha virt. eigenvalues --    0.00854   0.04926   0.05135   0.05408   0.09207
 Alpha virt. eigenvalues --    0.10558   0.13137   0.13904   0.14111   0.15631
 Alpha virt. eigenvalues --    0.15943   0.16901   0.17586   0.18601   0.19259

 Mulliken charges:
               1
     1  C   -0.182094
     2  C    0.275081
     3  O   -0.475719
     4  C   -0.054626
     5  C   -0.264970
     6  H    0.149406
     7  H    0.147274
     8  H    0.149265
     9  N   -0.390487
    10  H    0.282048
    11  H    0.281428
    12  Br  -0.033404
    13  H    0.192003
    14  Br  -0.102005
    15  C    0.200006
    16  C   -0.240527
    17  C   -0.142415
    18  C   -0.148172
    19  C   -0.125566
    20  C   -0.255590
    21  H    0.145475
    22  H    0.145184
    23  H    0.146648
    24  H    0.145596
    25  H    0.156161
 Sum of Mulliken charges =  -0.00000

 Dipole moment (field-independent basis, Debye):
    X=              3.7548    Y=              1.9196    Z=              4.5292  Tot=              6.1885
 Quadrupole moment (field-independent basis, Debye-Ang):
   XX=            -88.7181   YY=           -112.3022   ZZ=            -98.9494
   XY=             13.7203   XZ=              5.4501   YZ=              9.1218

  Exact polarizability: 313.693  16.593 202.504  10.774  -1.577 213.837
 Approx polarizability: 224.588   8.903 174.543   5.091  -5.178 186.828

 ******    1 imaginary frequencies (negative Signs) ******

                      1                      2                      3
                      A                      A                      A
 Frequencies --   -345.9727                18.9977                26.1241
 Red. masses --      6.5085                 4.3760                 4.5378
 Frc consts  --      0.4590                 0.0009                 0.0018
 IR Inten    --    897.4429                 1.8492                 4.6807

                      4                      5                      6
                      A                      A                      A
 Frequencies --     30.3048                56.4386                68.1128
 Red. masses --      4.7932                 2.9661                 5.1607
 Frc consts  --      0.0026                 0.0056                 0.0141
 IR Inten    --      0.3432                 3.5458                 3.6320

                      7                      8                      9
                      A                      A                      A
 Frequencies --     95.4707               119.1598               151.1325
 Red. masses --      4.4554                11.4930                 2.3628
 Frc consts  --      0.0239                 0.0961                 0.0318
 IR Inten    --      5.9471                 1.1251                 2.7452

                     10                     11                     12
                      A                      A                      A
 Frequencies --    161.5086               181.5640               192.6964
 Red. masses --      2.2152                 4.4814                 5.5528
 Frc consts  --      0.0340                 0.0870                 0.1215
 IR Inten    --      5.7618                18.2320                 1.6888

                     13                     14                     15
                      A                      A                      A
 Frequencies --    229.7106               269.9077               345.7707
 Red. masses --      4.6707                 3.3571                11.9567
 Frc consts  --      0.1452                 0.1441                 0.8422
 IR Inten    --      3.0504                 3.2309                11.8178

                     16                     17                     18
                      A                      A                      A
 Frequencies --    394.5866               413.0817               432.0468
 Red. masses --      5.5879                 2.9165                 8.0936
 Frc consts  --      0.5126                 0.2932                 0.8901
 IR Inten    --     26.4007                 6.0140               107.0607

                     19                     20                     21
                      A                      A                      A
 Frequencies --    528.0093               575.1108               608.1073
 Red. masses --      5.3286                 1.7894                 3.0345
 Frc consts  --      0.8753                 0.3487                 0.6611
 IR Inten    --     32.9609                 7.5558                19.7702

                     22                     23                     24
                      A                      A                      A
 Frequencies --    634.6357               666.9352               724.1636
 Red. masses --      6.3994                 4.0518                 1.5627
 Frc consts  --      1.5186                 1.0619                 0.4828
 IR Inten    --      0.8953               117.1801                96.6479

                     25                     26                     27
                      A                      A                      A
 Frequencies --    746.3085               763.7346               814.6013
 Red. masses --      4.4472                 4.8301                 2.7758
 Frc consts  --      1.4594                 1.6599                 1.0853
 IR Inten    --     53.0751                63.4276                20.9887

                     28                     29                     30
                      A                      A                      A
 Frequencies --    877.4371               903.2932               958.3930
 Red. masses --      1.2483                 4.1261                 1.4666
 Frc consts  --      0.5663                 1.9836                 0.7937
 IR Inten    --      0.3396                25.6559                 6.3073

                     31                     32                     33
                      A                      A                      A
 Frequencies --    993.3988              1002.8435              1010.1093
 Red. masses --      1.0934                 1.0901                 1.3802
 Frc consts  --      0.6357                 0.6459                 0.8297
 IR Inten    --     52.9744               118.4517                 0.3191

                     34                     35                     36
                      A                      A                      A
 Frequencies --   1025.6421              1030.8002              1058.5179
 Red. masses --      6.0398                 1.3153                 2.4008
 Frc consts  --      3.7434                 0.8234                 1.5849
 IR Inten    --      2.8646                 0.3659                79.7384

                     37                     38                     39
                      A                      A                      A
 Frequencies --   1067.4977              1092.9268              1111.8554
 Red. masses --      2.5017                 1.3627                 1.5675
 Frc consts  --      1.6797                 0.9590                 1.1417
 IR Inten    --    184.8862                14.7444                10.5956

                     40                     41                     42
                      A                      A                      A
 Frequencies --   1141.6592              1184.8348              1200.3974
 Red. masses --      2.9190                 1.1421                 1.4421
 Frc consts  --      2.2416                 0.9446                 1.2243
 IR Inten    --     56.3395                 0.0300                11.8148

                     43                     44                     45
                      A                      A                      A
 Frequencies --   1208.2887              1209.1263              1315.2030
 Red. masses --      1.2108                 1.3283                 4.5268
 Frc consts  --      1.0415                 1.1442                 4.6134
 IR Inten    --      8.4224                16.8920               145.4261

                     46                     47                     48
                      A                      A                      A
 Frequencies --   1329.9751              1343.3530              1361.3660
 Red. masses --      5.6870                 1.3444                 1.4264
 Frc consts  --      5.9268                 1.4294                 1.5576
 IR Inten    --    200.7127                17.1922                 3.1302

                     49                     50                     51
                      A                      A                      A
 Frequencies --   1398.5914              1463.6306              1488.7383
 Red. masses --      6.1059                 1.2120                 2.2152
 Frc consts  --      7.0369                 1.5298                 2.8927
 IR Inten    --   1650.3790                41.3783                15.9803

                     52                     53                     54
                      A                      A                      A
 Frequencies --   1489.9200              1504.9120              1541.9897
 Red. masses --      1.0406                 1.0307                 2.3231
 Frc consts  --      1.3611                 1.3754                 3.2545
 IR Inten    --     13.9685                12.2197                 4.0135

                     55                     56                     57
                      A                      A                      A
 Frequencies --   1643.5397              1648.1890              1660.1473
 Red. masses --      1.2409                 4.1509                 7.9116
 Frc consts  --      1.9749                 6.6437                12.8471
 IR Inten    --     37.0816                94.9722               286.3192

                     58                     59                     60
                      A                      A                      A
 Frequencies --   1675.7430              3060.3845              3135.6552
 Red. masses --      5.9063                 1.0352                 1.1025
 Frc consts  --      9.7719                 5.7127                 6.3868
 IR Inten    --     11.6622                61.2537                18.4329

                     61                     62                     63
                      A                      A                      A
 Frequencies --   3160.8000              3194.1241              3198.3237
 Red. masses --      1.1053                 1.0860                 1.0883
 Frc consts  --      6.5062                 6.5283                 6.5589
 IR Inten    --     15.6007                 2.0143                 0.6676

                     64                     65                     66
                      A                      A                      A
 Frequencies --   3205.5429              3213.9078              3223.1391
 Red. masses --      1.0918                 1.0953                 1.0990
 Frc consts  --      6.6099                 6.6661                 6.7265
 IR Inten    --      9.3510                35.0389                18.7691

                     67                     68                     69
                      A                      A                      A
 Frequencies --   3233.9730              3530.6752              3616.2080
 Red. masses --      1.0904                 1.0503                 1.0967
 Frc consts  --      6.7188                 7.7139                 8.4498
 IR Inten    --      8.1944                24.7862                43.8116

 - Thermochemistry -
 -------------------
 Temperature   298.150 Kelvin.  Pressure   1.00000 Atm.
 Atom     1 has atomic number  6 and mass  12.00000

 Molecular mass:   318.92074 amu.
 Principal axes and moments of inertia in atomic units:
                           1         2         3
     Eigenvalues --  2400.199688251.374719131.80746
           X            0.99948   0.02555   0.01948
           Y           -0.02686   0.99717   0.07024
           Z           -0.01763  -0.07073   0.99734
 This molecule is an asymmetric top.
 Rotational symmetry number  1.
 Warning -- assumption of classical behavior for rotation
           may cause significant error
 Rotational temperatures (Kelvin)      0.03609     0.01050     0.00948
 Rotational constants (GHZ):           0.75191     0.21872     0.19763
    1 imaginary frequencies ignored.
 Zero-point vibrational energy     502211.9 (Joules/Mol)
                                  120.03153 (Kcal/Mol)
 Warning -- explicit consideration of  20 degrees of freedom as
           vibrations may cause significant error
 Vibrational temperatures:     27.33    37.59    43.60    81.20    98.00
          (Kelvin)            137.36   171.44   217.45   232.37   261.23
                              277.25   330.50   388.34   497.49   567.72
                              594.33   621.62   759.69   827.46   874.93
                              913.10   959.57  1041.91  1073.77  1098.84
                             1172.03  1262.44  1299.64  1378.91  1429.28
                             1442.87  1453.32  1475.67  1483.09  1522.97
                             1535.89  1572.48  1599.71  1642.59  1704.71
                             1727.10  1738.46  1739.66  1892.28  1913.54
                             1932.79  1958.70  2012.26  2105.84  2141.96
                             2143.66  2165.23  2218.58  2364.69  2371.38
                             2388.58  2411.02  4403.21  4511.51  4547.69
                             4595.63  4601.67  4612.06  4624.10  4637.38
                             4652.97  5079.85  5202.92

 Zero-point correction=                           0.191282 (Hartree/Particle)
 Thermal correction to Energy=                    0.206272
 Thermal correction to Enthalpy=                  0.207216
 Thermal correction to Gibbs Free Energy=         0.144163
 Sum of electronic and zero-point Energies=          -5665.874326
 Sum of electronic and thermal Energies=             -5665.859337
 Sum of electronic and thermal Enthalpies=           -5665.858393
 Sum of electronic and thermal Free Energies=        -5665.921445

                     E (Thermal)             CV                S
                      KCal/Mol        Cal/Mol-Kelvin    Cal/Mol-Kelvin
 Total                  129.437             51.390            132.705
 Electronic               0.000              0.000              0.000
 Translational            0.889              2.981             43.175
 Rotational               0.889              2.981             33.558
 Vibrational            127.660             45.429             55.972
 Vibration     1          0.593              1.986              6.736
 Vibration     2          0.593              1.985              6.104
 Vibration     3          0.594              1.984              5.809
 Vibration     4          0.596              1.975              4.578
 Vibration     5          0.598              1.969              4.207
 Vibration     6          0.603              1.952              3.545
 Vibration     7          0.609              1.933              3.114
 Vibration     8          0.619              1.901              2.658
 Vibration     9          0.622              1.890              2.532
 Vibration    10          0.630              1.865              2.312
 Vibration    11          0.635              1.850              2.202
 Vibration    12          0.652              1.796              1.881
 Vibration    13          0.674              1.729              1.597
 Vibration    14          0.724              1.584              1.185
 Vibration    15          0.762              1.482              0.983
 Vibration    16          0.777              1.442              0.916
 Vibration    17          0.793              1.400              0.852
 Vibration    18          0.883              1.188              0.592
 Vibration    19          0.931              1.085              0.495
 Vibration    20          0.967              1.015              0.436

 Optimization completed.
    -- Stationary point found.
 Normal termination of Gaussian 16 at Sat Feb 20 16:15:22 2021.
