 Gaussian 16, Revision A.03,
 Gaussian 16:  ES64L-G16RevA.03 25-Dec-2016

 ----------------------------------------------------------------------
 # wB97XD def2tzvp, opt=(ts, noeigen, calcfc, maxcycles=70, maxstep=5),
  freq=noraman, scrf=(iefpcm, solvent=water)
 ----------------------------------------------------------------------

 ------------------------
 2_iteration/TS-630-2.out
 ------------------------
 Symbolic Z-matrix:
 Charge =  0 Multiplicity = 1

 SCF Done:  E(RwB97XD) =  -5800.05191546     A.U. after   16 cycles
 SCF Done:  E(RwB97XD) =  -5800.05191257     A.U. after   12 cycles
 SCF Done:  E(RwB97XD) =  -5800.05191604     A.U. after   11 cycles
 SCF Done:  E(RwB97XD) =  -5800.05191753     A.U. after   10 cycles
 SCF Done:  E(RwB97XD) =  -5800.05191786     A.U. after    7 cycles
 SCF Done:  E(RwB97XD) =  -5800.05191789     A.U. after    7 cycles
 Optimization completed.
    -- Stationary point found.
 Normal termination of Gaussian 16 at Sat Feb 20 21:22:54 2021.

 ---------------------------------------------------------------------
 #N Geom=AllCheck Guess=TCheck SCRF=Check GenChk RwB97XD/def2TZVP Freq
 ---------------------------------------------------------------------

 Structure from the checkpoint file:  "/beegfs/scratch/user/q/tla25/Gau-57396.chk"
 ------------------------
 2_iteration/TS-630-2.out
 ------------------------
 Charge =  0 Multiplicity = 1

                         Standard orientation:
 ---------------------------------------------------------------------
 Center     Atomic      Atomic             Coordinates (Angstroms)
 Number     Number       Type             X           Y           Z
 ---------------------------------------------------------------------
      1          6           0        0.779495    0.118079    0.168729
      2          6           0        0.824897    1.558355    0.505096
      3          8           0        0.174289    2.033089    1.438403
      4          6           0       -0.387036   -0.607128    0.153366
      5          6           0       -0.272425   -0.967234    2.918866
      6          1           0       -1.179092   -0.452839    3.225042
      7          1           0        0.052247   -1.639657    3.711570
      8          1           0        0.498535   -0.222415    2.724762
      9          7           0       -0.509828   -1.703165    1.678479
     10          1           0        0.253180   -2.347376    1.500052
     11          1           0       -1.360820   -2.255558    1.697699
     12         35           0       -0.456878   -2.179998   -1.129772
     13          6           0       -1.680270    0.141882    0.018760
     14          6           0       -1.789915    1.030816   -1.052105
     15          6           0       -2.946212    1.762174   -1.253712
     16          6           0       -4.026021    1.610305   -0.394975
     17          6           0       -3.934752    0.715540    0.657832
     18          6           0       -2.773413   -0.016588    0.861108
     19          1           0       -0.957094    1.144035   -1.733831
     20          1           0       -3.004652    2.450031   -2.087482
     21          1           0       -4.932732    2.180683   -0.549965
     22          1           0       -4.770107    0.581395    1.332894
     23          1           0       -2.750583   -0.700165    1.695446
     24         35           0        2.459405   -0.793817    0.128857
     25          7           0        1.632787    2.349516   -0.248121
     26          6           0        2.089953    2.019813   -1.581530
     27          6           0        1.855720    3.718815    0.164079
     28          1           0        1.634746    1.093459   -1.920576
     29          1           0        1.797967    2.818618   -2.268125
     30          1           0        3.177182    1.914570   -1.616106
     31          1           0        1.782521    3.795587    1.245391
     32          1           0        2.852400    4.027444   -0.153870
     33          1           0        1.122714    4.397571   -0.283667
 ---------------------------------------------------------------------

 SCF Done:  E(RwB97XD) =  -5800.05191789     A.U. after    1 cycles

 The electronic state is 1-A.
 Alpha  occ. eigenvalues -- -483.12701-483.12261 -62.67506 -62.67098 -56.46616
 Alpha  occ. eigenvalues --  -56.46278 -56.46271 -56.46200 -56.45870 -56.45860
 Alpha  occ. eigenvalues --  -19.20729 -14.49919 -14.46036 -10.40400 -10.38693
 Alpha  occ. eigenvalues --  -10.31821 -10.31780 -10.30872 -10.30699 -10.30506
 Alpha  occ. eigenvalues --  -10.30022 -10.29671 -10.29565 -10.29496 -10.29440
 Alpha  occ. eigenvalues --   -8.81600  -8.81186  -6.63717  -6.63276  -6.62635
 Alpha  occ. eigenvalues --   -6.62615  -6.62240  -6.62206  -2.74112  -2.73797
 Alpha  occ. eigenvalues --   -2.73779  -2.73659  -2.73381  -2.73353  -2.72904
 Alpha  occ. eigenvalues --   -2.72904  -2.72515  -2.72514  -1.13698  -1.05349
 Alpha  occ. eigenvalues --   -1.03409  -0.98162  -0.94074  -0.89044  -0.85928
 Alpha  occ. eigenvalues --   -0.85841  -0.82318  -0.81287  -0.79359  -0.79228
 Alpha  occ. eigenvalues --   -0.72072  -0.71195  -0.67736  -0.65300  -0.62447
 Alpha  occ. eigenvalues --   -0.60865  -0.58900  -0.57688  -0.56944  -0.56291
 Alpha  occ. eigenvalues --   -0.55918  -0.54351  -0.52961  -0.51745  -0.51443
 Alpha  occ. eigenvalues --   -0.51191  -0.48675  -0.48527  -0.48304  -0.47158
 Alpha  occ. eigenvalues --   -0.46837  -0.46515  -0.45490  -0.45098  -0.43357
 Alpha  occ. eigenvalues --   -0.43069  -0.39817  -0.38887  -0.37228  -0.36444
 Alpha  occ. eigenvalues --   -0.35067  -0.34236  -0.32833  -0.31919  -0.27095
 Alpha virt. eigenvalues --    0.00608   0.04390   0.05942   0.06897   0.09456
 Alpha virt. eigenvalues --    0.10327   0.11712   0.13444   0.14275   0.14962
 Alpha virt. eigenvalues --    0.15305   0.15770   0.16634   0.17071   0.17816

 Mulliken charges:
               1
     1  C   -0.319364
     2  C    0.278709
     3  O   -0.499363
     4  C    0.192994
     5  C   -0.277853
     6  H    0.149876
     7  H    0.161423
     8  H    0.154359
     9  N   -0.315207
    10  H    0.287004
    11  H    0.294378
    12  Br  -0.179465
    13  C    0.217022
    14  C   -0.267238
    15  C   -0.147347
    16  C   -0.143684
    17  C   -0.163208
    18  C   -0.214838
    19  H    0.165662
    20  H    0.144533
    21  H    0.146487
    22  H    0.145726
    23  H    0.137568
    24  Br  -0.135285
    25  N   -0.081707
    26  C   -0.312144
    27  C   -0.291000
    28  H    0.162605
    29  H    0.144139
    30  H    0.146754
    31  H    0.140927
    32  H    0.139849
    33  H    0.137687
 Sum of Mulliken charges =  -0.00000

 Dipole moment (field-independent basis, Debye):
    X=             -2.0030    Y=             -1.6254    Z=              1.7041  Tot=              3.0916
 Quadrupole moment (field-independent basis, Debye-Ang):
   XX=           -117.4469   YY=           -119.3449   ZZ=           -118.1265
   XY=              5.4298   XZ=             -6.5583   YZ=            -22.3288

  Exact polarizability: 311.218  -7.853 292.632 -22.408 -14.136 263.903
 Approx polarizability: 243.955  -7.892 232.193 -19.980 -11.323 224.987

 ******    1 imaginary frequencies (negative Signs) ******

                      1                      2                      3
                      A                      A                      A
 Frequencies --   -372.3361                28.2171                36.5274
 Red. masses --      5.6072                 4.4213                 4.1747
 Frc consts  --      0.4580                 0.0021                 0.0033
 IR Inten    --    484.9586                 3.7258                 0.2287

                      4                      5                      6
                      A                      A                      A
 Frequencies --     45.9941                70.8732                91.3833
 Red. masses --      5.1318                 5.1237                 3.8422
 Frc consts  --      0.0064                 0.0152                 0.0189
 IR Inten    --      4.8421                 3.3423                 0.9185

                      7                      8                      9
                      A                      A                      A
 Frequencies --    103.8039               113.1776               119.8602
 Red. masses --      7.7194                 2.5284                 1.7315
 Frc consts  --      0.0490                 0.0191                 0.0147
 IR Inten    --      9.7345                 3.6990                 2.3103

                     10                     11                     12
                      A                      A                      A
 Frequencies --    128.2368               141.2539               147.3295
 Red. masses --      2.5521                 2.3288                 2.0458
 Frc consts  --      0.0247                 0.0274                 0.0262
 IR Inten    --      6.0330                 4.0206                 2.2646

                     13                     14                     15
                      A                      A                      A
 Frequencies --    164.8810               195.4180               204.8007
 Red. masses --      2.1210                 2.7349                 2.5577
 Frc consts  --      0.0340                 0.0615                 0.0632
 IR Inten    --      3.4708                10.7683                 2.3573

                     16                     17                     18
                      A                      A                      A
 Frequencies --    236.4727               241.0026               253.8646
 Red. masses --      3.5503                 3.7085                 3.9899
 Frc consts  --      0.1170                 0.1269                 0.1515
 IR Inten    --      4.8320                12.1802                14.7357

                     19                     20                     21
                      A                      A                      A
 Frequencies --    267.2075               276.9619               306.1644
 Red. masses --      3.1489                 3.2423                 3.4901
 Frc consts  --      0.1325                 0.1465                 0.1928
 IR Inten    --      9.8044                13.4260                20.6854

                     22                     23                     24
                      A                      A                      A
 Frequencies --    367.4956               417.6978               424.8170
 Red. masses --      3.6896                 3.0751                 2.9687
 Frc consts  --      0.2936                 0.3161                 0.3157
 IR Inten    --     10.3456                 1.9583                 1.3177

                     25                     26                     27
                      A                      A                      A
 Frequencies --    465.8748               522.2555               564.2850
 Red. masses --      4.4530                 3.8528                 5.1402
 Frc consts  --      0.5694                 0.6191                 0.9643
 IR Inten    --     58.5263                43.2338               164.0874

                     28                     29                     30
                      A                      A                      A
 Frequencies --    582.1982               636.2613               639.5776
 Red. masses --      3.0569                 4.7479                 6.0796
 Frc consts  --      0.6105                 1.1325                 1.4652
 IR Inten    --     10.7377               119.2089                27.2501

                     31                     32                     33
                      A                      A                      A
 Frequencies --    681.2147               713.2935               723.1162
 Red. masses --      3.9781                 2.6633                 1.5271
 Frc consts  --      1.0877                 0.7984                 0.4705
 IR Inten    --     32.8081                48.8248               186.9211

                     34                     35                     36
                      A                      A                      A
 Frequencies --    770.1044               801.3039               851.6420
 Red. masses --      8.1631                 2.3255                 5.4057
 Frc consts  --      2.8523                 0.8798                 2.3100
 IR Inten    --    121.9593                 3.5185                38.9766

                     37                     38                     39
                      A                      A                      A
 Frequencies --    868.2321               921.9725               957.1456
 Red. masses --      1.2512                 3.9647                 1.5287
 Frc consts  --      0.5557                 1.9856                 0.8252
 IR Inten    --      0.8876                54.8439                 2.1266

                     40                     41                     42
                      A                      A                      A
 Frequencies --   1002.0548              1012.3015              1025.0380
 Red. masses --      1.1794                 1.3169                 5.2500
 Frc consts  --      0.6977                 0.7951                 3.2501
 IR Inten    --     24.9362                 5.6259                 3.3876

                     43                     44                     45
                      A                      A                      A
 Frequencies --   1030.2559              1045.1291              1067.4242
 Red. masses --      1.3137                 2.5318                 2.0854
 Frc consts  --      0.8216                 1.6294                 1.4000
 IR Inten    --      0.6396                20.4716                 3.8415

                     46                     47                     48
                      A                      A                      A
 Frequencies --   1071.5950              1083.3272              1085.6678
 Red. masses --      3.7573                 1.2954                 1.3670
 Frc consts  --      2.5420                 0.8957                 0.9493
 IR Inten    --     15.9274               132.6707                42.9030

                     49                     50                     51
                      A                      A                      A
 Frequencies --   1126.7271              1131.9683              1170.5238
 Red. masses --      1.5756                 1.2332                 1.4555
 Frc consts  --      1.1785                 0.9310                 1.1750
 IR Inten    --      6.9629                 0.9978                 2.8969

                     52                     53                     54
                      A                      A                      A
 Frequencies --   1185.9013              1188.4994              1222.3708
 Red. masses --      1.2312                 2.2403                 1.1459
 Frc consts  --      1.0202                 1.8644                 1.0088
 IR Inten    --     10.9300                76.4998                 6.1329

                     55                     56                     57
                      A                      A                      A
 Frequencies --   1227.0894              1241.2352              1316.2668
 Red. masses --      2.4928                 1.7327                 5.3148
 Frc consts  --      2.2115                 1.5728                 5.4253
 IR Inten    --    355.5994                58.8609                58.9187

                     58                     59                     60
                      A                      A                      A
 Frequencies --   1318.0307              1337.9416              1365.6790
 Red. masses --      4.6691                 1.3033                 1.4230
 Frc consts  --      4.7790                 1.3746                 1.5637
 IR Inten    --     32.3959                 7.9858                 4.5424

                     61                     62                     63
                      A                      A                      A
 Frequencies --   1428.2932              1444.6924              1450.8021
 Red. masses --      2.2040                 1.1747                 2.1390
 Frc consts  --      2.6491                 1.4445                 2.6527
 IR Inten    --    476.2054                 5.0074               344.8933

                     64                     65                     66
                      A                      A                      A
 Frequencies --   1471.0270              1476.1653              1483.0839
 Red. masses --      1.2075                 1.6286                 1.0933
 Frc consts  --      1.5394                 2.0909                 1.4169
 IR Inten    --     80.2956                54.0572                 5.0087

                     67                     68                     69
                      A                      A                      A
 Frequencies --   1488.7866              1491.6345              1494.9901
 Red. masses --      1.0417                 1.3323                 1.6009
 Frc consts  --      1.3603                 1.7465                 2.1081
 IR Inten    --     26.1273                45.6914                84.0801

                     70                     71                     72
                      A                      A                      A
 Frequencies --   1501.0180              1502.5937              1534.7483
 Red. masses --      1.0556                 1.0430                 1.5037
 Frc consts  --      1.4013                 1.3875                 2.0868
 IR Inten    --     24.6222                 9.7772               217.6385

                     73                     74                     75
                      A                      A                      A
 Frequencies --   1546.7072              1637.9864              1652.9044
 Red. masses --      2.3927                 1.1355                 4.8543
 Frc consts  --      3.3725                 1.7949                 7.8140
 IR Inten    --     24.0959               101.9894               101.4729

                     76                     77                     78
                      A                      A                      A
 Frequencies --   1659.0039              1674.5213              3033.7798
 Red. masses --      8.1634                 5.8875                 1.0438
 Frc consts  --     13.2378                 9.7266                 5.6602
 IR Inten    --    614.0785                 0.5812                71.3540

                     79                     80                     81
                      A                      A                      A
 Frequencies --   3040.8853              3080.2318              3096.1759
 Red. masses --      1.0389                 1.0334                 1.1033
 Frc consts  --      5.6601                 5.7769                 6.2316
 IR Inten    --    106.1098                38.2802                59.8665

                     82                     83                     84
                      A                      A                      A
 Frequencies --   3108.0633              3161.7916              3173.4492
 Red. masses --      1.0958                 1.1049                 1.1004
 Frc consts  --      6.2369                 6.5079                 6.5291
 IR Inten    --     26.1606                 3.7663                10.2749

                     85                     86                     87
                      A                      A                      A
 Frequencies --   3173.8175              3183.2347              3200.4783
 Red. masses --      1.0985                 1.1049                 1.0862
 Frc consts  --      6.5195                 6.5963                 6.5551
 IR Inten    --     14.1021                13.9099                 0.3269

                     88                     89                     90
                      A                      A                      A
 Frequencies --   3209.0522              3218.0498              3226.1404
 Red. masses --      1.0894                 1.0935                 1.0979
 Frc consts  --      6.6100                 6.6720                 6.7328
 IR Inten    --      5.1864                21.1073                19.2925

                     91                     92                     93
                      A                      A                      A
 Frequencies --   3252.2489              3513.8950              3588.8716
 Red. masses --      1.0919                 1.0518                 1.0957
 Frc consts  --      6.8047                 7.6517                 8.3148
 IR Inten    --     18.3059                40.6204                56.4309

 - Thermochemistry -
 -------------------
 Temperature   298.150 Kelvin.  Pressure   1.00000 Atm.
 Atom     1 has atomic number  6 and mass  12.00000

 Molecular mass:   361.96294 amu.
 Principal axes and moments of inertia in atomic units:
                           1         2         3
     Eigenvalues --  5216.067466467.599868706.77014
           X            0.99761   0.06392  -0.02636
           Y           -0.06592   0.99430  -0.08382
           Z            0.02085   0.08536   0.99613
 This molecule is an asymmetric top.
 Rotational symmetry number  1.
 Warning -- assumption of classical behavior for rotation
           may cause significant error
 Rotational temperatures (Kelvin)      0.01661     0.01339     0.00995
 Rotational constants (GHZ):           0.34600     0.27904     0.20728
    1 imaginary frequencies ignored.
 Zero-point vibrational energy     697040.5 (Joules/Mol)
                                  166.59667 (Kcal/Mol)
 Warning -- explicit consideration of  27 degrees of freedom as
           vibrations may cause significant error
 Vibrational temperatures:     40.60    52.55    66.18   101.97   131.48
          (Kelvin)            149.35   162.84   172.45   184.50   203.23
                              211.97   237.23   281.16   294.66   340.23
                              346.75   365.25   384.45   398.49   440.50
                              528.74   600.97   611.22   670.29   751.41
                              811.88   837.65   915.44   920.21   980.12
                             1026.27  1040.40  1108.01  1152.90  1225.32
                             1249.19  1326.51  1377.12  1441.73  1456.48
                             1474.80  1482.31  1503.71  1535.79  1541.79
                             1558.67  1562.03  1621.11  1628.65  1684.12
                             1706.25  1709.99  1758.72  1765.51  1785.86
                             1893.81  1896.35  1925.00  1964.91  2055.00
                             2078.59  2087.38  2116.48  2123.87  2133.83
                             2142.03  2146.13  2150.96  2159.63  2161.90
                             2208.16  2225.37  2356.70  2378.16  2386.94
                             2409.26  4364.93  4375.16  4431.77  4454.71
                             4471.81  4549.11  4565.89  4566.42  4579.96
                             4604.77  4617.11  4630.06  4641.70  4679.26
                             5055.71  5163.59

 Zero-point correction=                           0.265489 (Hartree/Particle)
 Thermal correction to Energy=                    0.284391
 Thermal correction to Enthalpy=                  0.285335
 Thermal correction to Gibbs Free Energy=         0.216079
 Sum of electronic and zero-point Energies=          -5799.786429
 Sum of electronic and thermal Energies=             -5799.767527
 Sum of electronic and thermal Enthalpies=           -5799.766583
 Sum of electronic and thermal Free Energies=        -5799.835839

                     E (Thermal)             CV                S
                      KCal/Mol        Cal/Mol-Kelvin    Cal/Mol-Kelvin
 Total                  178.458             66.619            145.762
 Electronic               0.000              0.000              0.000
 Translational            0.889              2.981             43.552
 Rotational               0.889              2.981             34.040
 Vibrational            176.681             60.657             68.170
 Vibration     1          0.593              1.984              5.951
 Vibration     2          0.594              1.982              5.439
 Vibration     3          0.595              1.979              4.983
 Vibration     4          0.598              1.968              4.129
 Vibration     5          0.602              1.955              3.630
 Vibration     6          0.605              1.946              3.382
 Vibration     7          0.607              1.939              3.214
 Vibration     8          0.609              1.933              3.103
 Vibration     9          0.611              1.925              2.972
 Vibration    10          0.615              1.912              2.787
 Vibration    11          0.617              1.906              2.706
 Vibration    12          0.623              1.886              2.493
 Vibration    13          0.636              1.846              2.176
 Vibration    14          0.640              1.833              2.090
 Vibration    15          0.655              1.785              1.829
 Vibration    16          0.658              1.778              1.795
 Vibration    17          0.665              1.756              1.704
 Vibration    18          0.672              1.733              1.614
 Vibration    19          0.678              1.716              1.552
 Vibration    20          0.697              1.662              1.383
 Vibration    21          0.740              1.539              1.090
 Vibration    22          0.781              1.432              0.900
 Vibration    23          0.787              1.416              0.876
 Vibration    24          0.823              1.326              0.749
 Vibration    25          0.877              1.201              0.605
 Vibration    26          0.920              1.109              0.515
 Vibration    27          0.939              1.070              0.481

 Optimization completed.
    -- Stationary point found.
 Normal termination of Gaussian 16 at Sat Feb 20 23:09:07 2021.
