 Gaussian 16, Revision A.03,
 Gaussian 16:  ES64L-G16RevA.03 25-Dec-2016

 ----------------------------------------------------------------------
 # wB97XD def2tzvp, opt=(ts, noeigen, calcfc, maxcycles=70, maxstep=5),
  freq=noraman, scrf=(iefpcm, solvent=water)
 ----------------------------------------------------------------------

 ------------------------
 2_iteration/TS-621-2.out
 ------------------------
 Symbolic Z-matrix:
 Charge =  0 Multiplicity = 1

 SCF Done:  E(RwB97XD) =  -3226.45039797     A.U. after   15 cycles
 Optimization completed.
    -- Stationary point found.
 Normal termination of Gaussian 16 at Sat Feb 20 17:00:08 2021.

 ---------------------------------------------------------------------
 #N Geom=AllCheck Guess=TCheck SCRF=Check GenChk RwB97XD/def2TZVP Freq
 ---------------------------------------------------------------------

 Structure from the checkpoint file:  "/beegfs/scratch/user/q/tla25/Gau-62729.chk"
 ------------------------
 2_iteration/TS-621-2.out
 ------------------------
 Charge =  0 Multiplicity = 1

                         Standard orientation:
 ---------------------------------------------------------------------
 Center     Atomic      Atomic             Coordinates (Angstroms)
 Number     Number       Type             X           Y           Z
 ---------------------------------------------------------------------
      1          6           0        1.212009   -0.648545   -0.015081
      2          6           0        2.035784    0.555361    0.048019
      3          8           0        1.700269    1.635473    0.550829
      4          6           0       -0.149371   -0.562609    0.180569
      5          6           0        0.230018   -0.892581    2.890719
      6          1           0        1.250748   -0.826375    2.513049
      7          1           0       -0.087178    0.094831    3.215049
      8          1           0        0.192885   -1.584321    3.730319
      9          7           0       -0.618294   -1.356377    1.795389
     10          1           0       -0.456179   -2.339868    1.612219
     11          1           0       -1.609834   -1.256073    1.986179
     12         35           0       -1.261347   -1.941204   -0.919631
     13          6           0       -0.910125    0.722994    0.081549
     14          6           0       -1.693543    1.265208    1.091269
     15          6           0       -2.374558    2.460721    0.896639
     16          6           0       -2.292735    3.125480   -0.313751
     17          6           0       -1.524747    2.582347   -1.337101
     18          6           0       -0.848642    1.394354   -1.141531
     19          1           0       -1.782625    0.792398    2.057929
     20          1           0       -2.970496    2.868143    1.703289
     21          1           0       -2.825231    4.055893   -0.463861
     22          1           0       -1.455325    3.087007   -2.292441
     23          1           0       -0.253384    0.973131   -1.941481
     24          6           0        1.892653   -1.980578   -0.224641
     25          1           0        1.265729   -2.810015    0.100669
     26          1           0        2.132792   -2.175769   -1.277181
     27          1           0        2.823143   -2.047092    0.343279
     28          7           0        3.293724    0.428786   -0.471271
     29          6           0        4.208238    1.543482   -0.516831
     30          1           0        3.507450   -0.372365   -1.035531
     31          1           0        4.346730    1.966761    0.478369
     32          1           0        5.171237    1.189398   -0.880521
     33          1           0        3.856632    2.342013   -1.176701
 ---------------------------------------------------------------------

 SCF Done:  E(RwB97XD) =  -3226.45039797     A.U. after    1 cycles

 The electronic state is 1-A.
 Alpha  occ. eigenvalues -- -483.11234 -62.66083 -56.45164 -56.44863 -56.44854
 Alpha  occ. eigenvalues --  -19.19130 -14.50179 -14.43931 -10.39605 -10.36913
 Alpha  occ. eigenvalues --  -10.32044 -10.31244 -10.30326 -10.29619 -10.29213
 Alpha  occ. eigenvalues --  -10.29148 -10.29112 -10.29054 -10.27554 -10.26075
 Alpha  occ. eigenvalues --   -8.80172  -6.62198  -6.61259  -6.61227  -2.72587
 Alpha  occ. eigenvalues --   -2.72341  -2.72315  -2.71555  -2.71555  -1.11927
 Alpha  occ. eigenvalues --   -1.05594  -1.00540  -0.97505  -0.92318  -0.86264
 Alpha  occ. eigenvalues --   -0.85466  -0.84867  -0.79569  -0.79306  -0.77972
 Alpha  occ. eigenvalues --   -0.71415  -0.70841  -0.67804  -0.65279  -0.64539
 Alpha  occ. eigenvalues --   -0.61123  -0.58772  -0.57653  -0.56318  -0.54673
 Alpha  occ. eigenvalues --   -0.54030  -0.53584  -0.52413  -0.51109  -0.50789
 Alpha  occ. eigenvalues --   -0.50163  -0.49437  -0.48450  -0.47499  -0.46652
 Alpha  occ. eigenvalues --   -0.45844  -0.45537  -0.45153  -0.44215  -0.42557
 Alpha  occ. eigenvalues --   -0.42378  -0.37233  -0.36663  -0.34436  -0.34045
 Alpha  occ. eigenvalues --   -0.32496  -0.31378  -0.26425
 Alpha virt. eigenvalues --    0.01175   0.05149   0.07214   0.07695   0.09934
 Alpha virt. eigenvalues --    0.11980   0.12978   0.14164   0.14908   0.15178
 Alpha virt. eigenvalues --    0.16031   0.16387   0.17271   0.17963   0.18616

 Mulliken charges:
               1
     1  C   -0.269946
     2  C    0.371455
     3  O   -0.550301
     4  C    0.199289
     5  C   -0.288606
     6  H    0.162236
     7  H    0.153989
     8  H    0.165285
     9  N   -0.288719
    10  H    0.283861
    11  H    0.293408
    12  Br  -0.246668
    13  C    0.283287
    14  C   -0.237490
    15  C   -0.172270
    16  C   -0.152890
    17  C   -0.128468
    18  C   -0.318705
    19  H    0.134801
    20  H    0.142927
    21  H    0.144214
    22  H    0.142700
    23  H    0.152451
    24  C   -0.449671
    25  H    0.129395
    26  H    0.141015
    27  H    0.142410
    28  N   -0.324183
    29  C   -0.254746
    30  H    0.258219
    31  H    0.125723
    32  H    0.136595
    33  H    0.119404
 Sum of Mulliken charges =   0.00000

 Dipole moment (field-independent basis, Debye):
    X=             -0.1764    Y=             -4.0439    Z=              3.9454  Tot=              5.6525
 Quadrupole moment (field-independent basis, Debye-Ang):
   XX=            -99.8584   YY=           -109.2497   ZZ=            -93.8482
   XY=             -9.9344   XZ=            -12.8560   YZ=            -13.3910

  Exact polarizability: 275.648  -2.138 276.354 -15.394   3.054 245.144
 Approx polarizability: 210.244  -4.788 218.374 -14.105   2.699 207.589

 ******    1 imaginary frequencies (negative Signs) ******

                      1                      2                      3
                      A                      A                      A
 Frequencies --   -392.5431                41.0437                44.8527
 Red. masses --      5.6037                 3.7976                 3.6306
 Frc consts  --      0.5087                 0.0038                 0.0043
 IR Inten    --    443.3178                 0.6050                 7.2775

                      4                      5                      6
                      A                      A                      A
 Frequencies --     58.8085                81.6117               104.2220
 Red. masses --      4.6476                 4.9560                 3.1221
 Frc consts  --      0.0095                 0.0194                 0.0200
 IR Inten    --      1.7114                 8.1132                10.8077

                      7                      8                      9
                      A                      A                      A
 Frequencies --    119.9957               129.0674               142.2217
 Red. masses --      3.8931                 1.2722                 2.5968
 Frc consts  --      0.0330                 0.0125                 0.0309
 IR Inten    --     38.7347                 0.6887                 3.5065

                     10                     11                     12
                      A                      A                      A
 Frequencies --    149.6118               156.0523               165.2173
 Red. masses --      1.3995                 1.6028                 2.7170
 Frc consts  --      0.0185                 0.0230                 0.0437
 IR Inten    --      3.7428                 8.9161                10.5829

                     13                     14                     15
                      A                      A                      A
 Frequencies --    173.6160               207.6969               231.3669
 Red. masses --      2.0968                 3.7761                 4.8622
 Frc consts  --      0.0372                 0.0960                 0.1533
 IR Inten    --     22.1180                10.7820                59.9124

                     16                     17                     18
                      A                      A                      A
 Frequencies --    264.7530               285.7110               313.4379
 Red. masses --      3.0387                 3.4041                 3.5435
 Frc consts  --      0.1255                 0.1637                 0.2051
 IR Inten    --      7.6425                12.7774                14.5056

                     19                     20                     21
                      A                      A                      A
 Frequencies --    338.1753               344.1003               360.4673
 Red. masses --      2.3280                 3.6132                 3.9231
 Frc consts  --      0.1569                 0.2521                 0.3003
 IR Inten    --     45.1725                53.1536                 7.5328

                     22                     23                     24
                      A                      A                      A
 Frequencies --    421.6418               439.8876               501.0121
 Red. masses --      2.8777                 1.3447                 3.9119
 Frc consts  --      0.3014                 0.1533                 0.5785
 IR Inten    --      0.5902                94.1039                80.3222

                     25                     26                     27
                      A                      A                      A
 Frequencies --    529.8433               573.2819               618.7586
 Red. masses --      4.8884                 4.4060                 2.5069
 Frc consts  --      0.8086                 0.8532                 0.5655
 IR Inten    --     63.7887               137.4086               211.1962

                     28                     29                     30
                      A                      A                      A
 Frequencies --    638.2383               656.6300               709.0531
 Red. masses --      6.0933                 4.6464                 2.1384
 Frc consts  --      1.4624                 1.1803                 0.6334
 IR Inten    --     16.8756               161.3239                29.3157

                     31                     32                     33
                      A                      A                      A
 Frequencies --    721.4322               786.7856               789.6041
 Red. masses --      1.5580                 4.3850                 2.8345
 Frc consts  --      0.4778                 1.5993                 1.0412
 IR Inten    --    130.1104                33.2544                74.2675

                     34                     35                     36
                      A                      A                      A
 Frequencies --    837.3675               866.1308               897.7838
 Red. masses --      3.2585                 1.2568                 2.7655
 Frc consts  --      1.3462                 0.5555                 1.3133
 IR Inten    --    109.1044                 0.4515                52.9904

                     37                     38                     39
                      A                      A                      A
 Frequencies --    949.7589              1002.0536              1007.7215
 Red. masses --      1.4509                 1.1531                 1.3368
 Frc consts  --      0.7711                 0.6822                 0.7998
 IR Inten    --      1.9259                47.9479                 9.9725

                     40                     41                     42
                      A                      A                      A
 Frequencies --   1023.7807              1026.9098              1029.4580
 Red. masses --      4.6185                 1.3123                 2.1419
 Frc consts  --      2.8521                 0.8154                 1.3374
 IR Inten    --     37.3069                 0.3164               158.8722

                     43                     44                     45
                      A                      A                      A
 Frequencies --   1056.9044              1067.8516              1069.7792
 Red. masses --      1.4602                 1.6894                 2.9757
 Frc consts  --      0.9610                 1.1350                 2.0065
 IR Inten    --     34.7258                10.5655                53.6877

                     46                     47                     48
                      A                      A                      A
 Frequencies --   1072.2205              1081.7235              1130.3499
 Red. masses --      1.6763                 2.7128                 1.5928
 Frc consts  --      1.1354                 1.8703                 1.1990
 IR Inten    --     18.7321               105.6987                 9.8934

                     49                     50                     51
                      A                      A                      A
 Frequencies --   1153.4086              1185.0235              1186.0018
 Red. masses --      1.2969                 1.2748                 1.4593
 Frc consts  --      1.0165                 1.0547                 1.2094
 IR Inten    --      4.8038                 6.9716                15.5369

                     52                     53                     54
                      A                      A                      A
 Frequencies --   1209.4379              1227.0838              1231.0262
 Red. masses --      3.7898                 1.1650                 1.5654
 Frc consts  --      3.2661                 1.0335                 1.3977
 IR Inten    --     54.7162                 4.6523                50.6876

                     55                     56                     57
                      A                      A                      A
 Frequencies --   1245.1331              1312.4039              1320.9969
 Red. masses --      2.5010                 3.1103                 4.7828
 Frc consts  --      2.2846                 3.1563                 4.9174
 IR Inten    --     18.8966               691.4659                10.6219

                     58                     59                     60
                      A                      A                      A
 Frequencies --   1336.8245              1371.8798              1421.4881
 Red. masses --      1.3246                 1.3833                 1.2659
 Frc consts  --      1.3947                 1.5339                 1.5070
 IR Inten    --     20.4130                 4.5543                50.6680

                     61                     62                     63
                      A                      A                      A
 Frequencies --   1443.9415              1456.7568              1478.3624
 Red. masses --      1.2346                 1.2039                 1.0667
 Frc consts  --      1.5166                 1.5053                 1.3736
 IR Inten    --     72.5194                21.7219                29.3486

                     64                     65                     66
                      A                      A                      A
 Frequencies --   1480.5468              1486.9514              1491.7444
 Red. masses --      1.9005                 1.1333                 1.6813
 Frc consts  --      2.4545                 1.4763                 2.2044
 IR Inten    --    200.2648                 5.6593                25.1099

                     67                     68                     69
                      A                      A                      A
 Frequencies --   1493.0278              1503.8773              1505.8060
 Red. masses --      1.1233                 1.0767                 1.0835
 Frc consts  --      1.4753                 1.4347                 1.4475
 IR Inten    --     40.6436                16.0592                 2.2215

                     70                     71                     72
                      A                      A                      A
 Frequencies --   1513.6327              1549.5531              1550.8923
 Red. masses --      1.4342                 1.8108                 2.3132
 Frc consts  --      1.9360                 2.5617                 3.2781
 IR Inten    --    484.9565               553.4059                79.4203

                     73                     74                     75
                      A                      A                      A
 Frequencies --   1645.4618              1656.1247              1666.8609
 Red. masses --      1.4615                 2.4768                 7.2308
 Frc consts  --      2.3315                 4.0025                11.8368
 IR Inten    --    130.2630                18.4042               492.0575

                     76                     77                     78
                      A                      A                      A
 Frequencies --   1676.5465              3010.3474              3038.5403
 Red. masses --      5.6539                 1.0524                 1.0426
 Frc consts  --      9.3633                 5.6193                 5.6716
 IR Inten    --      8.9675                89.3920                98.5618

                     79                     80                     81
                      A                      A                      A
 Frequencies --   3075.2383              3083.9751              3106.4103
 Red. masses --      1.0342                 1.0868                 1.0948
 Frc consts  --      5.7627                 6.0902                 6.2244
 IR Inten    --     38.6582                44.0557                47.5607

                     82                     83                     84
                      A                      A                      A
 Frequencies --   3131.4750              3152.6955              3154.3540
 Red. masses --      1.0979                 1.1027                 1.1038
 Frc consts  --      6.3430                 6.4578                 6.4710
 IR Inten    --     29.0375                27.3228                 3.5747

                     85                     86                     87
                      A                      A                      A
 Frequencies --   3183.1889              3196.8972              3205.0239
 Red. masses --      1.1050                 1.0860                 1.0891
 Frc consts  --      6.5969                 6.5393                 6.5915
 IR Inten    --     14.2380                 0.9967                 5.3110

                     88                     89                     90
                      A                      A                      A
 Frequencies --   3214.1826              3222.8996              3244.4839
 Red. masses --      1.0936                 1.0978                 1.0918
 Frc consts  --      6.6566                 6.7185                 6.7713
 IR Inten    --     23.5995                23.2962                17.0825

                     91                     92                     93
                      A                      A                      A
 Frequencies --   3522.7796              3597.7108              3689.4340
 Red. masses --      1.0517                 1.0955                 1.0776
 Frc consts  --      7.6895                 8.3544                 8.6426
 IR Inten    --     39.0177                51.2730                53.5897

 - Thermochemistry -
 -------------------
 Temperature   298.150 Kelvin.  Pressure   1.00000 Atm.
 Atom     1 has atomic number  6 and mass  12.00000

 Molecular mass:   284.05242 amu.
 Principal axes and moments of inertia in atomic units:
                           1         2         3
     Eigenvalues --  4252.777874750.517376561.88663
           X            0.95969  -0.27879  -0.03573
           Y            0.27629   0.95906  -0.06222
           Z            0.05161   0.04984   0.99742
 This molecule is an asymmetric top.
 Rotational symmetry number  1.
 Warning -- assumption of classical behavior for rotation
           may cause significant error
 Rotational temperatures (Kelvin)      0.02037     0.01823     0.01320
 Rotational constants (GHZ):           0.42437     0.37990     0.27503
    1 imaginary frequencies ignored.
 Zero-point vibrational energy     722834.1 (Joules/Mol)
                                  172.76149 (Kcal/Mol)
 Warning -- explicit consideration of  26 degrees of freedom as
           vibrations may cause significant error
 Vibrational temperatures:     59.05    64.53    84.61   117.42   149.95
          (Kelvin)            172.65   185.70   204.63   215.26   224.52
                              237.71   249.79   298.83   332.89   380.92
                              411.07   450.97   486.56   495.08   518.63
                              606.65   632.90   720.84   762.33   824.82
                              890.26   918.28   944.74  1020.17  1037.98
                             1132.01  1136.06  1204.79  1246.17  1291.71
                             1366.49  1441.73  1449.89  1472.99  1477.49
                             1481.16  1520.65  1536.40  1539.17  1542.69
                             1556.36  1626.32  1659.50  1704.98  1706.39
                             1740.11  1765.50  1771.17  1791.47  1888.26
                             1900.62  1923.39  1973.83  2045.20  2077.51
                             2095.95  2127.03  2130.18  2139.39  2146.29
                             2148.13  2163.74  2166.52  2177.78  2229.46
                             2231.39  2367.45  2382.79  2398.24  2412.18
                             4331.22  4371.78  4424.58  4437.15  4469.43
                             4505.49  4536.03  4538.41  4579.90  4599.62
                             4611.31  4624.49  4637.03  4668.09  5068.49
                             5176.30  5308.27

 Zero-point correction=                           0.275313 (Hartree/Particle)
 Thermal correction to Energy=                    0.292909
 Thermal correction to Enthalpy=                  0.293854
 Thermal correction to Gibbs Free Energy=         0.228945
 Sum of electronic and zero-point Energies=          -3226.175085
 Sum of electronic and thermal Energies=             -3226.157489
 Sum of electronic and thermal Enthalpies=           -3226.156544
 Sum of electronic and thermal Free Energies=        -3226.221453

                     E (Thermal)             CV                S
                      KCal/Mol        Cal/Mol-Kelvin    Cal/Mol-Kelvin
 Total                  183.803             63.491            136.612
 Electronic               0.000              0.000              0.000
 Translational            0.889              2.981             42.830
 Rotational               0.889              2.981             33.249
 Vibrational            182.026             57.530             60.533
 Vibration     1          0.594              1.981              5.208
 Vibration     2          0.595              1.979              5.032
 Vibration     3          0.596              1.974              4.497
 Vibration     4          0.600              1.962              3.852
 Vibration     5          0.605              1.946              3.374
 Vibration     6          0.609              1.933              3.100
 Vibration     7          0.612              1.924              2.960
 Vibration     8          0.616              1.911              2.774
 Vibration     9          0.618              1.903              2.677
 Vibration    10          0.620              1.896              2.597
 Vibration    11          0.624              1.885              2.489
 Vibration    12          0.627              1.875              2.396
 Vibration    13          0.641              1.829              2.064
 Vibration    14          0.653              1.793              1.868
 Vibration    15          0.671              1.738              1.630
 Vibration    16          0.683              1.700              1.499
 Vibration    17          0.701              1.648              1.344
 Vibration    18          0.718              1.599              1.221
 Vibration    19          0.723              1.587              1.193
 Vibration    20          0.735              1.554              1.120
 Vibration    21          0.784              1.423              0.886
 Vibration    22          0.800              1.383              0.827
 Vibration    23          0.856              1.248              0.656
 Vibration    24          0.885              1.184              0.588
 Vibration    25          0.930              1.089              0.498
 Vibration    26          0.979              0.992              0.418

 Optimization completed.
    -- Stationary point found.
 Normal termination of Gaussian 16 at Sat Feb 20 18:28:24 2021.
