 Gaussian 16, Revision A.03,
 Gaussian 16:  ES64L-G16RevA.03 25-Dec-2016

 ----------------------------------------------------------------------
 # wB97XD def2tzvp, opt=(ts, noeigen, calcfc, maxcycles=70, maxstep=3),
  freq=noraman, scrf=(iefpcm, solvent=water)
 ----------------------------------------------------------------------

 ------------------------
 0_iteration/TS-681-0.out
 ------------------------
 Symbolic Z-matrix:
 Charge =  0 Multiplicity = 1

 SCF Done:  E(RwB97XD) =  -3131.76632576     A.U. after   15 cycles
 SCF Done:  E(RwB97XD) =  -3131.76632919     A.U. after    8 cycles
 SCF Done:  E(RwB97XD) =  -3131.76633965     A.U. after    8 cycles
 SCF Done:  E(RwB97XD) =  -3131.76638237     A.U. after    9 cycles
 SCF Done:  E(RwB97XD) =  -3131.76654807     A.U. after   10 cycles
 SCF Done:  E(RwB97XD) =  -3131.76680232     A.U. after   10 cycles
 SCF Done:  E(RwB97XD) =  -3131.76711802     A.U. after   10 cycles
 SCF Done:  E(RwB97XD) =  -3131.76746951     A.U. after    9 cycles
 SCF Done:  E(RwB97XD) =  -3131.76782803     A.U. after   10 cycles
 SCF Done:  E(RwB97XD) =  -3131.76816786     A.U. after   11 cycles
 SCF Done:  E(RwB97XD) =  -3131.76847148     A.U. after   10 cycles
 SCF Done:  E(RwB97XD) =  -3131.76873346     A.U. after   10 cycles
 SCF Done:  E(RwB97XD) =  -3131.76894882     A.U. after   10 cycles
 SCF Done:  E(RwB97XD) =  -3131.76907772     A.U. after   11 cycles
 SCF Done:  E(RwB97XD) =  -3131.76912898     A.U. after   10 cycles
 SCF Done:  E(RwB97XD) =  -3131.76913431     A.U. after   10 cycles
 SCF Done:  E(RwB97XD) =  -3131.76913815     A.U. after    8 cycles
 SCF Done:  E(RwB97XD) =  -3131.76913948     A.U. after    8 cycles
 SCF Done:  E(RwB97XD) =  -3131.76913933     A.U. after    7 cycles
 Optimization completed.
    -- Stationary point found.
 Normal termination of Gaussian 16 at Sun Mar 28 11:51:38 2021.

 ---------------------------------------------------------------------
 #N Geom=AllCheck Guess=TCheck SCRF=Check GenChk RwB97XD/def2TZVP Freq
 ---------------------------------------------------------------------

 Structure from the checkpoint file:  "/beegfs/scratch/user/q/tla25/Gau-6212.chk"
 ------------------------
 0_iteration/TS-681-0.out
 ------------------------
 Charge =  0 Multiplicity = 1

                         Standard orientation:
 ---------------------------------------------------------------------
 Center     Atomic      Atomic             Coordinates (Angstroms)
 Number     Number       Type             X           Y           Z
 ---------------------------------------------------------------------
      1          6           0        0.078140    1.104912   -0.293829
      2          6           0        0.205806    2.498228   -0.545018
      3          8           0        1.263474    3.133724   -0.555832
      4          6           0       -1.187538    0.514493   -0.282047
      5          6           0       -3.008297   -0.220691    2.000057
      6          1           0       -3.064161   -0.378051    3.077923
      7          1           0       -3.777802    0.489517    1.706432
      8          1           0       -3.182959   -1.168884    1.493748
      9          7           0       -1.697301    0.294116    1.605078
     10          1           0       -1.541032    1.231203    1.960328
     11          1           0       -0.952440   -0.294377    1.961615
     12         35           0       -1.239989   -1.384357   -0.760336
     13          6           0       -2.428072    1.207639   -0.775408
     14          1           0       -2.570276    2.163750   -0.273933
     15          1           0       -2.343621    1.382060   -1.847971
     16          1           0       -3.309091    0.595208   -0.602109
     17          6           0        1.319124    0.338697    0.010645
     18          6           0        2.078974   -0.223095   -1.014131
     19          6           0        3.241286   -0.926664   -0.738826
     20          6           0        3.669248   -1.079949    0.573351
     21          6           0        2.931922   -0.515972    1.603178
     22          6           0        1.770813    0.191219    1.320304
     23          1           0        1.746078   -0.109296   -2.038837
     24          1           0        3.814915   -1.357780   -1.550055
     25          1           0        4.575550   -1.631286    0.790252
     26          1           0        3.261777   -0.620807    2.629327
     27          1           0        1.216885    0.649539    2.131593
     28          1           0       -0.729334    3.040190   -0.765085
 ---------------------------------------------------------------------

 SCF Done:  E(RwB97XD) =  -3131.76913933     A.U. after    1 cycles

 The electronic state is 1-A.
 Alpha  occ. eigenvalues -- -483.13064 -62.67910 -56.47017 -56.46682 -56.46662
 Alpha  occ. eigenvalues --  -19.20875 -14.48748 -10.40609 -10.34664 -10.32000
 Alpha  occ. eigenvalues --  -10.29831 -10.29544 -10.28877 -10.28817 -10.28771
 Alpha  occ. eigenvalues --  -10.28743 -10.28565 -10.27017  -8.82011  -6.64130
 Alpha  occ. eigenvalues --   -6.63068  -6.63001  -2.74521  -2.74230  -2.74177
 Alpha  occ. eigenvalues --   -2.73317  -2.73316  -1.11065  -1.04249  -0.96925
 Alpha  occ. eigenvalues --   -0.94395  -0.87300  -0.84979  -0.84828  -0.80726
 Alpha  occ. eigenvalues --   -0.79151  -0.70403  -0.70154  -0.69704  -0.63523
 Alpha  occ. eigenvalues --   -0.63241  -0.59163  -0.58785  -0.56185  -0.55710
 Alpha  occ. eigenvalues --   -0.54702  -0.54035  -0.52837  -0.50676  -0.50538
 Alpha  occ. eigenvalues --   -0.49550  -0.48711  -0.48069  -0.46369  -0.46164
 Alpha  occ. eigenvalues --   -0.45398  -0.43314  -0.42405  -0.42370  -0.37796
 Alpha  occ. eigenvalues --   -0.37380  -0.33560  -0.32828  -0.32305  -0.28474
 Alpha virt. eigenvalues --    0.02920   0.05068   0.05396   0.05808   0.09751
 Alpha virt. eigenvalues --    0.12924   0.13887   0.14210   0.14684   0.15600
 Alpha virt. eigenvalues --    0.16466   0.17178   0.18129   0.18283   0.18773

 Mulliken charges:
               1
     1  C   -0.104524
     2  C    0.114776
     3  O   -0.507721
     4  C    0.104729
     5  C   -0.296347
     6  H    0.159546
     7  H    0.164110
     8  H    0.154044
     9  N   -0.337641
    10  H    0.284690
    11  H    0.284381
    12  Br  -0.107160
    13  C   -0.424158
    14  H    0.161858
    15  H    0.172705
    16  H    0.169316
    17  C    0.170502
    18  C   -0.239057
    19  C   -0.150333
    20  C   -0.134651
    21  C   -0.164185
    22  C   -0.260775
    23  H    0.140474
    24  H    0.139785
    25  H    0.142844
    26  H    0.139846
    27  H    0.152753
    28  H    0.070191
 Sum of Mulliken charges =  -0.00000

 Dipole moment (field-independent basis, Debye):
    X=             -8.2428    Y=             -3.7102    Z=              5.4415  Tot=             10.5508
 Quadrupole moment (field-independent basis, Debye-Ang):
   XX=            -86.1122   YY=           -114.9120   ZZ=            -83.0733
   XY=            -19.3668   XZ=             -5.3478   YZ=              3.8022

  Exact polarizability: 252.893   4.789 228.882 -13.066  -6.270 218.710
 Approx polarizability: 194.845   1.092 185.911  -7.842  -1.453 185.221

 ******    1 imaginary frequencies (negative Signs) ******

                      1                      2                      3
                      A                      A                      A
 Frequencies --   -349.1494                32.9856                52.9743
 Red. masses --      6.1773                 4.1674                 5.0187
 Frc consts  --      0.4437                 0.0027                 0.0083
 IR Inten    --    870.5559                 0.5931                 6.5922

                      4                      5                      6
                      A                      A                      A
 Frequencies --     65.6077                93.8261                99.1772
 Red. masses --      5.9228                 3.6643                 2.4024
 Frc consts  --      0.0150                 0.0190                 0.0139
 IR Inten    --      2.1796                 3.9935                 3.1631

                      7                      8                      9
                      A                      A                      A
 Frequencies --    154.9531               170.1982               195.1335
 Red. masses --      2.7252                 4.5109                 1.8581
 Frc consts  --      0.0386                 0.0770                 0.0417
 IR Inten    --      0.7969                 8.0667                 8.4027

                     10                     11                     12
                      A                      A                      A
 Frequencies --    215.6187               245.6289               252.0269
 Red. masses --      2.8883                 2.9335                 2.3280
 Frc consts  --      0.0791                 0.1043                 0.0871
 IR Inten    --      8.1665                32.4491                10.1044

                     13                     14                     15
                      A                      A                      A
 Frequencies --    281.0448               295.4130               314.1156
 Red. masses --      1.8502                 2.9888                 2.1112
 Frc consts  --      0.0861                 0.1537                 0.1227
 IR Inten    --      8.9316                10.4567                11.0474

                     16                     17                     18
                      A                      A                      A
 Frequencies --    352.5933               377.1363               423.5021
 Red. masses --      3.8095                 3.0488                 2.8841
 Frc consts  --      0.2790                 0.2555                 0.3048
 IR Inten    --      3.2369                48.0411                 0.0083

                     19                     20                     21
                      A                      A                      A
 Frequencies --    440.5836               505.5653               592.5793
 Red. masses --      4.1553                 4.0995                 4.7934
 Frc consts  --      0.4752                 0.6173                 0.9917
 IR Inten    --     15.6836                 3.9589                63.8006

                     22                     23                     24
                      A                      A                      A
 Frequencies --    601.3788               644.8161               655.8893
 Red. masses --      3.3527                 6.3021                 1.7655
 Frc consts  --      0.7144                 1.5439                 0.4475
 IR Inten    --     54.9729                18.4696                52.1846

                     25                     26                     27
                      A                      A                      A
 Frequencies --    711.6220               729.6166               769.2339
 Red. masses --      2.8971                 1.5115                 3.3056
 Frc consts  --      0.8644                 0.4741                 1.1524
 IR Inten    --    231.1250               129.2366                32.9230

                     28                     29                     30
                      A                      A                      A
 Frequencies --    805.6442               879.6696               953.4235
 Red. masses --      2.5403                 1.2453                 1.4491
 Frc consts  --      0.9715                 0.5677                 0.7761
 IR Inten    --      5.2619                 0.1678                12.0012

                     31                     32                     33
                      A                      A                      A
 Frequencies --   1007.6359              1012.1665              1021.2216
 Red. masses --      1.3688                 1.3885                 1.6602
 Frc consts  --      0.8189                 0.8381                 1.0201
 IR Inten    --     22.4234                11.0988                16.2407

                     34                     35                     36
                      A                      A                      A
 Frequencies --   1025.1966              1027.6722              1032.1939
 Red. masses --      2.8134                 1.5906                 1.6386
 Frc consts  --      1.7422                 0.9897                 1.0286
 IR Inten    --     23.6010                 7.0980               106.8195

                     37                     38                     39
                      A                      A                      A
 Frequencies --   1045.3563              1054.6100              1070.0604
 Red. masses --      1.4678                 2.4991                 1.9483
 Frc consts  --      0.9450                 1.6376                 1.3144
 IR Inten    --     54.3165                94.0788                44.8509

                     40                     41                     42
                      A                      A                      A
 Frequencies --   1072.2124              1099.3083              1109.2676
 Red. masses --      2.1737                 1.8349                 1.5563
 Frc consts  --      1.4723                 1.3065                 1.1282
 IR Inten    --     41.8829                86.8031                19.1203

                     43                     44                     45
                      A                      A                      A
 Frequencies --   1182.2781              1184.5477              1207.1921
 Red. masses --      1.1531                 3.2983                 1.1206
 Frc consts  --      0.9496                 2.7268                 0.9622
 IR Inten    --      1.7179                66.4752                 0.0550

                     46                     47                     48
                      A                      A                      A
 Frequencies --   1228.9344              1309.3379              1331.7366
 Red. masses --      1.3851                 4.5573                 3.4366
 Frc consts  --      1.2325                 4.6032                 3.5910
 IR Inten    --     24.7725                 1.0200              1125.7424

                     49                     50                     51
                      A                      A                      A
 Frequencies --   1344.5256              1357.7943              1416.4068
 Red. masses --      1.3115                 1.4457                 1.2753
 Frc consts  --      1.3968                 1.5704                 1.5075
 IR Inten    --      0.8664                 1.8589                30.3504

                     52                     53                     54
                      A                      A                      A
 Frequencies --   1427.7285              1458.8985              1479.7205
 Red. masses --      2.0940                 1.1902                 1.1846
 Frc consts  --      2.5149                 1.4925                 1.5283
 IR Inten    --     94.8634                12.9517                39.1493

                     55                     56                     57
                      A                      A                      A
 Frequencies --   1484.7600              1487.0115              1494.1882
 Red. masses --      1.2094                 2.0875                 1.1456
 Frc consts  --      1.5709                 2.7196                 1.5069
 IR Inten    --     89.0859                15.7684                64.3233

                     58                     59                     60
                      A                      A                      A
 Frequencies --   1503.4976              1513.2035              1549.9432
 Red. masses --      1.2826                 1.1076                 2.6826
 Frc consts  --      1.7083                 1.4943                 3.7970
 IR Inten    --     90.0408                66.7517                63.7018

                     61                     62                     63
                      A                      A                      A
 Frequencies --   1642.7972              1646.5006              1655.4689
 Red. masses --      1.2701                 4.0598                 5.1432
 Frc consts  --      2.0196                 6.4845                 8.3047
 IR Inten    --    201.1159                47.5602               747.9410

                     64                     65                     66
                      A                      A                      A
 Frequencies --   1676.2869              2970.3401              3068.7505
 Red. masses --      5.9622                 1.0816                 1.0350
 Frc consts  --      9.8708                 5.6227                 5.7428
 IR Inten    --    121.2408               153.4394                44.9455

                     67                     68                     69
                      A                      A                      A
 Frequencies --   3079.5226              3146.2814              3156.5362
 Red. masses --      1.0369                 1.1027                 1.1030
 Frc consts  --      5.7934                 6.4314                 6.4748
 IR Inten    --      8.4703                11.9509                 7.8202

                     70                     71                     72
                      A                      A                      A
 Frequencies --   3170.5156              3174.4205              3185.8470
 Red. masses --      1.1040                 1.1036                 1.0874
 Frc consts  --      6.5387                 6.5521                 6.5024
 IR Inten    --     13.7500                 6.6202                13.6000

                     73                     74                     75
                      A                      A                      A
 Frequencies --   3191.0669              3200.8017              3208.4409
 Red. masses --      1.0872                 1.0910                 1.0950
 Frc consts  --      6.5229                 6.5855                 6.6413
 IR Inten    --      2.1484                13.4139                46.4965

                     76                     77                     78
                      A                      A                      A
 Frequencies --   3219.7778              3515.5027              3598.8100
 Red. masses --      1.0988                 1.0509                 1.0965
 Frc consts  --      6.7115                 7.6525                 8.3674
 IR Inten    --     18.3820                22.6088                50.2532

 - Thermochemistry -
 -------------------
 Temperature   298.150 Kelvin.  Pressure   1.00000 Atm.
 Atom     1 has atomic number  6 and mass  12.00000

 Molecular mass:   255.02588 amu.
 Principal axes and moments of inertia in atomic units:
                           1         2         3
     Eigenvalues --  2633.059614523.023245259.94997
           X            0.99657  -0.07891  -0.02484
           Y            0.07729   0.99518  -0.06043
           Z            0.02949   0.05831   0.99786
 This molecule is an asymmetric top.
 Rotational symmetry number  1.
 Warning -- assumption of classical behavior for rotation
           may cause significant error
 Rotational temperatures (Kelvin)      0.03289     0.01915     0.01647
 Rotational constants (GHZ):           0.68542     0.39901     0.34311
    1 imaginary frequencies ignored.
 Zero-point vibrational energy     603864.3 (Joules/Mol)
                                  144.32704 (Kcal/Mol)
 Warning -- explicit consideration of  21 degrees of freedom as
           vibrations may cause significant error
 Vibrational temperatures:     47.46    76.22    94.39   134.99   142.69
          (Kelvin)            222.94   244.88   280.75   310.23   353.41
                              362.61   404.36   425.03   451.94   507.30
                              542.61   609.33   633.90   727.40   852.59
                              865.25   927.75   943.68  1023.87  1049.76
                             1106.76  1159.14  1265.65  1371.76  1449.76
                             1456.28  1469.31  1475.03  1478.59  1485.10
                             1504.03  1517.35  1539.58  1542.67  1581.66
                             1595.99  1701.03  1704.30  1736.88  1768.16
                             1883.85  1916.07  1934.47  1953.56  2037.89
                             2054.18  2099.03  2128.99  2136.24  2139.48
                             2149.80  2163.20  2177.16  2230.02  2363.62
                             2368.95  2381.85  2411.80  4273.66  4415.25
                             4430.75  4526.80  4541.55  4561.66  4567.28
                             4583.72  4591.23  4605.24  4616.23  4632.54
                             5058.02  5177.88

 Zero-point correction=                           0.230000 (Hartree/Particle)
 Thermal correction to Energy=                    0.244493
 Thermal correction to Enthalpy=                  0.245437
 Thermal correction to Gibbs Free Energy=         0.187228
 Sum of electronic and zero-point Energies=          -3131.539140
 Sum of electronic and thermal Energies=             -3131.524647
 Sum of electronic and thermal Enthalpies=           -3131.523702
 Sum of electronic and thermal Free Energies=        -3131.581911

                     E (Thermal)             CV                S
                      KCal/Mol        Cal/Mol-Kelvin    Cal/Mol-Kelvin
 Total                  153.422             53.014            122.511
 Electronic               0.000              0.000              0.000
 Translational            0.889              2.981             42.509
 Rotational               0.889              2.981             32.505
 Vibrational            151.644             47.052             47.498
 Vibration     1          0.594              1.983              5.641
 Vibration     2          0.596              1.976              4.703
 Vibration     3          0.597              1.971              4.281
 Vibration     4          0.603              1.954              3.579
 Vibration     5          0.604              1.950              3.470
 Vibration     6          0.620              1.897              2.611
 Vibration     7          0.625              1.879              2.433
 Vibration     8          0.636              1.847              2.179
 Vibration     9          0.645              1.817              1.996
 Vibration    10          0.660              1.770              1.762
 Vibration    11          0.664              1.759              1.716
 Vibration    12          0.681              1.709              1.527
 Vibration    13          0.690              1.682              1.443
 Vibration    14          0.702              1.647              1.341
 Vibration    15          0.729              1.570              1.155
 Vibration    16          0.748              1.519              1.051
 Vibration    17          0.786              1.419              0.880
 Vibration    18          0.800              1.382              0.825
 Vibration    19          0.861              1.238              0.644
 Vibration    20          0.950              1.048              0.463
 Vibration    21          0.960              1.029              0.447

 Optimization completed.
    -- Stationary point found.
 Normal termination of Gaussian 16 at Sun Mar 28 12:43:12 2021.
