 Gaussian 16, Revision A.03,
 Gaussian 16:  ES64L-G16RevA.03 25-Dec-2016

 ----------------------------------------------------------------------
 # wB97XD def2tzvp, opt=(ts, noeigen, calcfc, maxcycles=70, maxstep=8),
  freq=noraman, scrf=(iefpcm, solvent=water)
 ----------------------------------------------------------------------

 ------------------------
 1_iteration/TS-673-1.out
 ------------------------
 Symbolic Z-matrix:
 Charge =  0 Multiplicity = 1

 SCF Done:  E(RwB97XD) =  -3321.00611048     A.U. after   15 cycles
 SCF Done:  E(RwB97XD) =  -3321.00645585     A.U. after   13 cycles
 SCF Done:  E(RwB97XD) =  -3321.00654160     A.U. after   12 cycles
 SCF Done:  E(RwB97XD) =  -3321.00654591     A.U. after   10 cycles
 SCF Done:  E(RwB97XD) =  -3321.00654589     A.U. after   10 cycles
 SCF Done:  E(RwB97XD) =  -3321.00654623     A.U. after    9 cycles
 Optimization completed.
    -- Stationary point found.
 Normal termination of Gaussian 16 at Fri Feb 19 00:44:19 2021.

 ---------------------------------------------------------------------
 #N Geom=AllCheck Guess=TCheck SCRF=Check GenChk RwB97XD/def2TZVP Freq
 ---------------------------------------------------------------------

 Structure from the checkpoint file:  "/beegfs/scratch/user/q/tla25/Gau-13856.chk"
 ------------------------
 1_iteration/TS-673-1.out
 ------------------------
 Charge =  0 Multiplicity = 1

                         Standard orientation:
 ---------------------------------------------------------------------
 Center     Atomic      Atomic             Coordinates (Angstroms)
 Number     Number       Type             X           Y           Z
 ---------------------------------------------------------------------
      1          6           0        1.305490   -0.081112   -0.103102
      2          6           0        2.409034    0.735939   -0.503064
      3          8           0        2.313238    1.795165   -1.112907
      4          6           0        0.022642    0.298652   -0.413450
      5          6           0       -1.876257    2.342712    0.657163
      6          1           0       -2.119916    3.085850    1.418328
      7          1           0       -1.744314    2.847791   -0.298966
      8          1           0       -2.703836    1.640563    0.572134
      9          7           0       -0.657365    1.608814    0.980349
     10          1           0       -0.744224    1.082534    1.841565
     11          1           0        0.142477    2.224526    1.065817
     12         35           0       -1.408218   -0.943971   -0.419018
     13          1           0       -0.078525    1.046312   -1.187173
     14         17           0        1.650793   -1.448825    0.923130
     15          1           0        3.402686    0.341275   -0.223745
 ---------------------------------------------------------------------

 SCF Done:  E(RwB97XD) =  -3321.00654623     A.U. after    1 cycles

 The electronic state is 1-A.
 Alpha  occ. eigenvalues -- -483.14396-101.69801 -62.69250 -56.48370 -56.48014
 Alpha  occ. eigenvalues --  -56.47989 -19.22913 -14.47696 -10.39203 -10.36579
 Alpha  occ. eigenvalues --  -10.32463 -10.31706  -9.58325  -8.83374  -7.32965
 Alpha  occ. eigenvalues --   -7.32112  -7.32093  -6.65553  -6.64405  -6.64327
 Alpha  occ. eigenvalues --   -2.75943  -2.75617  -2.75556  -2.74628  -2.74627
 Alpha  occ. eigenvalues --   -1.13358  -1.03205  -0.98156  -0.92164  -0.84035
 Alpha  occ. eigenvalues --   -0.78654  -0.74407  -0.63993  -0.62569  -0.58723
 Alpha  occ. eigenvalues --   -0.56452  -0.54655  -0.54060  -0.50311  -0.49516
 Alpha  occ. eigenvalues --   -0.48282  -0.47651  -0.45147  -0.42355  -0.41060
 Alpha  occ. eigenvalues --   -0.38154  -0.37424  -0.34259  -0.28874
 Alpha virt. eigenvalues --    0.01366   0.05534   0.10256   0.12522   0.14038
 Alpha virt. eigenvalues --    0.14646   0.15896   0.16910   0.17533   0.19338
 Alpha virt. eigenvalues --    0.20282   0.22159   0.22682   0.24352   0.25339

 Mulliken charges:
               1
     1  C   -0.053628
     2  C    0.108592
     3  O   -0.469251
     4  C   -0.048898
     5  C   -0.265242
     6  H    0.150309
     7  H    0.149748
     8  H    0.148062
     9  N   -0.390864
    10  H    0.284144
    11  H    0.283077
    12  Br  -0.037150
    13  H    0.191456
    14  Cl  -0.143629
    15  H    0.093275
 Sum of Mulliken charges =  -0.00000

 Dipole moment (field-independent basis, Debye):
    X=             -5.0111    Y=              2.6428    Z=              3.6360  Tot=              6.7317
 Quadrupole moment (field-independent basis, Debye-Ang):
   XX=            -70.6292   YY=            -67.1371   ZZ=            -66.3020
   XY=             -9.0322   XZ=              2.0345   YZ=              8.5992

  Exact polarizability: 171.459  -3.389 136.494 -10.319  -5.036 104.081
 Approx polarizability: 126.965   0.647 115.252  -5.724  -7.039  92.954

 ******    1 imaginary frequencies (negative Signs) ******

                      1                      2                      3
                      A                      A                      A
 Frequencies --   -352.3750                40.5632                62.5372
 Red. masses --      6.4117                 3.6500                 2.5166
 Frc consts  --      0.4691                 0.0035                 0.0058
 IR Inten    --    782.9486                 0.6216                 6.6480

                      4                      5                      6
                      A                      A                      A
 Frequencies --     98.8207               135.6697               159.9115
 Red. masses --      4.7561                 5.7725                 1.8086
 Frc consts  --      0.0274                 0.0626                 0.0272
 IR Inten    --      6.6091                 2.4962                 3.3591

                      7                      8                      9
                      A                      A                      A
 Frequencies --    179.7501               200.5852               228.0957
 Red. masses --      3.1595                 6.3732                 2.6084
 Frc consts  --      0.0601                 0.1511                 0.0800
 IR Inten    --      2.6199                31.7807                16.2274

                     10                     11                     12
                      A                      A                      A
 Frequencies --    268.9409               390.2706               482.9659
 Red. masses --      3.1442                 8.0970                 6.9959
 Frc consts  --      0.1340                 0.7266                 0.9614
 IR Inten    --      2.1799                17.7737               157.8728

                     13                     14                     15
                      A                      A                      A
 Frequencies --    547.3107               577.8869               695.1371
 Red. masses --      8.2187                 1.5166                 3.4243
 Frc consts  --      1.4505                 0.2984                 0.9749
 IR Inten    --     70.2977                13.4960                88.3317

                     16                     17                     18
                      A                      A                      A
 Frequencies --    864.1460               994.6262              1005.9271
 Red. masses --      3.6201                 1.0868                 1.0990
 Frc consts  --      1.5927                 0.6335                 0.6552
 IR Inten    --     51.5011                31.9947               109.5751

                     19                     20                     21
                      A                      A                      A
 Frequencies --   1030.3541              1068.8995              1097.6976
 Red. masses --      1.6460                 3.3296                 1.2256
 Frc consts  --      1.0295                 2.2414                 0.8701
 IR Inten    --      6.5655               166.9988                23.3446

                     22                     23                     24
                      A                      A                      A
 Frequencies --   1178.7124              1201.7867              1226.2450
 Red. masses --      3.3745                 1.4229                 1.3732
 Frc consts  --      2.7623                 1.2108                 1.2166
 IR Inten    --     76.4793                10.5015                19.0408

                     25                     26                     27
                      A                      A                      A
 Frequencies --   1342.1790              1423.3369              1429.1565
 Red. masses --      1.3312                 1.9567                 2.2326
 Frc consts  --      1.4130                 2.3355                 2.6867
 IR Inten    --      3.9837               605.8245               822.0380

                     28                     29                     30
                      A                      A                      A
 Frequencies --   1464.4341              1490.2445              1504.7034
 Red. masses --      1.2865                 1.0402                 1.0324
 Frc consts  --      1.6256                 1.3611                 1.3772
 IR Inten    --    128.1163                15.6203                 9.4147

                     31                     32                     33
                      A                      A                      A
 Frequencies --   1641.6805              1697.1157              2958.0086
 Red. masses --      1.0909                 7.9322                 1.0838
 Frc consts  --      1.7322                13.4607                 5.5874
 IR Inten    --     50.3219               443.8045               163.0554

                     34                     35                     36
                      A                      A                      A
 Frequencies --   3061.3411              3136.3255              3161.5577
 Red. masses --      1.0349                 1.1031                 1.1052
 Frc consts  --      5.7146                 6.3933                 6.5085
 IR Inten    --     54.3851                18.0036                15.1639

                     37                     38                     39
                      A                      A                      A
 Frequencies --   3228.5050              3529.8272              3615.2486
 Red. masses --      1.0906                 1.0503                 1.0967
 Frc consts  --      6.6977                 7.7102                 8.4455
 IR Inten    --      4.3501                26.6216                45.5453

 - Thermochemistry -
 -------------------
 Temperature   298.150 Kelvin.  Pressure   1.00000 Atm.
 Atom     1 has atomic number  6 and mass  12.00000

 Molecular mass:   198.93995 amu.
 Principal axes and moments of inertia in atomic units:
                           1         2         3
     Eigenvalues --  1508.751662147.603962977.43062
           X            0.99059  -0.13309  -0.03206
           Y            0.13400   0.99058   0.02817
           Z            0.02801  -0.03220   0.99909
 This molecule is an asymmetric top.
 Rotational symmetry number  1.
 Warning -- assumption of classical behavior for rotation
           may cause significant error
 Rotational temperatures (Kelvin)      0.05741     0.04033     0.02909
 Rotational constants (GHZ):           1.19618     0.84035     0.60614
    1 imaginary frequencies ignored.
 Zero-point vibrational energy     289618.9 (Joules/Mol)
                                   69.22059 (Kcal/Mol)
 Warning -- explicit consideration of  13 degrees of freedom as
           vibrations may cause significant error
 Vibrational temperatures:     58.36    89.98   142.18   195.20   230.08
          (Kelvin)            258.62   288.60   328.18   386.95   561.51
                              694.88   787.46   831.45  1000.15  1243.31
                             1431.05  1447.30  1482.45  1537.91  1579.34
                             1695.90  1729.10  1764.29  1931.10  2047.86
                             2056.24  2106.99  2144.13  2164.93  2362.01
                             2441.77  4255.91  4404.59  4512.47  4548.78
                             4645.10  5078.63  5201.54

 Zero-point correction=                           0.110310 (Hartree/Particle)
 Thermal correction to Energy=                    0.120319
 Thermal correction to Enthalpy=                  0.121263
 Thermal correction to Gibbs Free Energy=         0.072461
 Sum of electronic and zero-point Energies=          -3320.896236
 Sum of electronic and thermal Energies=             -3320.886228
 Sum of electronic and thermal Enthalpies=           -3320.885283
 Sum of electronic and thermal Free Energies=        -3320.934086

                     E (Thermal)             CV                S
                      KCal/Mol        Cal/Mol-Kelvin    Cal/Mol-Kelvin
 Total                   75.501             32.242            102.713
 Electronic               0.000              0.000              0.000
 Translational            0.889              2.981             41.768
 Rotational               0.889              2.981             30.646
 Vibrational             73.724             26.281             30.299
 Vibration     1          0.594              1.981              5.231
 Vibration     2          0.597              1.972              4.375
 Vibration     3          0.604              1.950              3.477
 Vibration     4          0.613              1.918              2.864
 Vibration     5          0.622              1.891              2.551
 Vibration     6          0.629              1.867              2.331
 Vibration     7          0.638              1.839              2.128
 Vibration     8          0.651              1.798              1.894
 Vibration     9          0.673              1.730              1.603
 Vibration    10          0.758              1.491              0.999
 Vibration    11          0.839              1.288              0.702
 Vibration    12          0.903              1.146              0.550
 Vibration    13          0.934              1.079              0.489

 Optimization completed.
    -- Stationary point found.
 Normal termination of Gaussian 16 at Fri Feb 19 00:51:15 2021.
