 Gaussian 16, Revision A.03,
 Gaussian 16:  ES64L-G16RevA.03 25-Dec-2016

 ----------------------------------------------------------------------
 # wB97XD def2tzvp, opt=(ts, noeigen, calcfc, maxcycles=70, maxstep=5),
  freq=noraman, scrf=(iefpcm, solvent=water)
 ----------------------------------------------------------------------

 ------------------------
 2_iteration/TS-646-2.out
 ------------------------
 Symbolic Z-matrix:
 Charge =  0 Multiplicity = 1

 SCF Done:  E(RwB97XD) =  -3226.44463185     A.U. after   15 cycles
 SCF Done:  E(RwB97XD) =  -3226.44482534     A.U. after   12 cycles
 SCF Done:  E(RwB97XD) =  -3226.44478182     A.U. after   12 cycles
 SCF Done:  E(RwB97XD) =  -3226.44488855     A.U. after   11 cycles
 SCF Done:  E(RwB97XD) =  -3226.44489521     A.U. after   11 cycles
 SCF Done:  E(RwB97XD) =  -3226.44489612     A.U. after    8 cycles
 SCF Done:  E(RwB97XD) =  -3226.44489669     A.U. after   10 cycles
 SCF Done:  E(RwB97XD) =  -3226.44489628     A.U. after    9 cycles
 SCF Done:  E(RwB97XD) =  -3226.44489661     A.U. after    8 cycles
 SCF Done:  E(RwB97XD) =  -3226.44489640     A.U. after    8 cycles
 SCF Done:  E(RwB97XD) =  -3226.44489656     A.U. after    7 cycles
 SCF Done:  E(RwB97XD) =  -3226.44489659     A.U. after    6 cycles
 Optimization completed.
    -- Stationary point found.
 Normal termination of Gaussian 16 at Sat Feb 20 18:34:00 2021.

 ---------------------------------------------------------------------
 #N Geom=AllCheck Guess=TCheck SCRF=Check GenChk RwB97XD/def2TZVP Freq
 ---------------------------------------------------------------------

 Structure from the checkpoint file:  "/beegfs/scratch/user/q/tla25/Gau-77088.chk"
 ------------------------
 2_iteration/TS-646-2.out
 ------------------------
 Charge =  0 Multiplicity = 1

                         Standard orientation:
 ---------------------------------------------------------------------
 Center     Atomic      Atomic             Coordinates (Angstroms)
 Number     Number       Type             X           Y           Z
 ---------------------------------------------------------------------
      1          6           0       -0.074854    0.518555    0.125228
      2          6           0       -0.776792    1.797311    0.354209
      3          8           0       -0.345979    2.645265    1.143134
      4          6           0       -0.860686   -0.617624    0.101012
      5          6           0       -2.312780   -2.187395    1.904757
      6          1           0       -2.393939   -2.636835    2.893705
      7          1           0       -3.124271   -1.474852    1.768104
      8          1           0       -2.386610   -2.966429    1.148322
      9          7           0       -1.035839   -1.490092    1.742875
     10          1           0       -0.939373   -0.727511    2.404888
     11          1           0       -0.254663   -2.122101    1.878658
     12         35           0       -0.353765   -2.169362   -0.998399
     13          1           0       -1.924854   -0.476753   -0.020851
     14          6           0        1.392408    0.523006    0.147246
     15          6           0        2.154815   -0.521255    0.681556
     16          6           0        3.542531   -0.502858    0.646305
     17          6           0        4.218078    0.570631    0.088893
     18          6           0        3.481543    1.625705   -0.437854
     19          6           0        2.099057    1.598492   -0.412313
     20          1           0        1.669325   -1.369888    1.143132
     21          1           0        4.095655   -1.332814    1.069339
     22          1           0        5.300272    0.588758    0.065760
     23          1           0        3.990344    2.473232   -0.881462
     24          1           0        1.546223    2.426092   -0.839174
     25          7           0       -1.959188    2.021261   -0.301455
     26          6           0       -2.306539    1.449362   -1.586689
     27          6           0       -2.772753    3.149074    0.098552
     28          1           0       -1.483972    0.852923   -1.971961
     29          1           0       -3.201404    0.822801   -1.522132
     30          1           0       -2.510107    2.254070   -2.298631
     31          1           0       -2.642551    3.342416    1.159717
     32          1           0       -2.508590    4.057308   -0.454283
     33          1           0       -3.820850    2.918930   -0.099607
 ---------------------------------------------------------------------

 SCF Done:  E(RwB97XD) =  -3226.44489659     A.U. after    1 cycles

 The electronic state is 1-A.
 Alpha  occ. eigenvalues -- -483.12656 -62.67505 -56.46607 -56.46275 -56.46262
 Alpha  occ. eigenvalues --  -19.19927 -14.49916 -14.45344 -10.38390 -10.37577
 Alpha  occ. eigenvalues --  -10.32445 -10.30791 -10.30223 -10.29691 -10.28363
 Alpha  occ. eigenvalues --  -10.28286 -10.28093 -10.27930 -10.27837 -10.26228
 Alpha  occ. eigenvalues --   -8.81609  -6.63713  -6.62662  -6.62618  -2.74103
 Alpha  occ. eigenvalues --   -2.73812  -2.73777  -2.72926  -2.72926  -1.12762
 Alpha  occ. eigenvalues --   -1.05221  -1.02679  -0.96144  -0.92257  -0.86871
 Alpha  occ. eigenvalues --   -0.84288  -0.83022  -0.81142  -0.79802  -0.77684
 Alpha  occ. eigenvalues --   -0.72092  -0.69694  -0.67147  -0.64356  -0.63212
 Alpha  occ. eigenvalues --   -0.60185  -0.59785  -0.56981  -0.56195  -0.55749
 Alpha  occ. eigenvalues --   -0.54283  -0.53833  -0.52783  -0.51133  -0.50210
 Alpha  occ. eigenvalues --   -0.49892  -0.48846  -0.48522  -0.48053  -0.47372
 Alpha  occ. eigenvalues --   -0.46018  -0.45950  -0.45221  -0.44628  -0.42517
 Alpha  occ. eigenvalues --   -0.41907  -0.37619  -0.37195  -0.35075  -0.33474
 Alpha  occ. eigenvalues --   -0.32794  -0.31521  -0.25480
 Alpha virt. eigenvalues --    0.04514   0.04980   0.06029   0.08425   0.09984
 Alpha virt. eigenvalues --    0.11735   0.13206   0.14129   0.14839   0.15731
 Alpha virt. eigenvalues --    0.16120   0.16238   0.16918   0.18056   0.18369

 Mulliken charges:
               1
     1  C   -0.144598
     2  C    0.246072
     3  O   -0.518923
     4  C   -0.145929
     5  C   -0.293144
     6  H    0.163912
     7  H    0.160385
     8  H    0.156763
     9  N   -0.264014
    10  H    0.288942
    11  H    0.284876
    12  Br  -0.136004
    13  H    0.202241
    14  C    0.183844
    15  C   -0.225671
    16  C   -0.159598
    17  C   -0.168664
    18  C   -0.146180
    19  C   -0.263061
    20  H    0.109101
    21  H    0.134716
    22  H    0.137296
    23  H    0.135328
    24  H    0.136103
    25  N   -0.119441
    26  C   -0.313469
    27  C   -0.294128
    28  H    0.160177
    29  H    0.145367
    30  H    0.141508
    31  H    0.138058
    32  H    0.131633
    33  H    0.136502
 Sum of Mulliken charges =  -0.00000

 Dipole moment (field-independent basis, Debye):
    X=             -6.5361    Y=             -6.0501    Z=              2.4251  Tot=              9.2307
 Quadrupole moment (field-independent basis, Debye-Ang):
   XX=            -95.2818   YY=           -112.2218   ZZ=           -102.9604
   XY=             -0.9152   XZ=             -4.5530   YZ=            -21.9066

  Exact polarizability: 304.332  12.674 284.924  -1.094 -15.646 210.492
 Approx polarizability: 229.153   6.547 225.454   0.444  -9.720 179.596

 ******    1 imaginary frequencies (negative Signs) ******

                      1                      2                      3
                      A                      A                      A
 Frequencies --   -374.2587                29.5510                33.7383
 Red. masses --      6.2553                 3.7535                 2.3845
 Frc consts  --      0.5162                 0.0019                 0.0016
 IR Inten    --    857.7234                 2.0028                 0.9614

                      4                      5                      6
                      A                      A                      A
 Frequencies --     56.4459                62.0741                71.9968
 Red. masses --      3.6174                 4.7972                 5.6133
 Frc consts  --      0.0068                 0.0109                 0.0171
 IR Inten    --      5.3522                 5.1516                 2.5334

                      7                      8                      9
                      A                      A                      A
 Frequencies --     85.7302               101.0097               111.8905
 Red. masses --      2.9251                 3.1382                 1.7625
 Frc consts  --      0.0127                 0.0189                 0.0130
 IR Inten    --      3.6180                 1.7809                 1.4791

                     10                     11                     12
                      A                      A                      A
 Frequencies --    146.9285               159.8858               188.5935
 Red. masses --      1.8294                 2.4705                 2.7175
 Frc consts  --      0.0233                 0.0372                 0.0569
 IR Inten    --      1.6113                 5.1171                12.7647

                     13                     14                     15
                      A                      A                      A
 Frequencies --    204.3241               216.6859               238.4419
 Red. masses --      2.0165                 1.7042                 2.1573
 Frc consts  --      0.0496                 0.0471                 0.0723
 IR Inten    --      3.0984                 1.7420                12.3822

                     16                     17                     18
                      A                      A                      A
 Frequencies --    271.0166               274.5307               301.2013
 Red. masses --      3.3305                 3.2236                 3.8289
 Frc consts  --      0.1441                 0.1431                 0.2047
 IR Inten    --      8.8147                 5.6953                 8.9496

                     19                     20                     21
                      A                      A                      A
 Frequencies --    332.0132               378.7592               421.2420
 Red. masses --      4.3637                 3.7355                 2.8492
 Frc consts  --      0.2834                 0.3157                 0.2979
 IR Inten    --     89.4742                39.2675                 1.4022

                     22                     23                     24
                      A                      A                      A
 Frequencies --    449.5739               497.3336               551.9755
 Red. masses --      2.9706                 3.7637                 5.0748
 Frc consts  --      0.3538                 0.5485                 0.9110
 IR Inten    --     12.2375                30.0472                59.9863

                     25                     26                     27
                      A                      A                      A
 Frequencies --    558.5887               613.0824               639.3841
 Red. masses --      4.0612                 4.1504                 5.8671
 Frc consts  --      0.7466                 0.9191                 1.4132
 IR Inten    --     42.0053               120.0371                 0.3993

                     28                     29                     30
                      A                      A                      A
 Frequencies --    680.5917               715.5370               735.2502
 Red. masses --      3.2382                 1.6039                 3.1131
 Frc consts  --      0.8837                 0.4838                 0.9916
 IR Inten    --     42.1316                75.2586                17.2410

                     31                     32                     33
                      A                      A                      A
 Frequencies --    749.7197               794.0769               812.4532
 Red. masses --      2.5037                 2.4933                 5.5375
 Frc consts  --      0.8291                 0.9263                 2.1536
 IR Inten    --    241.7907                82.1885                58.3776

                     34                     35                     36
                      A                      A                      A
 Frequencies --    854.2867               891.4964               929.4593
 Red. masses --      1.2728                 3.3309                 1.6978
 Frc consts  --      0.5473                 1.5597                 0.8642
 IR Inten    --      0.6218                24.4439                 9.5451

                     37                     38                     39
                      A                      A                      A
 Frequencies --    994.1898              1012.4316              1012.5086
 Red. masses --      1.3704                 1.2464                 1.2098
 Frc consts  --      0.7981                 0.7527                 0.7307
 IR Inten    --      0.1710                 1.2358                 1.2147

                     40                     41                     42
                      A                      A                      A
 Frequencies --   1021.4039              1032.4609              1048.4164
 Red. masses --      3.8694                 2.2090                 1.5986
 Frc consts  --      2.3784                 1.3874                 1.0352
 IR Inten    --     13.7059                61.7452                44.7145

                     43                     44                     45
                      A                      A                      A
 Frequencies --   1064.8557              1073.6000              1085.7184
 Red. masses --      2.0399                 2.6392                 1.3828
 Frc consts  --      1.3628                 1.7923                 0.9604
 IR Inten    --      3.0530               207.7079                19.1425

                     46                     47                     48
                      A                      A                      A
 Frequencies --   1115.7474              1135.2272              1153.5680
 Red. masses --      1.5864                 1.2317                 1.1811
 Frc consts  --      1.1636                 0.9352                 0.9260
 IR Inten    --      2.9649                 0.4616                55.9515

                     49                     50                     51
                      A                      A                      A
 Frequencies --   1170.6688              1180.5819              1184.6372
 Red. masses --      1.4509                 1.1324                 2.2897
 Frc consts  --      1.1715                 0.9299                 1.8932
 IR Inten    --      4.1371                 0.7452               119.9411

                     52                     53                     54
                      A                      A                      A
 Frequencies --   1213.5721              1217.1252              1244.8143
 Red. masses --      1.1575                 1.6384                 1.3913
 Frc consts  --      1.0044                 1.4300                 1.2703
 IR Inten    --      5.8585               211.5692                53.7845

                     55                     56                     57
                      A                      A                      A
 Frequencies --   1306.7330              1310.4827              1342.6991
 Red. masses --      2.8395                 4.9096                 1.5033
 Frc consts  --      2.8567                 4.9678                 1.5968
 IR Inten    --    113.6322                45.2783                80.6721

                     58                     59                     60
                      A                      A                      A
 Frequencies --   1347.0264              1367.4203              1407.0921
 Red. masses --      2.1691                 1.4862                 2.8568
 Frc consts  --      2.3189                 1.6373                 3.3325
 IR Inten    --    181.5117                28.4211               461.7404

                     61                     62                     63
                      A                      A                      A
 Frequencies --   1443.3413              1447.6158              1463.7979
 Red. masses --      1.1860                 2.3741                 1.2470
 Frc consts  --      1.4557                 2.9313                 1.5742
 IR Inten    --     32.6144               439.0429                45.6549

                     64                     65                     66
                      A                      A                      A
 Frequencies --   1472.2201              1484.2759              1492.3776
 Red. masses --      1.2506                 1.1365                 1.2156
 Frc consts  --      1.5971                 1.4752                 1.5952
 IR Inten    --     93.0974                 8.5312                49.1629

                     67                     68                     69
                      A                      A                      A
 Frequencies --   1492.8423              1494.7218              1505.1761
 Red. masses --      1.0419                 1.8522                 1.0695
 Frc consts  --      1.3680                 2.4382                 1.4275
 IR Inten    --      1.9849                60.5533                33.8768

                     70                     71                     72
                      A                      A                      A
 Frequencies --   1506.3168              1534.5941              1543.5244
 Red. masses --      1.0450                 1.3080                 2.3881
 Frc consts  --      1.3970                 1.8149                 3.3522
 IR Inten    --     15.7038               194.6454               149.3426

                     73                     74                     75
                      A                      A                      A
 Frequencies --   1636.3546              1641.0858              1642.9451
 Red. masses --      4.5585                 7.2753                 1.1645
 Frc consts  --      7.1915                11.5442                 1.8519
 IR Inten    --    307.7782               442.9928                26.1059

                     76                     77                     78
                      A                      A                      A
 Frequencies --   1670.1243              3024.4273              3030.1407
 Red. masses --      5.9530                 1.0449                 1.0412
 Frc consts  --      9.7833                 5.6315                 5.6327
 IR Inten    --    168.6658                76.8934               130.5130

                     79                     80                     81
                      A                      A                      A
 Frequencies --   3074.5023              3080.9519              3099.8717
 Red. masses --      1.0325                 1.1028                 1.0935
 Frc consts  --      5.7504                 6.1679                 6.1911
 IR Inten    --     40.4013                63.1713                35.9531

                     82                     83                     84
                      A                      A                      A
 Frequencies --   3157.4884              3168.5954              3169.4740
 Red. masses --      1.1062                 1.0975                 1.1063
 Frc consts  --      6.4979                 6.4921                 6.5478
 IR Inten    --     11.0792                13.2669                 9.6474

                     85                     86                     87
                      A                      A                      A
 Frequencies --   3171.6526              3186.9120              3193.8852
 Red. masses --      1.0995                 1.0854                 1.0884
 Frc consts  --      6.5165                 6.4950                 6.5417
 IR Inten    --     13.3565                 9.0522                 4.2952

                     88                     89                     90
                      A                      A                      A
 Frequencies --   3205.0890              3214.9019              3219.2228
 Red. masses --      1.0930                 1.0959                 1.0908
 Frc consts  --      6.6151                 6.6736                 6.6606
 IR Inten    --     37.2196                49.2072                 2.2552

                     91                     92                     93
                      A                      A                      A
 Frequencies --   3226.1110              3514.1049              3599.2662
 Red. masses --      1.0932                 1.0510                 1.0969
 Frc consts  --      6.7035                 7.6466                 8.3721
 IR Inten    --     22.7990                31.5089                51.3386

 - Thermochemistry -
 -------------------
 Temperature   298.150 Kelvin.  Pressure   1.00000 Atm.
 Atom     1 has atomic number  6 and mass  12.00000

 Molecular mass:   284.05242 amu.
 Principal axes and moments of inertia in atomic units:
                           1         2         3
     Eigenvalues --  4449.373744892.448877417.98132
           X            0.98852  -0.15087  -0.00752
           Y            0.14996   0.98612  -0.07131
           Z            0.01817   0.06936   0.99743
 This molecule is an asymmetric top.
 Rotational symmetry number  1.
 Warning -- assumption of classical behavior for rotation
           may cause significant error
 Rotational temperatures (Kelvin)      0.01947     0.01770     0.01168
 Rotational constants (GHZ):           0.40562     0.36888     0.24329
    1 imaginary frequencies ignored.
 Zero-point vibrational energy     723799.1 (Joules/Mol)
                                  172.99214 (Kcal/Mol)
 Warning -- explicit consideration of  25 degrees of freedom as
           vibrations may cause significant error
 Vibrational temperatures:     42.52    48.54    81.21    89.31   103.59
          (Kelvin)            123.35   145.33   160.99   211.40   230.04
                              271.34   293.98   311.76   343.06   389.93
                              394.99   433.36   477.69   544.95   606.07
                              646.84   715.55   794.17   803.68   882.09
                              919.93   979.22  1029.50  1057.86  1078.68
                             1142.50  1168.94  1229.13  1282.66  1337.28
                             1430.42  1456.66  1456.77  1469.57  1485.48
                             1508.44  1532.09  1544.67  1562.11  1605.31
                             1633.34  1659.73  1684.33  1698.59  1704.43
                             1746.06  1751.17  1791.01  1880.10  1885.49
                             1931.84  1938.07  1967.41  2024.49  2076.65
                             2082.80  2106.08  2118.20  2135.54  2147.20
                             2147.87  2150.57  2165.61  2167.25  2207.94
                             2220.79  2354.35  2361.16  2363.83  2402.94
                             4351.48  4359.70  4423.52  4432.80  4460.02
                             4542.92  4558.90  4560.17  4563.30  4585.26
                             4595.29  4611.41  4625.53  4631.74  4641.65
                             5056.01  5178.54

 Zero-point correction=                           0.275681 (Hartree/Particle)
 Thermal correction to Energy=                    0.293146
 Thermal correction to Enthalpy=                  0.294091
 Thermal correction to Gibbs Free Energy=         0.227979
 Sum of electronic and zero-point Energies=          -3226.169216
 Sum of electronic and thermal Energies=             -3226.151750
 Sum of electronic and thermal Enthalpies=           -3226.150806
 Sum of electronic and thermal Free Energies=        -3226.216918

                     E (Thermal)             CV                S
                      KCal/Mol        Cal/Mol-Kelvin    Cal/Mol-Kelvin
 Total                  183.952             62.170            139.143
 Electronic               0.000              0.000              0.000
 Translational            0.889              2.981             42.830
 Rotational               0.889              2.981             33.445
 Vibrational            182.175             56.208             62.868
 Vibration     1          0.593              1.984              5.859
 Vibration     2          0.594              1.983              5.597
 Vibration     3          0.596              1.975              4.578
 Vibration     4          0.597              1.972              4.390
 Vibration     5          0.598              1.967              4.098
 Vibration     6          0.601              1.959              3.755
 Vibration     7          0.604              1.948              3.435
 Vibration     8          0.607              1.940              3.236
 Vibration     9          0.617              1.906              2.712
 Vibration    10          0.622              1.891              2.551
 Vibration    11          0.633              1.856              2.242
 Vibration    12          0.640              1.834              2.094
 Vibration    13          0.646              1.816              1.987
 Vibration    14          0.656              1.782              1.814
 Vibration    15          0.675              1.727              1.590
 Vibration    16          0.677              1.720              1.568
 Vibration    17          0.693              1.671              1.410
 Vibration    18          0.714              1.612              1.250
 Vibration    19          0.749              1.515              1.044
 Vibration    20          0.784              1.424              0.888
 Vibration    21          0.808              1.362              0.797
 Vibration    22          0.853              1.256              0.665
 Vibration    23          0.907              1.135              0.540
 Vibration    24          0.914              1.121              0.527
 Vibration    25          0.972              1.004              0.428

 Optimization completed.
    -- Stationary point found.
 Normal termination of Gaussian 16 at Sat Feb 20 19:55:40 2021.
