 Gaussian 16, Revision A.03,
 Gaussian 16:  ES64L-G16RevA.03 25-Dec-2016

 ----------------------------------------------------------------------
 # wB97XD def2tzvp, opt=(ts, noeigen, calcfc, maxcycles=70, maxstep=3),
  freq=noraman, scrf=(iefpcm, solvent=water)
 ----------------------------------------------------------------------

 ------------------------
 3_iteration/TS-615-3.out
 ------------------------
 Symbolic Z-matrix:
 Charge =  0 Multiplicity = 1

 SCF Done:  E(RwB97XD) =  -3378.87953510     A.U. after   15 cycles
 Optimization completed.
    -- Stationary point found.
 Normal termination of Gaussian 16 at Sun Feb 21 05:26:17 2021.

 ---------------------------------------------------------------------
 #N Geom=AllCheck Guess=TCheck SCRF=Check GenChk RwB97XD/def2TZVP Freq
 ---------------------------------------------------------------------

 Structure from the checkpoint file:  "/beegfs/scratch/user/q/tla25/Gau-11439.chk"
 ------------------------
 3_iteration/TS-615-3.out
 ------------------------
 Charge =  0 Multiplicity = 1

                         Standard orientation:
 ---------------------------------------------------------------------
 Center     Atomic      Atomic             Coordinates (Angstroms)
 Number     Number       Type             X           Y           Z
 ---------------------------------------------------------------------
      1          6           0       -0.877439   -1.574731   -0.316611
      2          6           0        0.555051   -1.728151   -0.343571
      3          8           0        1.080051   -2.730131   -0.841581
      4          6           0       -1.641389   -0.478361    0.081689
      5          6           0       -1.107179   -1.004981    2.744389
      6          1           0       -0.543739   -0.098261    2.949899
      7          1           0       -1.486629   -1.416401    3.677809
      8          1           0       -0.456729   -1.736241    2.265879
      9          7           0       -2.206769   -0.713621    1.824039
     10          1           0       -2.791679   -1.535581    1.714529
     11          1           0       -2.809909    0.031819    2.159109
     12         35           0       -3.478079   -0.516430   -0.705131
     13          6           0       -1.115269    0.928949   -0.008831
     14          6           0       -0.557829    1.303159   -1.235571
     15          6           0       -0.028479    2.565749   -1.420231
     16          6           0       -0.048469    3.489169   -0.382841
     17          6           0       -0.613029    3.137039    0.830049
     18          6           0       -1.149419    1.869079    1.015299
     19          1           0       -0.533129    0.581679   -2.041401
     20          1           0        0.404981    2.828879   -2.376261
     21          1           0        0.371831    4.476529   -0.522631
     22          1           0       -0.640039    3.846999    1.646139
     23          1           0       -1.578089    1.645549    1.980349
     24          1           0       -1.402679   -2.476821   -0.596671
     25          7           0        1.337341   -0.736431    0.227369
     26          6           0        2.707601   -0.506361    0.089939
     27          6           0        3.633411   -1.480221   -0.287311
     28          6           0        4.979131   -1.152141   -0.379361
     29          6           0        5.430491    0.127169   -0.093701
     30          6           0        4.510091    1.094119    0.289649
     31          6           0        3.165281    0.784399    0.377319
     32          1           0        0.837981    0.053259    0.597389
     33          1           0        3.291621   -2.478771   -0.504861
     34          1           0        5.684541   -1.919201   -0.675331
     35          1           0        6.482921    0.368679   -0.166211
     36          1           0        4.838821    2.100659    0.516869
     37          1           0        2.452961    1.550389    0.665869
 ---------------------------------------------------------------------

 SCF Done:  E(RwB97XD) =  -3378.87953510     A.U. after    1 cycles

 The electronic state is 1-A.
 Alpha  occ. eigenvalues -- -483.12953 -62.67796 -56.46904 -56.46562 -56.46553
 Alpha  occ. eigenvalues --  -19.19907 -14.50916 -14.45736 -10.41009 -10.38255
 Alpha  occ. eigenvalues --  -10.33563 -10.32533 -10.32323 -10.30835 -10.30222
 Alpha  occ. eigenvalues --  -10.30100 -10.30030 -10.29945 -10.28948 -10.28791
 Alpha  occ. eigenvalues --  -10.28698 -10.28139 -10.28039 -10.25518  -8.81890
 Alpha  occ. eigenvalues --   -6.64008  -6.62927  -6.62899  -2.74390  -2.74093
 Alpha  occ. eigenvalues --   -2.74071  -2.73196  -2.73196  -1.12800  -1.06347
 Alpha  occ. eigenvalues --   -1.03533  -0.98650  -0.95307  -0.93232  -0.86676
 Alpha  occ. eigenvalues --   -0.86481  -0.85525  -0.84963  -0.82410  -0.80124
 Alpha  occ. eigenvalues --   -0.74871  -0.72246  -0.71842  -0.71066  -0.67937
 Alpha  occ. eigenvalues --   -0.66113  -0.64856  -0.62648  -0.61241  -0.59281
 Alpha  occ. eigenvalues --   -0.58248  -0.57702  -0.57064  -0.54866  -0.53891
 Alpha  occ. eigenvalues --   -0.53202  -0.52713  -0.51959  -0.51822  -0.51280
 Alpha  occ. eigenvalues --   -0.50908  -0.49750  -0.48855  -0.47938  -0.47272
 Alpha  occ. eigenvalues --   -0.46285  -0.45536  -0.44535  -0.43631  -0.43334
 Alpha  occ. eigenvalues --   -0.42632  -0.39173  -0.38405  -0.37808  -0.35033
 Alpha  occ. eigenvalues --   -0.34017  -0.33828  -0.33298  -0.30233  -0.27344
 Alpha virt. eigenvalues --    0.00846   0.03987   0.04719   0.05457   0.06637
 Alpha virt. eigenvalues --    0.08047   0.10346   0.12176   0.13393   0.13830
 Alpha virt. eigenvalues --    0.14133   0.15021   0.15589   0.16799   0.17140

 Mulliken charges:
               1
     1  C   -0.517119
     2  C    0.393567
     3  O   -0.541671
     4  C    0.247533
     5  C   -0.318948
     6  H    0.165416
     7  H    0.173709
     8  H    0.161350
     9  N   -0.264186
    10  H    0.290011
    11  H    0.295697
    12  Br  -0.146000
    13  C    0.024607
    14  C   -0.257327
    15  C   -0.116062
    16  C   -0.133344
    17  C   -0.164797
    18  C   -0.157513
    19  H    0.160320
    20  H    0.148953
    21  H    0.149921
    22  H    0.149238
    23  H    0.142467
    24  H    0.124270
    25  N   -0.229440
    26  C    0.294272
    27  C   -0.324272
    28  C   -0.095761
    29  C   -0.196076
    30  C   -0.123277
    31  C   -0.301941
    32  H    0.237713
    33  H    0.149563
    34  H    0.140057
    35  H    0.138878
    36  H    0.139635
    37  H    0.160556
 Sum of Mulliken charges =  -0.00000

 Dipole moment (field-independent basis, Debye):
    X=             -5.1614    Y=              6.8323    Z=              8.3723  Tot=             11.9756
 Quadrupole moment (field-independent basis, Debye-Ang):
   XX=           -128.9876   YY=           -133.5133   ZZ=           -117.7697
   XY=             12.0286   XZ=            -14.7827   YZ=             -7.8796

  Exact polarizability: 385.352  15.914 331.114 -22.047  27.161 264.204
 Approx polarizability: 284.828   9.804 273.054 -17.952  24.323 230.091

 ******    1 imaginary frequencies (negative Signs) ******

                      1                      2                      3
                      A                      A                      A
 Frequencies --   -353.1575                20.3942                29.2157
 Red. masses --      5.3686                 5.4505                 3.8639
 Frc consts  --      0.3945                 0.0013                 0.0019
 IR Inten    --    730.5730                 0.4085                 0.4368

                      4                      5                      6
                      A                      A                      A
 Frequencies --     37.7424                51.8819                78.0118
 Red. masses --      4.3247                 5.2759                 6.9250
 Frc consts  --      0.0036                 0.0084                 0.0248
 IR Inten    --      0.2009                 3.8861                 3.3883

                      7                      8                      9
                      A                      A                      A
 Frequencies --     83.2287               115.4452               127.0068
 Red. masses --      5.9603                 5.5118                 5.1684
 Frc consts  --      0.0243                 0.0433                 0.0491
 IR Inten    --      4.6290                 1.4344                 5.7159

                     10                     11                     12
                      A                      A                      A
 Frequencies --    161.7045               166.4989               198.3574
 Red. masses --      3.4008                 5.3617                 2.1458
 Frc consts  --      0.0524                 0.0876                 0.0497
 IR Inten    --      3.1159                 8.6058                18.2927

                     13                     14                     15
                      A                      A                      A
 Frequencies --    216.6537               244.4920               260.0363
 Red. masses --      1.8940                 3.4020                 3.8373
 Frc consts  --      0.0524                 0.1198                 0.1529
 IR Inten    --      6.2647                 5.8945                 3.8157

                     16                     17                     18
                      A                      A                      A
 Frequencies --    266.0239               304.0162               325.9886
 Red. masses --      3.5356                 4.0992                 3.0797
 Frc consts  --      0.1474                 0.2232                 0.1928
 IR Inten    --      5.0435                24.9227                11.5991

                     19                     20                     21
                      A                      A                      A
 Frequencies --    343.9079               368.5495               422.1648
 Red. masses --      6.3286                 5.3258                 2.8477
 Frc consts  --      0.4410                 0.4262                 0.2990
 IR Inten    --      7.3218                12.7645                 1.0536

                     22                     23                     24
                      A                      A                      A
 Frequencies --    423.9930               478.0179               517.1801
 Red. masses --      2.9751                 6.2916                 3.6687
 Frc consts  --      0.3151                 0.8470                 0.5782
 IR Inten    --      0.1148                83.0703                10.7958

                     25                     26                     27
                      A                      A                      A
 Frequencies --    527.1891               566.0862               591.1415
 Red. masses --      2.7314                 3.2860                 4.9529
 Frc consts  --      0.4473                 0.6204                 1.0198
 IR Inten    --     21.9637                78.5083                35.1225

                     28                     29                     30
                      A                      A                      A
 Frequencies --    611.4066               636.2872               640.4500
 Red. masses --      1.3526                 6.0307                 5.2830
 Frc consts  --      0.2979                 1.4385                 1.2767
 IR Inten    --    175.6711                 3.1259                30.4311

                     31                     32                     33
                      A                      A                      A
 Frequencies --    655.4700               692.5049               718.5846
 Red. masses --      1.5201                 2.8890                 1.9490
 Frc consts  --      0.3848                 0.8163                 0.5930
 IR Inten    --     92.0380                67.9852                59.1727

                     34                     35                     36
                      A                      A                      A
 Frequencies --    720.3384               723.1093               751.6945
 Red. masses --      2.1540                 2.4253                 1.8421
 Frc consts  --      0.6585                 0.7472                 0.6133
 IR Inten    --     40.3695                20.9108               338.2957

                     37                     38                     39
                      A                      A                      A
 Frequencies --    782.2201               786.4069               817.6111
 Red. masses --      2.2437                 3.5658                 2.5432
 Frc consts  --      0.8088                 1.2993                 1.0017
 IR Inten    --     17.4603               152.8295                17.7337

                     40                     41                     42
                      A                      A                      A
 Frequencies --    846.7899               859.9446               872.8017
 Red. masses --      3.4838                 1.2650                 1.2535
 Frc consts  --      1.4718                 0.5511                 0.5626
 IR Inten    --     98.2234                 0.5153                 0.2757

                     43                     44                     45
                      A                      A                      A
 Frequencies --    896.2531               930.9401               964.7127
 Red. masses --      4.8393                 1.5109                 1.4658
 Frc consts  --      2.2903                 0.7715                 0.8037
 IR Inten    --     56.5555                15.3524                 1.6597

                     46                     47                     48
                      A                      A                      A
 Frequencies --    991.9263              1000.3723              1011.5337
 Red. masses --      2.7994                 1.3495                 1.4319
 Frc consts  --      1.6229                 0.7957                 0.8632
 IR Inten    --      4.3266                 0.0889                31.1627

                     49                     50                     51
                      A                      A                      A
 Frequencies --   1015.7920              1019.8294              1021.0039
 Red. masses --      1.2844                 1.6511                 3.6624
 Frc consts  --      0.7808                 1.0118                 2.2494
 IR Inten    --      0.9483                 2.5766                16.1742

                     52                     53                     54
                      A                      A                      A
 Frequencies --   1026.3901              1039.3059              1060.3533
 Red. masses --      4.1225                 1.3251                 2.0125
 Frc consts  --      2.5588                 0.8433                 1.3332
 IR Inten    --      4.5304                 0.3073                20.8114

                     55                     56                     57
                      A                      A                      A
 Frequencies --   1066.0798              1066.7478              1095.7760
 Red. masses --      2.7872                 2.6813                 1.2808
 Frc consts  --      1.8664                 1.7977                 0.9061
 IR Inten    --      8.9060                18.7075               106.8900

                     58                     59                     60
                      A                      A                      A
 Frequencies --   1116.1614              1128.2628              1163.3902
 Red. masses --      1.5144                 1.5924                 2.4586
 Frc consts  --      1.1116                 1.1944                 1.9606
 IR Inten    --     13.6077                16.2794               130.5139

                     61                     62                     63
                      A                      A                      A
 Frequencies --   1180.3225              1189.2105              1204.4413
 Red. masses --      1.1223                 1.1261                 1.1410
 Frc consts  --      0.9212                 0.9383                 0.9752
 IR Inten    --      4.3722                 3.2538                26.8641

                     64                     65                     66
                      A                      A                      A
 Frequencies --   1223.7939              1259.4158              1272.4339
 Red. masses --      1.1333                 1.3577                 2.4737
 Frc consts  --      1.0001                 1.2688                 2.3597
 IR Inten    --      3.2205                43.3640               870.8089

                     67                     68                     69
                      A                      A                      A
 Frequencies --   1288.5262              1315.4938              1334.6011
 Red. masses --      4.0230                 3.5331                 1.7574
 Frc consts  --      3.9354                 3.6024                 1.8443
 IR Inten    --     67.2505                25.9407                33.3746

                     70                     71                     72
                      A                      A                      A
 Frequencies --   1344.2153              1357.5804              1360.0414
 Red. masses --      2.4904                 1.6480                 1.8654
 Frc consts  --      2.6513                 1.7895                 2.0330
 IR Inten    --    471.0097               116.7597               132.1341

                     73                     74                     75
                      A                      A                      A
 Frequencies --   1367.1917              1435.6271              1465.5581
 Red. masses --      1.4213                 2.6708                 1.4011
 Frc consts  --      1.5653                 3.2432                 1.7731
 IR Inten    --      7.7575               537.1520               114.9200

                     76                     77                     78
                      A                      A                      A
 Frequencies --   1477.0866              1491.4273              1499.0316
 Red. masses --      2.1027                 2.2092                 1.0399
 Frc consts  --      2.7030                 2.8953                 1.3768
 IR Inten    --    185.3742                72.1312                21.1526

                     79                     80                     81
                      A                      A                      A
 Frequencies --   1508.7497              1542.6226              1544.8765
 Red. masses --      1.0436                 2.3611                 2.4289
 Frc consts  --      1.3996                 3.3104                 3.4155
 IR Inten    --     16.8369               253.2094                70.1068

                     82                     83                     84
                      A                      A                      A
 Frequencies --   1569.3913              1645.1037              1652.6388
 Red. masses --      2.1186                 1.5358                 5.9413
 Frc consts  --      3.0744                 2.4488                 9.5607
 IR Inten    --    321.0118               186.5193               467.1320

                     85                     86                     87
                      A                      A                      A
 Frequencies --   1655.2227              1670.6902              1673.9186
 Red. masses --      2.4360                 3.3544                 5.5769
 Frc consts  --      3.9322                 5.5164                 9.2069
 IR Inten    --     18.7863               189.8571                 0.5764

                     88                     89                     90
                      A                      A                      A
 Frequencies --   1677.9259              3080.5975              3162.5247
 Red. masses --      5.5415                 1.0328                 1.1049
 Frc consts  --      9.1922                 5.7749                 6.5110
 IR Inten    --    546.8467                26.2599                 2.6192

                     91                     92                     93
                      A                      A                      A
 Frequencies --   3177.0533              3181.5957              3194.3717
 Red. masses --      1.0893                 1.1060                 1.0876
 Frc consts  --      6.4783                 6.5960                 6.5389
 IR Inten    --     11.3950                13.0888                 4.1265

                     94                     95                     96
                      A                      A                      A
 Frequencies --   3204.3136              3204.3822              3212.6134
 Red. masses --      1.0925                 1.0866                 1.0896
 Frc consts  --      6.6090                 6.5737                 6.6255
 IR Inten    --     27.4444                 0.1802                 4.1711

                     97                     98                     99
                      A                      A                      A
 Frequencies --   3214.0041              3220.1169              3221.2459
 Red. masses --      1.0879                 1.0978                 1.0936
 Frc consts  --      6.6213                 6.7066                 6.6857
 IR Inten    --      3.9465                24.7063                14.0482

                    100                    101                    102
                      A                      A                      A
 Frequencies --   3228.8067              3246.8188              3265.3245
 Red. masses --      1.0978                 1.0926                 1.0928
 Frc consts  --      6.7430                 6.7860                 6.8651
 IR Inten    --     17.2533                14.4729                 3.9100

                    103                    104                    105
                      A                      A                      A
 Frequencies --   3506.6440              3583.0888              3651.5271
 Red. masses --      1.0519                 1.0959                 1.0755
 Frc consts  --      7.6208                 8.2896                 8.4490
 IR Inten    --     49.0843                51.7619               112.9127

 - Thermochemistry -
 -------------------
 Temperature   298.150 Kelvin.  Pressure   1.00000 Atm.
 Atom     1 has atomic number  6 and mass  12.00000

 Molecular mass:   332.05242 amu.
 Principal axes and moments of inertia in atomic units:
                           1         2         3
     Eigenvalues --  3960.16762********************
           X            0.99980  -0.00574  -0.01936
           Y            0.00538   0.99981  -0.01869
           Z            0.01946   0.01858   0.99964
 This molecule is an asymmetric top.
 Rotational symmetry number  1.
 Warning -- assumption of classical behavior for rotation
           may cause significant error
 Rotational temperatures (Kelvin)      0.02187     0.00843     0.00722
 Rotational constants (GHZ):           0.45572     0.17565     0.15048
    1 imaginary frequencies ignored.
 Zero-point vibrational energy     792032.8 (Joules/Mol)
                                  189.30039 (Kcal/Mol)
 Warning -- explicit consideration of  27 degrees of freedom as
           vibrations may cause significant error
 Vibrational temperatures:     29.34    42.03    54.30    74.65   112.24
          (Kelvin)            119.75   166.10   182.73   232.66   239.55
                              285.39   311.72   351.77   374.13   382.75
                              437.41   469.02   494.81   530.26   607.40
                              610.03   687.76   744.11   758.51   814.47
                              850.52   879.68   915.48   921.46   943.08
                              996.36  1033.88  1036.41  1040.39  1081.52
                             1125.44  1131.46  1176.36  1218.34  1237.27
                             1255.77  1289.51  1339.42  1388.01  1427.16
                             1439.31  1455.37  1461.50  1467.31  1469.00
                             1476.75  1495.33  1525.61  1533.85  1534.81
                             1576.58  1605.91  1623.32  1673.86  1698.22
                             1711.01  1732.92  1760.77  1812.02  1830.75
                             1853.90  1892.70  1920.19  1934.03  1953.26
                             1956.80  1967.08  2065.55  2108.61  2125.20
                             2145.83  2156.77  2170.75  2219.49  2222.73
                             2258.00  2366.94  2377.78  2381.50  2403.75
                             2408.40  2414.16  4432.29  4550.17  4571.07
                             4577.61  4595.99  4610.29  4610.39  4622.23
                             4624.24  4633.03  4634.65  4645.53  4671.45
                             4698.07  5045.28  5155.27  5253.73

 Zero-point correction=                           0.301669 (Hartree/Particle)
 Thermal correction to Energy=                    0.320100
 Thermal correction to Enthalpy=                  0.321044
 Thermal correction to Gibbs Free Energy=         0.252468
 Sum of electronic and zero-point Energies=          -3378.577866
 Sum of electronic and thermal Energies=             -3378.559436
 Sum of electronic and thermal Enthalpies=           -3378.558491
 Sum of electronic and thermal Free Energies=        -3378.627067

                     E (Thermal)             CV                S
                      KCal/Mol        Cal/Mol-Kelvin    Cal/Mol-Kelvin
 Total                  200.865             70.126            144.329
 Electronic               0.000              0.000              0.000
 Translational            0.889              2.981             43.295
 Rotational               0.889              2.981             34.544
 Vibrational            199.088             64.165             66.490
 Vibration     1          0.593              1.986              6.595
 Vibration     2          0.593              1.984              5.882
 Vibration     3          0.594              1.982              5.374
 Vibration     4          0.596              1.977              4.744
 Vibration     5          0.599              1.964              3.940
 Vibration     6          0.600              1.961              3.813
 Vibration     7          0.608              1.937              3.175
 Vibration     8          0.611              1.926              2.991
 Vibration     9          0.622              1.889              2.530
 Vibration    10          0.624              1.884              2.475
 Vibration    11          0.637              1.842              2.148
 Vibration    12          0.645              1.816              1.987
 Vibration    13          0.660              1.772              1.770
 Vibration    14          0.668              1.746              1.662
 Vibration    15          0.672              1.735              1.622
 Vibration    16          0.695              1.666              1.395
 Vibration    17          0.710              1.624              1.280
 Vibration    18          0.723              1.588              1.194
 Vibration    19          0.741              1.537              1.086
 Vibration    20          0.784              1.422              0.885
 Vibration    21          0.786              1.418              0.879
 Vibration    22          0.835              1.299              0.715
 Vibration    23          0.872              1.212              0.617
 Vibration    24          0.882              1.190              0.594
 Vibration    25          0.922              1.105              0.512
 Vibration    26          0.949              1.051              0.465
 Vibration    27          0.971              1.008              0.430

 Optimization completed.
    -- Stationary point found.
 Normal termination of Gaussian 16 at Sun Feb 21 07:53:21 2021.
