 Gaussian 16, Revision A.03,
 Gaussian 16:  ES64L-G16RevA.03 25-Dec-2016

 ----------------------------------------------------------------------
 # wB97XD def2tzvp, opt=(ts, noeigen, calcfc, maxcycles=70, maxstep=8),
  freq=noraman, scrf=(iefpcm, solvent=water)
 ----------------------------------------------------------------------

 ------------------------
 1_iteration/TS-671-1.out
 ------------------------
 Symbolic Z-matrix:
 Charge =  0 Multiplicity = 1

 SCF Done:  E(RwB97XD) =  -5721.44772082     A.U. after   14 cycles
 SCF Done:  E(RwB97XD) =  -5721.44772081     A.U. after    6 cycles
 Optimization completed.
    -- Stationary point found.
 Normal termination of Gaussian 16 at Fri Feb 19 13:35:56 2021.

 ---------------------------------------------------------------------
 #N Geom=AllCheck Guess=TCheck SCRF=Check GenChk RwB97XD/def2TZVP Freq
 ---------------------------------------------------------------------

 Structure from the checkpoint file:  "/beegfs/scratch/user/q/tla25/Gau-105403.chk"
 ------------------------
 1_iteration/TS-671-1.out
 ------------------------
 Charge =  0 Multiplicity = 1

                         Standard orientation:
 ---------------------------------------------------------------------
 Center     Atomic      Atomic             Coordinates (Angstroms)
 Number     Number       Type             X           Y           Z
 ---------------------------------------------------------------------
      1          6           0       -0.623161   -0.116628   -0.143000
      2          6           0        0.682973    0.517501   -0.227330
      3          8           0        0.782258    1.731342   -0.426034
      4          6           0       -1.729197    0.688893   -0.297078
      5          6           0       -3.167526    2.648971    1.320411
      6          1           0       -3.265372    3.145343    2.286524
      7          1           0       -2.830179    3.374225    0.581064
      8          1           0       -4.138445    2.261423    1.019240
      9          7           0       -2.208389    1.548357    1.376449
     10          1           0       -1.294086    1.865103    1.678763
     11          1           0       -2.508849    0.811278    2.004171
     12         35           0       -3.421129   -0.036437   -0.808182
     13          1           0       -1.545838    1.632671   -0.790933
     14         35           0       -0.804193   -1.914680    0.461421
     15          7           0        1.776766   -0.295997   -0.090094
     16          6           0        3.136350    0.033837   -0.105213
     17          6           0        3.633302    1.304855   -0.395272
     18          6           0        5.004162    1.524846   -0.387551
     19          6           0        5.896336    0.504298   -0.100211
     20          6           0        5.400295   -0.761305    0.184352
     21          6           0        4.037741   -0.995352    0.183497
     22          1           0        1.578947   -1.268364    0.081041
     23          1           0        2.949388    2.105464   -0.622677
     24          1           0        5.374107    2.517329   -0.614211
     25          1           0        6.962550    0.689320   -0.098735
     26          1           0        6.077940   -1.574892    0.410896
     27          1           0        3.661754   -1.986564    0.409640
 ---------------------------------------------------------------------

 SCF Done:  E(RwB97XD) =  -5721.44772081     A.U. after    1 cycles

 The electronic state is 1-A.
 Alpha  occ. eigenvalues -- -483.13938-483.13298 -62.68794 -62.68125 -56.47912
 Alpha  occ. eigenvalues --  -56.47557 -56.47538 -56.47232 -56.46897 -56.46883
 Alpha  occ. eigenvalues --  -19.21288 -14.48618 -14.46840 -10.39712 -10.38935
 Alpha  occ. eigenvalues --  -10.34009 -10.31960 -10.31540 -10.29132 -10.28977
 Alpha  occ. eigenvalues --  -10.28971 -10.28362 -10.28335  -8.82916  -8.82238
 Alpha  occ. eigenvalues --   -6.65082  -6.64357  -6.63944  -6.63884  -6.63282
 Alpha  occ. eigenvalues --   -6.63239  -2.75472  -2.75148  -2.75101  -2.74754
 Alpha  occ. eigenvalues --   -2.74445  -2.74408  -2.74180  -2.74180  -2.73540
 Alpha  occ. eigenvalues --   -2.73539  -1.14357  -1.04562  -1.04024  -0.96001
 Alpha  occ. eigenvalues --   -0.94805  -0.89738  -0.85270  -0.85053  -0.82790
 Alpha  occ. eigenvalues --   -0.78959  -0.74935  -0.71664  -0.68537  -0.64926
 Alpha  occ. eigenvalues --   -0.63844  -0.62881  -0.60031  -0.57923  -0.56400
 Alpha  occ. eigenvalues --   -0.55024  -0.54057  -0.52742  -0.52608  -0.51965
 Alpha  occ. eigenvalues --   -0.50649  -0.50014  -0.48289  -0.47624  -0.46281
 Alpha  occ. eigenvalues --   -0.45538  -0.44816  -0.42971  -0.40468  -0.39906
 Alpha  occ. eigenvalues --   -0.39666  -0.37730  -0.36819  -0.34503  -0.33823
 Alpha  occ. eigenvalues --   -0.30630  -0.27502
 Alpha virt. eigenvalues --    0.03118   0.04670   0.05303   0.07952   0.09277
 Alpha virt. eigenvalues --    0.10850   0.12899   0.14043   0.14663   0.15287
 Alpha virt. eigenvalues --    0.16020   0.16796   0.17474   0.18037   0.18650

 Mulliken charges:
               1
     1  C   -0.227585
     2  C    0.421883
     3  O   -0.540100
     4  C   -0.054512
     5  C   -0.273292
     6  H    0.154685
     7  H    0.152728
     8  H    0.151967
     9  N   -0.340909
    10  H    0.285043
    11  H    0.286429
    12  Br  -0.060554
    13  H    0.191214
    14  Br  -0.137069
    15  N   -0.277047
    16  C    0.302285
    17  C   -0.294339
    18  C   -0.109482
    19  C   -0.195045
    20  C   -0.099088
    21  C   -0.308697
    22  H    0.239786
    23  H    0.162161
    24  H    0.141903
    25  H    0.141216
    26  H    0.144048
    27  H    0.142373
 Sum of Mulliken charges =  -0.00000

 Dipole moment (field-independent basis, Debye):
    X=             -3.9312    Y=              1.6740    Z=              4.7403  Tot=              6.3818
 Quadrupole moment (field-independent basis, Debye-Ang):
   XX=           -101.0151   YY=           -106.4067   ZZ=           -111.4624
   XY=            -16.1067   XZ=             -7.9589   YZ=              5.3056

  Exact polarizability: 357.359 -13.864 258.675  -4.203  -5.964 169.728
 Approx polarizability: 249.435  -3.928 220.090  -0.826  -8.364 151.101

 ******    1 imaginary frequencies (negative Signs) ******

                      1                      2                      3
                      A                      A                      A
 Frequencies --   -363.6250                15.3876                24.4628
 Red. masses --      6.7606                 3.8007                 6.3622
 Frc consts  --      0.5267                 0.0005                 0.0022
 IR Inten    --   1121.1125                 0.9066                 2.0835

                      4                      5                      6
                      A                      A                      A
 Frequencies --     43.4927                60.5707                70.4289
 Red. masses --      4.7241                 2.9293                 3.8741
 Frc consts  --      0.0053                 0.0063                 0.0113
 IR Inten    --      4.7797                 8.1140                 5.7892

                      7                      8                      9
                      A                      A                      A
 Frequencies --     72.8821               100.7962               122.2784
 Red. masses --      5.8077                 4.9475                13.4841
 Frc consts  --      0.0182                 0.0296                 0.1188
 IR Inten    --      5.2469                 4.5877                 0.3804

                     10                     11                     12
                      A                      A                      A
 Frequencies --    147.8468               170.6374               196.4855
 Red. masses --      2.1424                 2.1457                 6.0418
 Frc consts  --      0.0276                 0.0368                 0.1374
 IR Inten    --      9.3215                 6.2637                 7.9918

                     13                     14                     15
                      A                      A                      A
 Frequencies --    207.2217               249.0901               281.7238
 Red. masses --      5.1927                 4.4300                 3.5481
 Frc consts  --      0.1314                 0.1619                 0.1659
 IR Inten    --     25.4966                 2.2000                 2.7342

                     16                     17                     18
                      A                      A                      A
 Frequencies --    355.2381               392.9256               416.7576
 Red. masses --      8.5112                 8.9865                 8.2519
 Frc consts  --      0.6328                 0.8175                 0.8444
 IR Inten    --      5.5218                 8.5002               127.3104

                     19                     20                     21
                      A                      A                      A
 Frequencies --    424.2896               526.3368               536.3001
 Red. masses --      3.0153                 2.8994                 5.8940
 Frc consts  --      0.3198                 0.4732                 0.9988
 IR Inten    --      2.3055                21.6725                71.0028

                     22                     23                     24
                      A                      A                      A
 Frequencies --    569.0064               585.3072               635.1770
 Red. masses --      1.1635                 2.3973                 5.9267
 Frc consts  --      0.2219                 0.4839                 1.4088
 IR Inten    --     98.7877                 2.3937                 2.1317

                     25                     26                     27
                      A                      A                      A
 Frequencies --    651.8462               719.1889               727.7652
 Red. masses --      2.9779                 1.8960                 3.0762
 Frc consts  --      0.7455                 0.5778                 0.9599
 IR Inten    --     25.9229                62.6130               108.8699

                     28                     29                     30
                      A                      A                      A
 Frequencies --    762.8315               785.0340               837.1702
 Red. masses --      9.3923                 1.8171                 4.1163
 Frc consts  --      3.2202                 0.6598                 1.6997
 IR Inten    --     30.6753               103.1947                66.6547

                     31                     32                     33
                      A                      A                      A
 Frequencies --    861.9295               874.7007               934.5039
 Red. masses --      1.2605                 5.6484                 1.4654
 Frc consts  --      0.5517                 2.5462                 0.7540
 IR Inten    --      0.1470                 7.2396                12.6710

                     34                     35                     36
                      A                      A                      A
 Frequencies --   1002.5455              1006.1002              1018.9805
 Red. masses --      1.3508                 1.0820                 1.2857
 Frc consts  --      0.7999                 0.6453                 0.7866
 IR Inten    --      0.0475                12.3022                 0.6930

                     37                     38                     39
                      A                      A                      A
 Frequencies --   1020.3974              1031.9361              1049.1395
 Red. masses --      5.8168                 1.1769                 3.3971
 Frc consts  --      3.5684                 0.7384                 2.2031
 IR Inten    --      9.3697               137.6017                22.7193

                     40                     41                     42
                      A                      A                      A
 Frequencies --   1065.1321              1074.6558              1121.3860
 Red. masses --      2.2431                 3.9379                 1.5013
 Frc consts  --      1.4994                 2.6795                 1.1123
 IR Inten    --     24.0750               227.1924                12.9667

                     43                     44                     45
                      A                      A                      A
 Frequencies --   1131.9996              1182.6846              1204.4711
 Red. masses --      1.2496                 1.1235                 1.2392
 Frc consts  --      0.9435                 0.9259                 1.0592
 IR Inten    --     83.8979                 3.5400                44.2006

                     46                     47                     48
                      A                      A                      A
 Frequencies --   1208.4676              1220.2117              1264.2798
 Red. masses --      1.1538                 1.3977                 3.3173
 Frc consts  --      0.9928                 1.2261                 3.1241
 IR Inten    --     16.5825                21.2848               492.7545

                     49                     50                     51
                      A                      A                      A
 Frequencies --   1276.6040              1345.5854              1347.3116
 Red. masses --      3.2080                 1.3398                 3.9829
 Frc consts  --      3.0803                 1.4293                 4.2598
 IR Inten    --    189.3674                13.0994               787.2163

                     52                     53                     54
                      A                      A                      A
 Frequencies --   1360.7354              1424.2856              1460.3847
 Red. masses --      1.5381                 4.7622                 1.2382
 Frc consts  --      1.6779                 5.6918                 1.5558
 IR Inten    --      9.9072               871.7125                56.1500

                     55                     56                     57
                      A                      A                      A
 Frequencies --   1483.7449              1489.9663              1502.1941
 Red. masses --      2.2085                 1.0418                 1.0363
 Frc consts  --      2.8646                 1.3627                 1.3778
 IR Inten    --    301.9165                19.0035                 9.7615

                     58                     59                     60
                      A                      A                      A
 Frequencies --   1546.1764              1578.8605              1640.4349
 Red. masses --      2.4362                 2.1497                 1.1173
 Frc consts  --      3.4315                 3.1572                 1.7715
 IR Inten    --    188.9617               904.9716                42.1180

                     61                     62                     63
                      A                      A                      A
 Frequencies --   1658.4720              1667.2423              1681.4991
 Red. masses --      6.8086                 3.5783                 6.4263
 Frc consts  --     11.0338                 5.8603                10.7055
 IR Inten    --    269.3974                99.7712               282.4853

                     64                     65                     66
                      A                      A                      A
 Frequencies --   3067.3121              3144.2645              3168.6465
 Red. masses --      1.0342                 1.1043                 1.1053
 Frc consts  --      5.7331                 6.4325                 6.5384
 IR Inten    --     51.6013                15.6106                11.5980

                     67                     68                     69
                      A                      A                      A
 Frequencies --   3188.4389              3197.8411              3207.3169
 Red. masses --      1.0880                 1.0884                 1.0933
 Frc consts  --      6.5168                 6.5578                 6.6263
 IR Inten    --     12.8547                 2.4913                29.5766

                     70                     71                     72
                      A                      A                      A
 Frequencies --   3222.3679              3222.5978              3271.1405
 Red. masses --      1.0900                 1.0979                 1.0925
 Frc consts  --      6.6684                 6.7178                 6.8877
 IR Inten    --      6.4366                22.1114                 6.1516

                     73                     74                     75
                      A                      A                      A
 Frequencies --   3521.4923              3605.9929              3627.3651
 Red. masses --      1.0507                 1.0969                 1.0764
 Frc consts  --      7.6767                 8.4040                 8.3444
 IR Inten    --     27.4120                52.4850               100.2670

 - Thermochemistry -
 -------------------
 Temperature   298.150 Kelvin.  Pressure   1.00000 Atm.
 Atom     1 has atomic number  6 and mass  12.00000

 Molecular mass:   333.93164 amu.
 Principal axes and moments of inertia in atomic units:
                           1         2         3
     Eigenvalues --  2588.94310********************
           X            0.99976  -0.01616  -0.01492
           Y            0.01679   0.99891   0.04347
           Z            0.01420  -0.04371   0.99894
 This molecule is an asymmetric top.
 Rotational symmetry number  1.
 Warning -- assumption of classical behavior for rotation
           may cause significant error
 Rotational temperatures (Kelvin)      0.03346     0.00777     0.00679
 Rotational constants (GHZ):           0.69710     0.16182     0.14157
    1 imaginary frequencies ignored.
 Zero-point vibrational energy     549506.3 (Joules/Mol)
                                  131.33515 (Kcal/Mol)
 Warning -- explicit consideration of  22 degrees of freedom as
           vibrations may cause significant error
 Vibrational temperatures:     22.14    35.20    62.58    87.15   101.33
          (Kelvin)            104.86   145.02   175.93   212.72   245.51
                              282.70   298.15   358.39   405.34   511.11
                              565.33   599.62   610.46   757.28   771.62
                              818.67   842.13   913.88   937.86  1034.75
                             1047.09  1097.54  1129.49  1204.50  1240.12
                             1258.50  1344.54  1442.44  1447.55  1466.09
                             1468.12  1484.73  1509.48  1532.49  1546.19
                             1613.42  1628.69  1701.62  1732.97  1738.72
                             1755.61  1819.02  1836.75  1936.00  1938.48
                             1957.79  2049.23  2101.17  2134.78  2143.73
                             2161.32  2224.60  2271.63  2360.22  2386.17
                             2398.79  2419.30  4413.18  4523.90  4558.98
                             4587.45  4600.98  4614.61  4636.27  4636.60
                             4706.44  5066.64  5188.22  5218.97

 Zero-point correction=                           0.209296 (Hartree/Particle)
 Thermal correction to Energy=                    0.225261
 Thermal correction to Enthalpy=                  0.226205
 Thermal correction to Gibbs Free Energy=         0.160890
 Sum of electronic and zero-point Energies=          -5721.238425
 Sum of electronic and thermal Energies=             -5721.222460
 Sum of electronic and thermal Enthalpies=           -5721.221516
 Sum of electronic and thermal Free Energies=        -5721.286830

                     E (Thermal)             CV                S
                      KCal/Mol        Cal/Mol-Kelvin    Cal/Mol-Kelvin
 Total                  141.353             55.503            137.466
 Electronic               0.000              0.000              0.000
 Translational            0.889              2.981             43.312
 Rotational               0.889              2.981             34.264
 Vibrational            139.576             49.541             59.890
 Vibration     1          0.593              1.986              7.155
 Vibration     2          0.593              1.985              6.234
 Vibration     3          0.595              1.980              5.093
 Vibration     4          0.597              1.973              4.439
 Vibration     5          0.598              1.968              4.141
 Vibration     6          0.599              1.967              4.074
 Vibration     7          0.604              1.948              3.439
 Vibration     8          0.610              1.931              3.064
 Vibration     9          0.617              1.905              2.700
 Vibration    10          0.626              1.879              2.428
 Vibration    11          0.636              1.845              2.166
 Vibration    12          0.641              1.830              2.068
 Vibration    13          0.662              1.764              1.737
 Vibration    14          0.681              1.707              1.523
 Vibration    15          0.731              1.565              1.143
 Vibration    16          0.760              1.485              0.989
 Vibration    17          0.780              1.434              0.903
 Vibration    18          0.786              1.417              0.878
 Vibration    19          0.881              1.192              0.595
 Vibration    20          0.891              1.170              0.573
 Vibration    21          0.925              1.098              0.506
 Vibration    22          0.942              1.063              0.476

 Optimization completed.
    -- Stationary point found.
 Normal termination of Gaussian 16 at Fri Feb 19 14:23:42 2021.
