 Gaussian 16, Revision A.03,
 Gaussian 16:  ES64L-G16RevA.03 25-Dec-2016

 ----------------------------------------------------------------------
 # wB97XD def2tzvp, opt=(ts, noeigen, calcfc, maxcycles=70, maxstep=8),
  freq=noraman, scrf=(iefpcm, solvent=water)
 ----------------------------------------------------------------------

 -----------------------
 1_iteration/TS-65-1.out
 -----------------------
 Symbolic Z-matrix:
 Charge =  0 Multiplicity = 1

 SCF Done:  E(RwB97XD) =  -3092.46051240     A.U. after   15 cycles
 SCF Done:  E(RwB97XD) =  -3092.46063362     A.U. after   12 cycles
 SCF Done:  E(RwB97XD) =  -3092.46063970     A.U. after   11 cycles
 SCF Done:  E(RwB97XD) =  -3092.46064370     A.U. after   10 cycles
 SCF Done:  E(RwB97XD) =  -3092.46064427     A.U. after    8 cycles
 SCF Done:  E(RwB97XD) =  -3092.46064426     A.U. after    6 cycles
 Optimization completed.
    -- Stationary point found.
 Normal termination of Gaussian 16 at Sat Jan 30 22:44:51 2021.

 ---------------------------------------------------------------------
 #N Geom=AllCheck Guess=TCheck SCRF=Check GenChk RwB97XD/def2TZVP Freq
 ---------------------------------------------------------------------

 Structure from the checkpoint file:  "/beegfs/scratch/user/q/tla25/Gau-23336.chk"
 -----------------------
 1_iteration/TS-65-1.out
 -----------------------
 Charge =  0 Multiplicity = 1

                         Standard orientation:
 ---------------------------------------------------------------------
 Center     Atomic      Atomic             Coordinates (Angstroms)
 Number     Number       Type             X           Y           Z
 ---------------------------------------------------------------------
      1          6           0       -1.178604    0.135026    0.533909
      2          6           0       -2.295714    0.599606    1.273143
      3          8           0       -3.384689    0.054500    1.423929
      4          6           0       -0.019942    0.900131    0.448599
      5          6           0       -1.394908    2.746811   -1.219489
      6          1           0       -1.513016    3.311618   -2.144353
      7          1           0       -2.175435    1.987212   -1.165879
      8          1           0       -1.505852    3.420744   -0.371406
      9          7           0       -0.099279    2.089404   -1.143837
     10          1           0        0.074081    1.515229   -1.959752
     11          1           0        0.663852    2.750441   -1.061348
     12          6           0        1.362781    0.378835    0.276905
     13          6           0        2.284884    0.664238    1.281661
     14          6           0        3.585336    0.189820    1.206780
     15          6           0        3.987168   -0.563221    0.113971
     16          6           0        3.081116   -0.837354   -0.900801
     17          6           0        1.778113   -0.372827   -0.820162
     18          1           0        1.979085    1.259111    2.134122
     19          1           0        4.285844    0.415973    2.000403
     20          1           0        5.003659   -0.929680    0.049028
     21          1           0        3.389227   -1.416105   -1.762138
     22          1           0        1.087065   -0.596811   -1.621200
     23          1           0       -0.056057    1.744575    1.130959
     24         35           0       -1.385849   -1.518317   -0.387134
     25          1           0       -2.096644    1.570567    1.769567
 ---------------------------------------------------------------------

 SCF Done:  E(RwB97XD) =  -3092.46064426     A.U. after    1 cycles

 The electronic state is 1-A.
 Alpha  occ. eigenvalues -- -483.12313 -62.67149 -56.46250 -56.45920 -56.45910
 Alpha  occ. eigenvalues --  -19.21612 -14.47971 -10.35477 -10.35464 -10.31644
 Alpha  occ. eigenvalues --  -10.31305 -10.31220 -10.29782 -10.29744 -10.29525
 Alpha  occ. eigenvalues --  -10.29486 -10.29438  -8.81264  -6.63370  -6.62310
 Alpha  occ. eigenvalues --   -6.62279  -2.73771  -2.73459  -2.73435  -2.72577
 Alpha  occ. eigenvalues --   -2.72577  -1.12023  -1.03576  -0.97816  -0.93291
 Alpha  occ. eigenvalues --   -0.87828  -0.85781  -0.83420  -0.78930  -0.75309
 Alpha  occ. eigenvalues --   -0.71292  -0.68679  -0.64010  -0.62675  -0.61164
 Alpha  occ. eigenvalues --   -0.57537  -0.56944  -0.56152  -0.55026  -0.52841
 Alpha  occ. eigenvalues --   -0.52559  -0.51446  -0.49836  -0.48392  -0.47790
 Alpha  occ. eigenvalues --   -0.47180  -0.45556  -0.44333  -0.43588  -0.42537
 Alpha  occ. eigenvalues --   -0.38837  -0.36986  -0.34251  -0.34046  -0.33101
 Alpha  occ. eigenvalues --   -0.28425
 Alpha virt. eigenvalues --    0.01622   0.04754   0.06949   0.07878   0.10787
 Alpha virt. eigenvalues --    0.12961   0.13215   0.14039   0.14757   0.16529
 Alpha virt. eigenvalues --    0.16584   0.17476   0.18477   0.19209   0.19599

 Mulliken charges:
               1
     1  C   -0.066104
     2  C    0.058504
     3  O   -0.483398
     4  C   -0.127360
     5  C   -0.308830
     6  H    0.159158
     7  H    0.161157
     8  H    0.156277
     9  N   -0.347888
    10  H    0.279384
    11  H    0.288134
    12  C    0.298453
    13  C   -0.239525
    14  C   -0.132410
    15  C   -0.154679
    16  C   -0.133106
    17  C   -0.301481
    18  H    0.145141
    19  H    0.146938
    20  H    0.147617
    21  H    0.146862
    22  H    0.168047
    23  H    0.187595
    24  Br  -0.132704
    25  H    0.084218
 Sum of Mulliken charges =  -0.00000

 Dipole moment (field-independent basis, Debye):
    X=              8.5168    Y=              7.7118    Z=             -4.6138  Tot=             12.3812
 Quadrupole moment (field-independent basis, Debye-Ang):
   XX=           -107.5553   YY=            -76.8254   ZZ=            -84.1755
   XY=             -6.6520   XZ=             10.8252   YZ=             -0.5055

  Exact polarizability: 263.061   1.702 192.608 -14.373  15.671 192.847
 Approx polarizability: 200.662   2.553 159.286  -8.235  15.682 165.249

 ******    1 imaginary frequencies (negative Signs) ******

                      1                      2                      3
                      A                      A                      A
 Frequencies --   -314.6760                39.8289                55.9648
 Red. masses --      5.7880                 5.4813                 4.9738
 Frc consts  --      0.3377                 0.0051                 0.0092
 IR Inten    --    788.1969                 0.9584                 5.2395

                      4                      5                      6
                      A                      A                      A
 Frequencies --     72.3102                87.7071               106.3274
 Red. masses --      3.2151                 4.0812                 2.8801
 Frc consts  --      0.0099                 0.0185                 0.0192
 IR Inten    --      4.2052                 2.6319                13.3180

                      7                      8                      9
                      A                      A                      A
 Frequencies --    125.7566               169.3861               186.2020
 Red. masses --      2.4630                 1.5508                 8.4263
 Frc consts  --      0.0229                 0.0262                 0.1721
 IR Inten    --      0.6580                 4.7415                 9.4919

                     10                     11                     12
                      A                      A                      A
 Frequencies --    223.1210               250.8303               283.3676
 Red. masses --      4.4814                 3.6658                 3.7289
 Frc consts  --      0.1314                 0.1359                 0.1764
 IR Inten    --      3.7632                 5.7737                35.9717

                     13                     14                     15
                      A                      A                      A
 Frequencies --    318.9837               387.3477               422.3327
 Red. masses --      4.7518                 3.4020                 2.9006
 Frc consts  --      0.2849                 0.3007                 0.3048
 IR Inten    --      1.1151                 9.9015                 2.8292

                     16                     17                     18
                      A                      A                      A
 Frequencies --    461.1122               527.4712               557.2237
 Red. masses --      4.0662                 2.2801                 3.7599
 Frc consts  --      0.5094                 0.3738                 0.6878
 IR Inten    --     52.0432                40.2946               128.7777

                     19                     20                     21
                      A                      A                      A
 Frequencies --    629.6901               635.6576               638.3198
 Red. masses --      2.3233                 6.5723                 6.0576
 Frc consts  --      0.5428                 1.5646                 1.4542
 IR Inten    --     58.1952                55.0766                15.2677

                     22                     23                     24
                      A                      A                      A
 Frequencies --    727.1298               743.5545               800.2357
 Red. masses --      1.6080                 3.3419                 2.1286
 Frc consts  --      0.5009                 1.0886                 0.8031
 IR Inten    --     92.5993                40.3500                 8.7225

                     25                     26                     27
                      A                      A                      A
 Frequencies --    867.7251               878.8088               964.0063
 Red. masses --      4.3153                 1.2510                 1.4164
 Frc consts  --      1.9144                 0.5693                 0.7755
 IR Inten    --     18.0963                 0.2383                 1.8898

                     28                     29                     30
                      A                      A                      A
 Frequencies --    993.1787              1004.2056              1013.7050
 Red. masses --      1.0963                 1.1563                 1.5662
 Frc consts  --      0.6371                 0.6870                 0.9482
 IR Inten    --     93.1105                50.8772                 3.3692

                     31                     32                     33
                      A                      A                      A
 Frequencies --   1017.1583              1026.7198              1034.8323
 Red. masses --      1.3528                 5.7605                 1.3108
 Frc consts  --      0.8246                 3.5778                 0.8270
 IR Inten    --     10.7641                 3.3183                 0.6352

                     34                     35                     36
                      A                      A                      A
 Frequencies --   1065.0403              1087.9029              1118.4821
 Red. masses --      2.1934                 4.5529                 1.5361
 Frc consts  --      1.4659                 3.1748                 1.1322
 IR Inten    --      7.2390                29.4617                26.0969

                     37                     38                     39
                      A                      A                      A
 Frequencies --   1128.4071              1186.5830              1204.9176
 Red. masses --      1.1601                 1.1374                 1.4124
 Frc consts  --      0.8703                 0.9435                 1.2082
 IR Inten    --     55.5929                 0.0840                22.3585

                     40                     41                     42
                      A                      A                      A
 Frequencies --   1208.5690              1218.5052              1232.0571
 Red. masses --      2.3302                 1.2013                 3.1676
 Frc consts  --      2.0054                 1.0509                 2.8330
 IR Inten    --    194.0292                 8.1576               104.6720

                     43                     44                     45
                      A                      A                      A
 Frequencies --   1287.9307              1334.7241              1344.7772
 Red. masses --      2.1861                 3.7701                 1.3427
 Frc consts  --      2.1365                 3.9572                 1.4307
 IR Inten    --     11.4648                65.6548                 1.2381

                     46                     47                     48
                      A                      A                      A
 Frequencies --   1370.5370              1426.8808              1455.0397
 Red. masses --      1.3927                 1.3089                 1.2051
 Frc consts  --      1.5413                 1.5701                 1.5033
 IR Inten    --     41.2970               127.5383                37.0088

                     49                     50                     51
                      A                      A                      A
 Frequencies --   1486.4981              1493.6007              1502.0908
 Red. masses --      2.2459                 1.0434                 1.0394
 Frc consts  --      2.9239                 1.3714                 1.3817
 IR Inten    --    173.1831                24.9402                24.8350

                     52                     53                     54
                      A                      A                      A
 Frequencies --   1519.2399              1553.5848              1648.3354
 Red. masses --      2.5519                 2.6378                 1.1026
 Frc consts  --      3.4704                 3.7511                 1.7650
 IR Inten    --    341.1900                68.0827                60.3446

                     55                     56                     57
                      A                      A                      A
 Frequencies --   1654.5748              1677.4615              1681.6950
 Red. masses --      5.3339                 5.9724                 8.5869
 Frc consts  --      8.6034                 9.9015                14.3081
 IR Inten    --     19.7853               137.0154              1062.4386

                     58                     59                     60
                      A                      A                      A
 Frequencies --   2914.5998              3064.3428              3140.4287
 Red. masses --      1.0812                 1.0330                 1.1047
 Frc consts  --      5.4115                 5.7151                 6.4190
 IR Inten    --    146.3592                31.4326                12.3769

                     61                     62                     63
                      A                      A                      A
 Frequencies --   3158.1155              3160.5311              3194.3384
 Red. masses --      1.1043                 1.0887                 1.0876
 Frc consts  --      6.4889                 6.4075                 6.5385
 IR Inten    --     20.7876                 4.7838                 5.1591

                     64                     65                     66
                      A                      A                      A
 Frequencies --   3201.8049              3211.4367              3221.6602
 Red. masses --      1.0883                 1.0923                 1.0959
 Frc consts  --      6.5735                 6.6373                 6.7014
 IR Inten    --      0.6617                21.8482                27.9970

                     67                     68                     69
                      A                      A                      A
 Frequencies --   3229.5980              3534.7408              3617.7802
 Red. masses --      1.0962                 1.0504                 1.0962
 Frc consts  --      6.7363                 7.7324                 8.4536
 IR Inten    --      5.4537                48.6842                39.9287

 - Thermochemistry -
 -------------------
 Temperature   298.150 Kelvin.  Pressure   1.00000 Atm.
 Atom     1 has atomic number  6 and mass  12.00000

 Molecular mass:   241.01023 amu.
 Principal axes and moments of inertia in atomic units:
                           1         2         3
     Eigenvalues --  2153.006204593.284075379.91928
           X            0.99846  -0.05524   0.00437
           Y            0.05538   0.99741  -0.04588
           Z           -0.00182   0.04605   0.99894
 This molecule is an asymmetric top.
 Rotational symmetry number  1.
 Warning -- assumption of classical behavior for rotation
           may cause significant error
 Rotational temperatures (Kelvin)      0.04023     0.01886     0.01610
 Rotational constants (GHZ):           0.83824     0.39291     0.33546
    1 imaginary frequencies ignored.
 Zero-point vibrational energy     531064.3 (Joules/Mol)
                                  126.92741 (Kcal/Mol)
 Warning -- explicit consideration of  17 degrees of freedom as
           vibrations may cause significant error
 Vibrational temperatures:     57.30    80.52   104.04   126.19   152.98
          (Kelvin)            180.94   243.71   267.90   321.02   360.89
                              407.70   458.95   557.31   607.64   663.44
                              758.91   801.72   905.98   914.57   918.40
                             1046.18  1069.81  1151.36  1248.46  1264.41
                             1386.99  1428.96  1444.83  1458.50  1463.46
                             1477.22  1488.89  1532.36  1565.25  1609.25
                             1623.53  1707.23  1733.61  1738.86  1753.16
                             1772.66  1853.05  1920.37  1934.83  1971.90
                             2052.96  2093.48  2138.74  2148.96  2161.17
                             2185.85  2235.26  2371.59  2380.56  2413.49
                             2419.58  4193.46  4408.91  4518.38  4543.82
                             4547.30  4595.94  4606.68  4620.54  4635.25
                             4646.67  5085.70  5205.18

 Zero-point correction=                           0.202272 (Hartree/Particle)
 Thermal correction to Energy=                    0.215375
 Thermal correction to Enthalpy=                  0.216319
 Thermal correction to Gibbs Free Energy=         0.160639
 Sum of electronic and zero-point Energies=          -3092.258373
 Sum of electronic and thermal Energies=             -3092.245269
 Sum of electronic and thermal Enthalpies=           -3092.244325
 Sum of electronic and thermal Free Energies=        -3092.300005

                     E (Thermal)             CV                S
                      KCal/Mol        Cal/Mol-Kelvin    Cal/Mol-Kelvin
 Total                  135.150             47.007            117.189
 Electronic               0.000              0.000              0.000
 Translational            0.889              2.981             42.340
 Rotational               0.889              2.981             32.342
 Vibrational            133.372             41.045             42.507
 Vibration     1          0.594              1.981              5.268
 Vibration     2          0.596              1.975              4.595
 Vibration     3          0.598              1.967              4.089
 Vibration     4          0.601              1.958              3.711
 Vibration     5          0.605              1.944              3.335
 Vibration     6          0.611              1.927              3.010
 Vibration     7          0.625              1.880              2.442
 Vibration     8          0.632              1.859              2.265
 Vibration     9          0.649              1.806              1.934
 Vibration    10          0.663              1.761              1.725
 Vibration    11          0.682              1.704              1.513
 Vibration    12          0.705              1.637              1.315
 Vibration    13          0.756              1.497              1.010
 Vibration    14          0.785              1.422              0.884
 Vibration    15          0.819              1.336              0.763
 Vibration    16          0.882              1.189              0.593
 Vibration    17          0.913              1.124              0.529

 Optimization completed.
    -- Stationary point found.
 Normal termination of Gaussian 16 at Sat Jan 30 23:22:38 2021.
