 Gaussian 16, Revision A.03,
 Gaussian 16:  ES64L-G16RevA.03 25-Dec-2016

 ----------------------------------------------------------------------
 # wB97XD def2tzvp, opt=(ts, noeigen, calcfc, maxcycles=70, maxstep=1),
  freq=noraman, scrf=(iefpcm, solvent=water)
 ----------------------------------------------------------------------

 ------------------------
 0_iteration/TS-689-0.out
 ------------------------
 Symbolic Z-matrix:
 Charge =  0 Multiplicity = 1

 SCF Done:  E(RwB97XD) =  -2900.71370539     A.U. after   15 cycles
 SCF Done:  E(RwB97XD) =  -2900.71364934     A.U. after   10 cycles
 SCF Done:  E(RwB97XD) =  -2900.71359770     A.U. after   10 cycles
 SCF Done:  E(RwB97XD) =  -2900.71355060     A.U. after   10 cycles
 SCF Done:  E(RwB97XD) =  -2900.71350808     A.U. after   10 cycles
 SCF Done:  E(RwB97XD) =  -2900.71347019     A.U. after   10 cycles
 SCF Done:  E(RwB97XD) =  -2900.71343695     A.U. after   10 cycles
 SCF Done:  E(RwB97XD) =  -2900.71340840     A.U. after   10 cycles
 SCF Done:  E(RwB97XD) =  -2900.71338457     A.U. after   10 cycles
 SCF Done:  E(RwB97XD) =  -2900.71336550     A.U. after   10 cycles
 SCF Done:  E(RwB97XD) =  -2900.71896078     A.U. after   10 cycles
 SCF Done:  E(RwB97XD) =  -2900.71903257     A.U. after   10 cycles
 SCF Done:  E(RwB97XD) =  -2900.71908610     A.U. after   10 cycles
 SCF Done:  E(RwB97XD) =  -2900.71912430     A.U. after   10 cycles
 SCF Done:  E(RwB97XD) =  -2900.71914900     A.U. after   10 cycles
 SCF Done:  E(RwB97XD) =  -2900.71916300     A.U. after   10 cycles
 SCF Done:  E(RwB97XD) =  -2900.71916716     A.U. after   10 cycles
 SCF Done:  E(RwB97XD) =  -2900.71916720     A.U. after    9 cycles
 SCF Done:  E(RwB97XD) =  -2900.71916719     A.U. after    8 cycles
 Optimization completed.
    -- Stationary point found.
 Normal termination of Gaussian 16 at Thu Feb 18 20:28:53 2021.

 ---------------------------------------------------------------------
 #N Geom=AllCheck Guess=TCheck SCRF=Check GenChk RwB97XD/def2TZVP Freq
 ---------------------------------------------------------------------

 Structure from the checkpoint file:  "/beegfs/scratch/user/q/tla25/Gau-14090.chk"
 ------------------------
 0_iteration/TS-689-0.out
 ------------------------
 Charge =  0 Multiplicity = 1

                         Standard orientation:
 ---------------------------------------------------------------------
 Center     Atomic      Atomic             Coordinates (Angstroms)
 Number     Number       Type             X           Y           Z
 ---------------------------------------------------------------------
      1          6           0       -1.019985   -0.762044   -0.350215
      2          6           0       -2.333488   -0.939189    0.143948
      3          8           0       -3.229044   -1.576398   -0.418366
      4          6           0       -0.049007   -0.021758    0.311232
      5          6           0       -1.268238    2.454725   -0.364037
      6          1           0       -1.375872    2.850007    0.643426
      7          1           0       -1.364713    3.270301   -1.080090
      8          1           0       -2.060306    1.726505   -0.552300
      9          7           0        0.014068    1.776165   -0.487443
     10          1           0        0.231701    1.571956   -1.455795
     11          1           0        0.777646    2.322133   -0.104088
     12         35           0        1.780147   -0.511660   -0.167852
     13          6           0       -0.148079    0.373550    1.757611
     14          1           0       -1.111840    0.835080    1.967385
     15          1           0       -0.052186   -0.516863    2.379120
     16          1           0        0.638515    1.072409    2.033475
     17          1           0       -0.785644   -1.200317   -1.312471
     18          1           0       -2.555770   -0.476788    1.123955
 ---------------------------------------------------------------------

 SCF Done:  E(RwB97XD) =  -2900.71916719     A.U. after    1 cycles

 The electronic state is 1-A.
 Alpha  occ. eigenvalues -- -483.13147 -62.68012 -56.47116 -56.46778 -56.46765
 Alpha  occ. eigenvalues --  -19.20743 -14.48623 -10.40232 -10.34681 -10.31835
 Alpha  occ. eigenvalues --  -10.29504 -10.25921  -8.82131  -6.64249  -6.63176
 Alpha  occ. eigenvalues --   -6.63133  -2.74640  -2.74339  -2.74306  -2.73437
 Alpha  occ. eigenvalues --   -2.73437  -1.10889  -1.04203  -0.94478  -0.85602
 Alpha  occ. eigenvalues --   -0.81795  -0.79037  -0.70062  -0.63303  -0.62971
 Alpha  occ. eigenvalues --   -0.58012  -0.56727  -0.55295  -0.53784  -0.50206
 Alpha  occ. eigenvalues --   -0.49904  -0.48307  -0.46693  -0.45917  -0.44909
 Alpha  occ. eigenvalues --   -0.43198  -0.37841  -0.37176  -0.32268  -0.28942
 Alpha virt. eigenvalues --    0.03424   0.05366   0.10328   0.12929   0.14003
 Alpha virt. eigenvalues --    0.14927   0.16121   0.17209   0.17997   0.18466
 Alpha virt. eigenvalues --    0.20178   0.20894   0.21344   0.23011   0.23900

 Mulliken charges:
               1
     1  C   -0.317224
     2  C    0.118044
     3  O   -0.512740
     4  C    0.134290
     5  C   -0.306178
     6  H    0.164526
     7  H    0.161476
     8  H    0.150398
     9  N   -0.336297
    10  H    0.285352
    11  H    0.291072
    12  Br  -0.114446
    13  C   -0.401990
    14  H    0.153924
    15  H    0.168944
    16  H    0.157453
    17  H    0.132362
    18  H    0.071036
 Sum of Mulliken charges =  -0.00000

 Dipole moment (field-independent basis, Debye):
    X=              5.1878    Y=              9.2105    Z=              1.4505  Tot=             10.6701
 Quadrupole moment (field-independent basis, Debye-Ang):
   XX=            -85.1598   YY=            -58.1905   ZZ=            -57.2245
   XY=            -12.7004   XZ=             -5.3176   YZ=             -3.8084

  Exact polarizability: 171.963  20.527 139.364  -0.411   3.740 108.900
 Approx polarizability: 133.206  14.169 111.420   0.278   3.926  93.445

 ******    1 imaginary frequencies (negative Signs) ******

                      1                      2                      3
                      A                      A                      A
 Frequencies --   -359.2726                72.8828                89.4399
 Red. masses --      5.3625                 2.0737                 4.4765
 Frc consts  --      0.4078                 0.0065                 0.0211
 IR Inten    --    787.8435                 2.1769                 2.4080

                      4                      5                      6
                      A                      A                      A
 Frequencies --    165.4803               167.5450               191.6625
 Red. masses --      2.7025                 1.4368                 3.8810
 Frc consts  --      0.0436                 0.0238                 0.0840
 IR Inten    --      4.0241                 8.8495                 4.6239

                      7                      8                      9
                      A                      A                      A
 Frequencies --    219.7194               251.7258               275.9697
 Red. masses --      1.8982                 1.5435                 2.6087
 Frc consts  --      0.0540                 0.0576                 0.1171
 IR Inten    --      9.0077                 4.4565                18.4397

                     10                     11                     12
                      A                      A                      A
 Frequencies --    292.2667               318.9882               334.3676
 Red. masses --      2.3959                 3.7447                 2.9784
 Frc consts  --      0.1206                 0.2245                 0.1962
 IR Inten    --     11.1980                 6.7133                24.8220

                     13                     14                     15
                      A                      A                      A
 Frequencies --    465.6720               517.0953               658.8647
 Red. masses --      3.0195                 4.3215                 1.5144
 Frc consts  --      0.3858                 0.6808                 0.3873
 IR Inten    --     28.2068                37.6541                22.2692

                     16                     17                     18
                      A                      A                      A
 Frequencies --    714.8579               797.5693               951.6299
 Red. masses --      2.5839                 1.3173                 2.7899
 Frc consts  --      0.7780                 0.4937                 1.4886
 IR Inten    --    205.6453               144.5417                87.6012

                     19                     20                     21
                      A                      A                      A
 Frequencies --    995.9604              1028.8492              1032.3020
 Red. masses --      1.0850                 1.4609                 1.2459
 Frc consts  --      0.6341                 0.9111                 0.7822
 IR Inten    --     42.2569                 1.9471                44.4958

                     22                     23                     24
                      A                      A                      A
 Frequencies --   1066.2486              1082.4754              1094.0345
 Red. masses --      1.4674                 3.3993                 1.7898
 Frc consts  --      0.9829                 2.3468                 1.2622
 IR Inten    --     96.5311                 3.6551               100.4292

                     25                     26                     27
                      A                      A                      A
 Frequencies --   1214.5249              1220.1288              1321.9800
 Red. masses --      1.4075                 2.2543                 1.7136
 Frc consts  --      1.2232                 1.9773                 1.7645
 IR Inten    --     18.5943               393.2159                28.6053

                     28                     29                     30
                      A                      A                      A
 Frequencies --   1343.8281              1408.9943              1420.5658
 Red. masses --      1.3431                 1.7630                 1.3757
 Frc consts  --      1.4290                 2.0622                 1.6357
 IR Inten    --      4.8825               693.2245                61.2452

                     31                     32                     33
                      A                      A                      A
 Frequencies --   1453.0694              1474.7406              1480.6145
 Red. masses --      1.1751                 1.1287                 1.0625
 Frc consts  --      1.4618                 1.4463                 1.3723
 IR Inten    --      4.8416                32.4329                12.3635

                     34                     35                     36
                      A                      A                      A
 Frequencies --   1494.0951              1505.9356              1526.2828
 Red. masses --      1.0453                 1.0430                 2.1052
 Frc consts  --      1.3748                 1.3936                 2.8895
 IR Inten    --      8.0311                24.2250               244.8592

                     37                     38                     39
                      A                      A                      A
 Frequencies --   1643.7580              1665.5434              2937.6478
 Red. masses --      1.0952                 5.4057                 1.0806
 Frc consts  --      1.7435                 8.8351                 5.4944
 IR Inten    --    108.2580              1198.5519               146.2436

                     40                     41                     42
                      A                      A                      A
 Frequencies --   3060.8060              3077.2941              3134.1291
 Red. masses --      1.0356                 1.0361                 1.1022
 Frc consts  --      5.7161                 5.7807                 6.3791
 IR Inten    --     32.3032                 8.9276                 9.9823

                     43                     44                     45
                      A                      A                      A
 Frequencies --   3154.8341              3165.4415              3170.9505
 Red. masses --      1.1022                 1.1036                 1.1042
 Frc consts  --      6.4632                 6.5154                 6.5417
 IR Inten    --      8.2813                13.5480                11.9600

                     46                     47                     48
                      A                      A                      A
 Frequencies --   3196.0186              3521.4115              3606.9730
 Red. masses --      1.0891                 1.0507                 1.0970
 Frc consts  --      6.5543                 7.6763                 8.4089
 IR Inten    --      5.1593                53.8221                50.0864

 - Thermochemistry -
 -------------------
 Temperature   298.150 Kelvin.  Pressure   1.00000 Atm.
 Atom     1 has atomic number  6 and mass  12.00000

 Molecular mass:   178.99458 amu.
 Principal axes and moments of inertia in atomic units:
                           1         2         3
     Eigenvalues --  1067.692042140.340002704.11932
           X            0.99998  -0.00566   0.00106
           Y            0.00567   0.99992  -0.01168
           Z           -0.00100   0.01169   0.99993
 This molecule is an asymmetric top.
 Rotational symmetry number  1.
 Warning -- assumption of classical behavior for rotation
           may cause significant error
 Rotational temperatures (Kelvin)      0.08112     0.04047     0.03203
 Rotational constants (GHZ):           1.69032     0.84320     0.66740
    1 imaginary frequencies ignored.
 Zero-point vibrational energy     388697.7 (Joules/Mol)
                                   92.90097 (Kcal/Mol)
 Warning -- explicit consideration of  13 degrees of freedom as
           vibrations may cause significant error
 Vibrational temperatures:    104.86   128.68   238.09   241.06   275.76
          (Kelvin)            316.13   362.18   397.06   420.51   458.95
                              481.08   670.00   743.98   947.96  1028.52
                             1147.52  1369.18  1432.96  1480.28  1485.25
                             1534.09  1557.44  1574.07  1747.43  1755.49
                             1902.03  1933.47  2027.23  2043.88  2090.64
                             2121.82  2130.27  2149.67  2166.71  2195.98
                             2365.00  2396.35  4226.62  4403.82  4427.54
                             4509.31  4539.10  4554.36  4562.29  4598.36
                             5066.53  5189.63

 Zero-point correction=                           0.148047 (Hartree/Particle)
 Thermal correction to Energy=                    0.158006
 Thermal correction to Enthalpy=                  0.158950
 Thermal correction to Gibbs Free Energy=         0.111978
 Sum of electronic and zero-point Energies=          -2900.571120
 Sum of electronic and thermal Energies=             -2900.561161
 Sum of electronic and thermal Enthalpies=           -2900.560217
 Sum of electronic and thermal Free Energies=        -2900.607190

                     E (Thermal)             CV                S
                      KCal/Mol        Cal/Mol-Kelvin    Cal/Mol-Kelvin
 Total                   99.150             34.435             98.862
 Electronic               0.000              0.000              0.000
 Translational            0.889              2.981             41.453
 Rotational               0.889              2.981             30.203
 Vibrational             97.373             28.473             27.205
 Vibration     1          0.599              1.967              4.074
 Vibration     2          0.602              1.957              3.672
 Vibration     3          0.624              1.885              2.486
 Vibration     4          0.624              1.882              2.463
 Vibration     5          0.634              1.851              2.212
 Vibration     6          0.647              1.811              1.961
 Vibration     7          0.664              1.760              1.718
 Vibration     8          0.678              1.718              1.559
 Vibration     9          0.688              1.688              1.461
 Vibration    10          0.705              1.637              1.315
 Vibration    11          0.716              1.607              1.239
 Vibration    12          0.823              1.326              0.750
 Vibration    13          0.872              1.212              0.617

 Optimization completed.
    -- Stationary point found.
 Normal termination of Gaussian 16 at Thu Feb 18 20:37:27 2021.
