 Gaussian 16, Revision A.03,
 Gaussian 16:  ES64L-G16RevA.03 25-Dec-2016

 ----------------------------------------------------------------------
 # wB97XD def2tzvp, opt=(ts, noeigen, calcfc, maxcycles=70, maxstep=5),
  freq=noraman, scrf=(iefpcm, solvent=water)
 ----------------------------------------------------------------------

 -----------------------
 2_iteration/TS-62-2.out
 -----------------------
 Symbolic Z-matrix:
 Charge =  0 Multiplicity = 1

 SCF Done:  E(RwB97XD) =  -692.148056309     A.U. after   14 cycles
 SCF Done:  E(RwB97XD) =  -692.148077464     A.U. after   11 cycles
 SCF Done:  E(RwB97XD) =  -692.148077665     A.U. after    8 cycles
 SCF Done:  E(RwB97XD) =  -692.148077672     A.U. after    7 cycles
 Optimization completed on the basis of negligible forces.
    -- Stationary point found.
 Normal termination of Gaussian 16 at Sun Jan 31 11:33:43 2021.

 ---------------------------------------------------------------------
 #N Geom=AllCheck Guess=TCheck SCRF=Check GenChk RwB97XD/def2TZVP Freq
 ---------------------------------------------------------------------

 Structure from the checkpoint file:  "/beegfs/scratch/user/q/tla25/Gau-116312.chk"
 -----------------------
 2_iteration/TS-62-2.out
 -----------------------
 Charge =  0 Multiplicity = 1

                         Standard orientation:
 ---------------------------------------------------------------------
 Center     Atomic      Atomic             Coordinates (Angstroms)
 Number     Number       Type             X           Y           Z
 ---------------------------------------------------------------------
      1          6           0       -0.871579   -0.306196   -0.233867
      2          6           0       -2.148284    0.216957    0.146013
      3          8           0       -2.281013    1.389056    0.583555
      4          6           0        0.222592    0.429007    0.275330
      5          6           0        1.248525    3.037311   -0.009552
      6          1           0        1.083982    4.037731   -0.410975
      7          1           0        1.135480    3.068543    1.074051
      8          1           0        2.261406    2.716463   -0.246795
      9          7           0        0.296995    2.073615   -0.550633
     10          1           0       -0.673854    2.313860   -0.344096
     11          1           0        0.398885    1.943255   -1.549462
     12          6           0        1.617405   -0.099590    0.193937
     13          6           0        2.320945   -0.210664   -1.002294
     14          6           0        3.610069   -0.720690   -1.022810
     15          6           0        4.216914   -1.134723    0.154385
     16          6           0        3.527744   -1.025233    1.353274
     17          6           0        2.242600   -0.504244    1.370658
     18          1           0        1.868155    0.109828   -1.931848
     19          1           0        4.142203   -0.794260   -1.962906
     20          1           0        5.222927   -1.534261    0.137660
     21          1           0        3.993768   -1.337760    2.279321
     22          1           0        1.712735   -0.411135    2.311568
     23          1           0        0.027044    0.884910    1.243193
     24          6           0       -0.704399   -1.340876   -1.321994
     25          1           0       -0.217409   -2.263111   -0.984703
     26          1           0       -1.670503   -1.621338   -1.740171
     27          1           0       -0.112232   -0.964182   -2.160839
     28          7           0       -3.284699   -0.558990   -0.009723
     29          6           0       -4.575174    0.066000    0.165896
     30          6           0       -3.276458   -1.983361    0.252322
     31          1           0       -4.563231    1.072908   -0.243518
     32          1           0       -5.328463   -0.523044   -0.361418
     33          1           0       -4.869197    0.128118    1.221732
     34          1           0       -2.261898   -2.333347    0.419300
     35          1           0       -3.861506   -2.201974    1.153459
     36          1           0       -3.711661   -2.548214   -0.577286
 ---------------------------------------------------------------------

 SCF Done:  E(RwB97XD) =  -692.148077672     A.U. after    1 cycles

 The electronic state is 1-A.
 Alpha  occ. eigenvalues --  -19.18679 -14.47647 -14.43645 -10.35390 -10.32712
 Alpha  occ. eigenvalues --  -10.31535 -10.30171 -10.29993 -10.29579 -10.29182
 Alpha  occ. eigenvalues --  -10.29132 -10.29119 -10.29071 -10.28980 -10.26337
 Alpha  occ. eigenvalues --  -10.23946  -1.10803  -1.03442  -1.01126  -0.96979
 Alpha  occ. eigenvalues --   -0.89832  -0.85321  -0.84915  -0.80519  -0.79297
 Alpha  occ. eigenvalues --   -0.77326  -0.77284  -0.71058  -0.70646  -0.66580
 Alpha  occ. eigenvalues --   -0.63421  -0.61624  -0.59571  -0.57589  -0.55934
 Alpha  occ. eigenvalues --   -0.55516  -0.55235  -0.54688  -0.53793  -0.52340
 Alpha  occ. eigenvalues --   -0.51191  -0.50547  -0.49649  -0.48366  -0.47869
 Alpha  occ. eigenvalues --   -0.47560  -0.46938  -0.46564  -0.45857  -0.44720
 Alpha  occ. eigenvalues --   -0.44010  -0.43658  -0.42774  -0.41857  -0.41456
 Alpha  occ. eigenvalues --   -0.33933  -0.33632  -0.32871  -0.30532  -0.24293
 Alpha virt. eigenvalues --    0.03970   0.05140   0.09434   0.10402   0.11981
 Alpha virt. eigenvalues --    0.12884   0.13736   0.14461   0.15128   0.16193
 Alpha virt. eigenvalues --    0.16718   0.17138   0.17621   0.17908   0.18664

 Mulliken charges:
               1
     1  C   -0.260245
     2  C    0.328944
     3  O   -0.620739
     4  C   -0.113403
     5  C   -0.282830
     6  H    0.153257
     7  H    0.147210
     8  H    0.152523
     9  N   -0.274251
    10  H    0.274338
    11  H    0.269522
    12  C    0.327105
    13  C   -0.319657
    14  C   -0.138269
    15  C   -0.154727
    16  C   -0.136880
    17  C   -0.254812
    18  H    0.159417
    19  H    0.143050
    20  H    0.144309
    21  H    0.142726
    22  H    0.142650
    23  H    0.150259
    24  C   -0.400812
    25  H    0.121713
    26  H    0.141319
    27  H    0.112337
    28  N   -0.154340
    29  C   -0.293361
    30  C   -0.300000
    31  H    0.131344
    32  H    0.130243
    33  H    0.117162
    34  H    0.154877
    35  H    0.124236
    36  H    0.135785
 Sum of Mulliken charges =  -0.00000

 Dipole moment (field-independent basis, Debye):
    X=              4.2741    Y=              1.3321    Z=             -2.3213  Tot=              5.0430
 Quadrupole moment (field-independent basis, Debye-Ang):
   XX=            -93.6972   YY=            -91.6984   ZZ=            -92.1834
   XY=              9.5341   XZ=              1.7669   YZ=             -6.4896

  Exact polarizability: 308.244   1.599 221.315  -8.481  -1.555 215.985
 Approx polarizability: 220.041  -4.664 180.039  -5.200  -1.644 187.455

 ******    1 imaginary frequencies (negative Signs) ******

                      1                      2                      3
                      A                      A                      A
 Frequencies --   -392.5025                27.5837                48.9045
 Red. masses --      6.3449                 2.6818                 3.5588
 Frc consts  --      0.5759                 0.0012                 0.0050
 IR Inten    --   1039.5895                 1.3232                 0.7457

                      4                      5                      6
                      A                      A                      A
 Frequencies --     57.7712                79.1731                88.2494
 Red. masses --      3.0943                 2.8887                 2.7147
 Frc consts  --      0.0061                 0.0107                 0.0125
 IR Inten    --      6.1844                 2.7614                 9.5841

                      7                      8                      9
                      A                      A                      A
 Frequencies --    107.6955               113.9030               135.9625
 Red. masses --      1.7227                 2.1080                 2.2985
 Frc consts  --      0.0118                 0.0161                 0.0250
 IR Inten    --      2.9289                 8.1549                 4.4105

                     10                     11                     12
                      A                      A                      A
 Frequencies --    154.0864               164.6120               182.6248
 Red. masses --      1.2856                 2.1675                 1.1092
 Frc consts  --      0.0180                 0.0346                 0.0218
 IR Inten    --     12.8667                 3.7945                 0.6095

                     13                     14                     15
                      A                      A                      A
 Frequencies --    212.0380               221.8372               233.9926
 Red. masses --      2.2072                 2.6023                 3.8322
 Frc consts  --      0.0585                 0.0755                 0.1236
 IR Inten    --      8.6486                29.2199                 6.8099

                     16                     17                     18
                      A                      A                      A
 Frequencies --    261.2206               277.3732               323.9078
 Red. masses --      2.6386                 3.0484                 2.9136
 Frc consts  --      0.1061                 0.1382                 0.1801
 IR Inten    --      4.5979                39.4312                26.7412

                     19                     20                     21
                      A                      A                      A
 Frequencies --    348.1021               367.7503               397.5388
 Red. masses --      2.6460                 3.6276                 2.9771
 Frc consts  --      0.1889                 0.2891                 0.2772
 IR Inten    --      3.9579                12.5129                10.6277

                     22                     23                     24
                      A                      A                      A
 Frequencies --    424.7168               476.6662               545.7854
 Red. masses --      2.8824                 3.4243                 3.8469
 Frc consts  --      0.3063                 0.4584                 0.6752
 IR Inten    --      0.4778                66.9916                61.2799

                     25                     26                     27
                      A                      A                      A
 Frequencies --    578.0139               609.7584               636.2606
 Red. masses --      3.8478                 4.5169                 5.8255
 Frc consts  --      0.7574                 0.9895                 1.3895
 IR Inten    --    133.9653                38.5192                10.3752

                     28                     29                     30
                      A                      A                      A
 Frequencies --    662.0718               721.4481               734.3757
 Red. masses --      2.9028                 2.3153                 1.4973
 Frc consts  --      0.7497                 0.7100                 0.4758
 IR Inten    --      0.4091                38.5117               126.1729

                     31                     32                     33
                      A                      A                      A
 Frequencies --    768.8592               788.6752               802.7074
 Red. masses --      2.8107                 8.0290                 2.3386
 Frc consts  --      0.9789                 2.9424                 0.8878
 IR Inten    --     33.8944                45.2570                15.2132

                     34                     35                     36
                      A                      A                      A
 Frequencies --    865.4218               881.7736               961.4505
 Red. masses --      3.0519                 1.2468                 1.4371
 Frc consts  --      1.3467                 0.5712                 0.7827
 IR Inten    --     18.1191                 1.0092                10.2017

                     37                     38                     39
                      A                      A                      A
 Frequencies --    963.2418              1009.8759              1014.0927
 Red. masses --      2.7614                 1.4430                 1.3565
 Frc consts  --      1.5095                 0.8671                 0.8219
 IR Inten    --     39.3289                52.9094                 1.8285

                     40                     41                     42
                      A                      A                      A
 Frequencies --   1026.9484              1027.2936              1032.3330
 Red. masses --      1.3134                 5.4541                 1.3124
 Frc consts  --      0.8161                 3.3913                 0.8240
 IR Inten    --      8.1239                 3.0933                 2.0629

                     43                     44                     45
                      A                      A                      A
 Frequencies --   1060.6504              1063.7445              1067.7423
 Red. masses --      1.4679                 1.6679                 1.9226
 Frc consts  --      0.9730                 1.1120                 1.2914
 IR Inten    --     28.6316                32.3680                 8.3124

                     46                     47                     48
                      A                      A                      A
 Frequencies --   1085.1503              1092.3200              1115.3119
 Red. masses --      1.3756                 2.1930                 1.7782
 Frc consts  --      0.9544                 1.5416                 1.3032
 IR Inten    --     62.9959               516.4727                27.8803

                     49                     50                     51
                      A                      A                      A
 Frequencies --   1119.7687              1133.7588              1169.0191
 Red. masses --      1.6006                 1.2305                 1.3969
 Frc consts  --      1.1824                 0.9319                 1.1248
 IR Inten    --     33.3348                 1.8580                33.0427

                     52                     53                     54
                      A                      A                      A
 Frequencies --   1183.9160              1214.1883              1218.6923
 Red. masses --      1.1360                 1.1676                 1.4752
 Frc consts  --      0.9381                 1.0142                 1.2909
 IR Inten    --      0.0709                10.6274                69.7331

                     55                     56                     57
                      A                      A                      A
 Frequencies --   1222.6267              1253.4693              1277.9017
 Red. masses --      1.3828                 1.5796                 3.0387
 Frc consts  --      1.2178                 1.4623                 2.9237
 IR Inten    --    112.9919               107.6712                64.6618

                     58                     59                     60
                      A                      A                      A
 Frequencies --   1303.5605              1330.8012              1343.7873
 Red. masses --      3.4976                 4.7222                 1.5148
 Frc consts  --      3.5018                 4.9275                 1.6117
 IR Inten    --     33.1748                39.9106                33.4845

                     61                     62                     63
                      A                      A                      A
 Frequencies --   1353.4176              1367.1834              1410.8221
 Red. masses --      1.8679                 1.3989                 1.9426
 Frc consts  --      2.0159                 1.5406                 2.2781
 IR Inten    --     52.5866                30.0178               269.8343

                     64                     65                     66
                      A                      A                      A
 Frequencies --   1424.8354              1441.0769              1447.8399
 Red. masses --      1.4669                 1.2429                 2.0356
 Frc consts  --      1.7546                 1.5207                 2.5141
 IR Inten    --    302.7635               128.5915               124.8921

                     67                     68                     69
                      A                      A                      A
 Frequencies --   1462.3165              1470.9266              1480.6293
 Red. masses --      1.2460                 1.1654                 1.0757
 Frc consts  --      1.5698                 1.4856                 1.3894
 IR Inten    --     19.4797                93.5932                 4.0790

                     70                     71                     72
                      A                      A                      A
 Frequencies --   1490.4818              1492.7051              1497.0975
 Red. masses --      1.0438                 1.1973                 1.5669
 Frc consts  --      1.3662                 1.5719                 2.0691
 IR Inten    --     23.5724               110.5914                32.7149

                     73                     74                     75
                      A                      A                      A
 Frequencies --   1501.2054              1503.1475              1504.6547
 Red. masses --      1.0554                 1.0722                 1.1285
 Frc consts  --      1.4014                 1.4273                 1.5054
 IR Inten    --     12.6316                42.1057                25.8432

                     76                     77                     78
                      A                      A                      A
 Frequencies --   1508.7098              1530.5305              1551.0813
 Red. masses --      1.1704                 1.3898                 2.4435
 Frc consts  --      1.5696                 1.9181                 3.4636
 IR Inten    --     79.1784               321.9766                 0.8017

                     79                     80                     81
                      A                      A                      A
 Frequencies --   1569.5191              1654.3545              1659.8436
 Red. masses --      5.7061                 5.7298                 1.0919
 Frc consts  --      8.2818                 9.2395                 1.7724
 IR Inten    --    574.7296                 1.8886                48.7966

                     82                     83                     84
                      A                      A                      A
 Frequencies --   1679.3491              3001.2800              3012.9988
 Red. masses --      5.8208                 1.0522                 1.0457
 Frc consts  --      9.6719                 5.5842                 5.5934
 IR Inten    --      1.3606               147.6385               106.3972

                     85                     86                     87
                      A                      A                      A
 Frequencies --   3013.9386              3063.4242              3063.9026
 Red. masses --      1.0473                 1.0566                 1.0691
 Frc consts  --      5.6051                 5.8420                 5.9129
 IR Inten    --    170.6211                32.7453                69.9289

                     88                     89                     90
                      A                      A                      A
 Frequencies --   3066.5249              3085.8823              3124.9779
 Red. masses --      1.0978                 1.0872                 1.0886
 Frc consts  --      6.0825                 6.0997                 6.2635
 IR Inten    --     90.2334                48.9674                23.9295

                     91                     92                     93
                      A                      A                      A
 Frequencies --   3133.3859              3140.1017              3159.2630
 Red. masses --      1.0939                 1.1049                 1.1052
 Frc consts  --      6.3280                 6.4190                 6.4990
 IR Inten    --     39.5960                20.2424                17.9413

                     94                     95                     96
                      A                      A                      A
 Frequencies --   3160.9951              3174.9021              3189.5210
 Red. masses --      1.0988                 1.0953                 1.0874
 Frc consts  --      6.4689                 6.5052                 6.5176
 IR Inten    --     20.2624                13.2081                 7.2387

                     97                     98                     99
                      A                      A                      A
 Frequencies --   3196.7931              3205.8150              3214.0512
 Red. masses --      1.0872                 1.0912                 1.0944
 Frc consts  --      6.5462                 6.6072                 6.6612
 IR Inten    --      0.6420                16.4261                44.4684

                    100                    101                    102
                      A                      A                      A
 Frequencies --   3222.8263              3423.1720              3588.3555
 Red. masses --      1.0986                 1.0638                 1.0856
 Frc consts  --      6.7233                 7.3447                 8.2356
 IR Inten    --     13.5423               127.2769                53.6265

 - Thermochemistry -
 -------------------
 Temperature   298.150 Kelvin.  Pressure   1.00000 Atm.
 Atom     1 has atomic number  6 and mass  12.00000

 Molecular mass:   220.15756 amu.
 Principal axes and moments of inertia in atomic units:
                           1         2         3
     Eigenvalues --  1897.981206094.046276995.87001
           X            0.99986   0.01680  -0.00056
           Y           -0.01680   0.99986   0.00222
           Z            0.00059  -0.00221   1.00000
 This molecule is an asymmetric top.
 Rotational symmetry number  1.
 Warning -- assumption of classical behavior for rotation
           may cause significant error
 Rotational temperatures (Kelvin)      0.04563     0.01421     0.01238
 Rotational constants (GHZ):           0.95087     0.29615     0.25797
    1 imaginary frequencies ignored.
 Zero-point vibrational energy     824444.4 (Joules/Mol)
                                  197.04695 (Kcal/Mol)
 Warning -- explicit consideration of  25 degrees of freedom as
           vibrations may cause significant error
 Vibrational temperatures:     39.69    70.36    83.12   113.91   126.97
          (Kelvin)            154.95   163.88   195.62   221.70   236.84
                              262.76   305.08   319.17   336.66   375.84
                              399.08   466.03   500.84   529.11   571.97
                              611.07   685.82   785.26   831.63   877.31
                              915.44   952.57  1038.00  1056.60  1106.22
                             1134.73  1154.92  1245.15  1268.68  1383.31
                             1385.89  1452.99  1459.05  1477.55  1478.05
                             1485.30  1526.04  1530.49  1536.24  1561.29
                             1571.60  1604.69  1611.10  1631.23  1681.96
                             1703.39  1746.95  1753.43  1759.09  1803.46
                             1838.62  1875.53  1914.73  1933.41  1947.27
                             1967.07  2029.86  2050.02  2073.39  2083.12
                             2103.95  2116.34  2130.30  2144.47  2147.67
                             2153.99  2159.90  2162.69  2164.86  2170.70
                             2202.09  2231.66  2258.19  2380.25  2388.14
                             2416.21  4318.17  4335.03  4336.39  4407.58
                             4408.27  4412.05  4439.90  4496.15  4508.24
                             4517.91  4545.47  4547.97  4567.98  4589.01
                             4599.47  4612.45  4624.30  4636.93  4925.18
                             5162.84

 Zero-point correction=                           0.314014 (Hartree/Particle)
 Thermal correction to Energy=                    0.331367
 Thermal correction to Enthalpy=                  0.332312
 Thermal correction to Gibbs Free Energy=         0.268037
 Sum of electronic and zero-point Energies=           -691.834063
 Sum of electronic and thermal Energies=              -691.816710
 Sum of electronic and thermal Enthalpies=            -691.815766
 Sum of electronic and thermal Free Energies=         -691.880041

                     E (Thermal)             CV                S
                      KCal/Mol        Cal/Mol-Kelvin    Cal/Mol-Kelvin
 Total                  207.936             63.209            135.278
 Electronic               0.000              0.000              0.000
 Translational            0.889              2.981             42.070
 Rotational               0.889              2.981             32.759
 Vibrational            206.159             57.247             60.449
 Vibration     1          0.593              1.984              5.996
 Vibration     2          0.595              1.978              4.861
 Vibration     3          0.596              1.974              4.532
 Vibration     4          0.600              1.963              3.911
 Vibration     5          0.601              1.957              3.699
 Vibration     6          0.606              1.943              3.310
 Vibration     7          0.607              1.938              3.201
 Vibration     8          0.614              1.917              2.860
 Vibration     9          0.620              1.898              2.621
 Vibration    10          0.623              1.886              2.496
 Vibration    11          0.630              1.863              2.301
 Vibration    12          0.643              1.823              2.026
 Vibration    13          0.648              1.808              1.944
 Vibration    14          0.654              1.789              1.848
 Vibration    15          0.669              1.744              1.654
 Vibration    16          0.678              1.715              1.550
 Vibration    17          0.708              1.628              1.290
 Vibration    18          0.726              1.579              1.175
 Vibration    19          0.740              1.539              1.089
 Vibration    20          0.764              1.475              0.972
 Vibration    21          0.787              1.416              0.876
 Vibration    22          0.833              1.302              0.719
 Vibration    23          0.901              1.149              0.553
 Vibration    24          0.935              1.079              0.489
 Vibration    25          0.969              1.011              0.433

 Optimization completed on the basis of negligible forces.
    -- Stationary point found.
 Normal termination of Gaussian 16 at Sun Jan 31 12:58:06 2021.
