 Gaussian 16, Revision A.03,
 Gaussian 16:  ES64L-G16RevA.03 25-Dec-2016

 ----------------------------------------------------------------------
 # wB97XD def2tzvp, opt=(ts, noeigen, calcfc, maxcycles=70, maxstep=8),
  freq=noraman, scrf=(iefpcm, solvent=water)
 ----------------------------------------------------------------------

 ------------------------
 1_iteration/TS-666-1.out
 ------------------------
 Symbolic Z-matrix:
 Charge =  0 Multiplicity = 1

 SCF Done:  E(RwB97XD) =  -5474.33557539     A.U. after   15 cycles
 SCF Done:  E(RwB97XD) =  -5474.33557537     A.U. after    6 cycles
 Optimization completed.
    -- Stationary point found.
 Normal termination of Gaussian 16 at Fri Feb 19 09:35:01 2021.

 ---------------------------------------------------------------------
 #N Geom=AllCheck Guess=TCheck SCRF=Check GenChk RwB97XD/def2TZVP Freq
 ---------------------------------------------------------------------

 Structure from the checkpoint file:  "/beegfs/scratch/user/q/tla25/Gau-100446.chk"
 ------------------------
 1_iteration/TS-666-1.out
 ------------------------
 Charge =  0 Multiplicity = 1

                         Standard orientation:
 ---------------------------------------------------------------------
 Center     Atomic      Atomic             Coordinates (Angstroms)
 Number     Number       Type             X           Y           Z
 ---------------------------------------------------------------------
      1          6           0        0.772511    0.308230   -0.263783
      2          6           0        1.671368    1.402207   -0.547986
      3          8           0        1.229165    2.502396   -0.887044
      4          6           0       -0.577011    0.516793   -0.435383
      5          6           0       -2.675001    1.993322    1.072088
      6          1           0       -2.741429    2.625125    0.187009
      7          1           0       -3.382606    1.172473    0.971681
      8          1           0       -2.940617    2.585288    1.949494
      9          7           0       -1.323582    1.452061    1.169220
     10          1           0       -0.631319    2.184667    1.272148
     11          1           0       -1.221720    0.807392    1.943976
     12         35           0       -1.809894   -0.917695   -0.604660
     13          1           0       -0.848344    1.349325   -1.068162
     14         35           0        1.423875   -1.277374    0.560891
     15          6           0        3.160689    1.194421   -0.430739
     16          1           0        3.670574    2.071987   -0.821709
     17          1           0        3.439595    1.053809    0.615759
     18          1           0        3.482986    0.303910   -0.971643
 ---------------------------------------------------------------------

 SCF Done:  E(RwB97XD) =  -5474.33557537     A.U. after    1 cycles

 The electronic state is 1-A.
 Alpha  occ. eigenvalues -- -483.14138-483.12826 -62.68993 -62.67664 -56.48111
 Alpha  occ. eigenvalues --  -56.47757 -56.47735 -56.46773 -56.46428 -56.46423
 Alpha  occ. eigenvalues --  -19.22006 -14.47787 -10.38886 -10.37062 -10.31706
 Alpha  occ. eigenvalues --  -10.31605 -10.27743  -8.83116  -8.81783  -6.65286
 Alpha  occ. eigenvalues --   -6.64150  -6.64076  -6.63915  -6.62807  -6.62795
 Alpha  occ. eigenvalues --   -2.75678  -2.75355  -2.75297  -2.74378  -2.74377
 Alpha  occ. eigenvalues --   -2.74310  -2.73981  -2.73972  -2.73076  -2.73076
 Alpha  occ. eigenvalues --   -1.12924  -1.03272  -0.95257  -0.89947  -0.83732
 Alpha  occ. eigenvalues --   -0.82509  -0.78541  -0.70573  -0.63221  -0.61376
 Alpha  occ. eigenvalues --   -0.56980  -0.56119  -0.54512  -0.53659  -0.52212
 Alpha  occ. eigenvalues --   -0.49612  -0.47942  -0.47551  -0.46595  -0.45483
 Alpha  occ. eigenvalues --   -0.43488  -0.40142  -0.39299  -0.37503  -0.36498
 Alpha  occ. eigenvalues --   -0.33401  -0.28366
 Alpha virt. eigenvalues --    0.02483   0.05112   0.09421   0.10992   0.13288
 Alpha virt. eigenvalues --    0.13679   0.14694   0.16146   0.17108   0.18894
 Alpha virt. eigenvalues --    0.19314   0.20106   0.20240   0.21292   0.22848

 Mulliken charges:
               1
     1  C   -0.189364
     2  C    0.265835
     3  O   -0.496978
     4  C   -0.023797
     5  C   -0.267605
     6  H    0.150048
     7  H    0.148957
     8  H    0.150670
     9  N   -0.377633
    10  H    0.282533
    11  H    0.283340
    12  Br  -0.045362
    13  H    0.190240
    14  Br  -0.120986
    15  C   -0.373684
    16  H    0.130967
    17  H    0.147075
    18  H    0.145744
 Sum of Mulliken charges =  -0.00000

 Dipole moment (field-independent basis, Debye):
    X=             -3.8636    Y=              1.3399    Z=              4.1232  Tot=              5.8072
 Quadrupole moment (field-independent basis, Debye-Ang):
   XX=            -71.4908   YY=            -85.5079   ZZ=            -76.2991
   XY=             -8.1609   XZ=             -3.2471   YZ=              8.4759

  Exact polarizability: 199.338   0.567 166.423 -10.776  -3.534 126.278
 Approx polarizability: 145.412   0.193 140.524  -4.708  -4.983 111.013

 ******    1 imaginary frequencies (negative Signs) ******

                      1                      2                      3
                      A                      A                      A
 Frequencies --   -358.1668                29.1989                55.5797
 Red. masses --      6.6312                 3.3793                 2.4797
 Frc consts  --      0.5012                 0.0017                 0.0045
 IR Inten    --    837.4973                 0.7178                 5.7171

                      4                      5                      6
                      A                      A                      A
 Frequencies --     75.9869                99.5843               116.5598
 Red. masses --      3.5249                 5.0921                13.3596
 Frc consts  --      0.0120                 0.0298                 0.1069
 IR Inten    --      8.1815                12.3345                 0.7334

                      7                      8                      9
                      A                      A                      A
 Frequencies --    145.5349               157.9663               168.4150
 Red. masses --      1.0586                 1.9394                 2.2333
 Frc consts  --      0.0132                 0.0285                 0.0373
 IR Inten    --      0.1439                 3.0510                 3.2339

                     10                     11                     12
                      A                      A                      A
 Frequencies --    181.9505               265.0530               296.8746
 Red. masses --      4.5356                 2.8547                 6.3033
 Frc consts  --      0.0885                 0.1182                 0.3273
 IR Inten    --     19.3322                 0.6200                 4.2492

                     13                     14                     15
                      A                      A                      A
 Frequencies --    393.1259               410.5733               540.6011
 Red. masses --      6.6513                 5.5381                 3.5615
 Frc consts  --      0.6056                 0.5500                 0.6132
 IR Inten    --      7.6333               138.8918                28.5127

                     16                     17                     18
                      A                      A                      A
 Frequencies --    575.5285               617.2455               654.1408
 Red. masses --      2.1131                 2.4845                 2.6633
 Frc consts  --      0.4124                 0.5577                 0.6715
 IR Inten    --      9.3898                47.4204                56.7087

                     19                     20                     21
                      A                      A                      A
 Frequencies --    765.6235               963.5334               997.1276
 Red. masses --      3.5794                 3.3037                 1.2250
 Frc consts  --      1.2362                 1.8071                 0.7176
 IR Inten    --     86.8311                28.3364                84.4568

                     22                     23                     24
                      A                      A                      A
 Frequencies --   1002.8150              1022.2664              1044.2406
 Red. masses --      1.3664                 1.1665                 1.8003
 Frc consts  --      0.8096                 0.7182                 1.1566
 IR Inten    --     78.6622                59.5910                 3.6137

                     25                     26                     27
                      A                      A                      A
 Frequencies --   1073.2050              1112.3087              1202.7250
 Red. masses --      3.7697                 1.1932                 1.3515
 Frc consts  --      2.5581                 0.8698                 1.1518
 IR Inten    --    144.4967                35.6259                23.5213

                     28                     29                     30
                      A                      A                      A
 Frequencies --   1208.7857              1302.7716              1345.4312
 Red. masses --      1.3382                 3.9376                 1.3275
 Frc consts  --      1.1521                 3.9375                 1.4158
 IR Inten    --     22.3096               212.8400                14.5628

                     31                     32                     33
                      A                      A                      A
 Frequencies --   1387.4572              1409.2269              1455.7457
 Red. masses --      1.7157                 3.2544                 1.0718
 Frc consts  --      1.9460                 3.8078                 1.3382
 IR Inten    --    123.1379              1254.2578                38.3216

                     34                     35                     36
                      A                      A                      A
 Frequencies --   1462.9075              1466.9426              1490.0364
 Red. masses --      1.2035                 1.0645                 1.0399
 Frc consts  --      1.5175                 1.3496                 1.3603
 IR Inten    --     39.9283                34.2233                15.5236

                     37                     38                     39
                      A                      A                      A
 Frequencies --   1504.7401              1642.7945              1666.1365
 Red. masses --      1.0310                 1.1185                 7.8084
 Frc consts  --      1.3754                 1.7784                12.7713
 IR Inten    --     13.0082                41.9693               370.8920

                     40                     41                     42
                      A                      A                      A
 Frequencies --   3062.2409              3063.1314              3133.2502
 Red. masses --      1.0348                 1.0370                 1.0994
 Frc consts  --      5.7174                 5.7325                 6.3588
 IR Inten    --     57.6408                 2.7433                 8.8884

                     43                     44                     45
                      A                      A                      A
 Frequencies --   3137.4356              3163.2220              3170.2948
 Red. masses --      1.1035                 1.1051                 1.1039
 Frc consts  --      6.3997                 6.5149                 6.5373
 IR Inten    --     18.3790                14.3785                24.6362

                     46                     47                     48
                      A                      A                      A
 Frequencies --   3228.2538              3527.7128              3613.3581
 Red. masses --      1.0903                 1.0504                 1.0969
 Frc consts  --      6.6949                 7.7015                 8.4378
 IR Inten    --      4.7101                24.3143                47.5494

 - Thermochemistry -
 -------------------
 Temperature   298.150 Kelvin.  Pressure   1.00000 Atm.
 Atom     1 has atomic number  6 and mass  12.00000

 Molecular mass:   256.90509 amu.
 Principal axes and moments of inertia in atomic units:
                           1         2         3
     Eigenvalues --  2002.857733239.329914388.58373
           X            0.99856  -0.02049  -0.04963
           Y            0.02214   0.99921   0.03290
           Z            0.04892  -0.03395   0.99823
 This molecule is an asymmetric top.
 Rotational symmetry number  1.
 Warning -- assumption of classical behavior for rotation
           may cause significant error
 Rotational temperatures (Kelvin)      0.04325     0.02674     0.01974
 Rotational constants (GHZ):           0.90108     0.55713     0.41124
    1 imaginary frequencies ignored.
 Zero-point vibrational energy     361329.9 (Joules/Mol)
                                   86.35992 (Kcal/Mol)
 Warning -- explicit consideration of  16 degrees of freedom as
           vibrations may cause significant error
 Vibrational temperatures:     42.01    79.97   109.33   143.28   167.70
          (Kelvin)            209.39   227.28   242.31   261.79   381.35
                              427.14   565.62   590.72   777.80   828.06
                              888.08   941.16  1101.56  1386.31  1434.64
                             1442.83  1470.81  1502.43  1544.10  1600.36
                             1730.45  1739.17  1874.40  1935.78  1996.24
                             2027.56  2094.49  2104.80  2110.60  2143.83
                             2164.99  2363.61  2397.20  4405.88  4407.16
                             4508.05  4514.07  4551.17  4561.35  4644.74
                             5075.59  5198.82

 Zero-point correction=                           0.137623 (Hartree/Particle)
 Thermal correction to Energy=                    0.149441
 Thermal correction to Enthalpy=                  0.150385
 Thermal correction to Gibbs Free Energy=         0.096549
 Sum of electronic and zero-point Energies=          -5474.197952
 Sum of electronic and thermal Energies=             -5474.186135
 Sum of electronic and thermal Enthalpies=           -5474.185190
 Sum of electronic and thermal Free Energies=        -5474.239027

                     E (Thermal)             CV                S
                      KCal/Mol        Cal/Mol-Kelvin    Cal/Mol-Kelvin
 Total                   93.775             38.351            113.308
 Electronic               0.000              0.000              0.000
 Translational            0.889              2.981             42.531
 Rotational               0.889              2.981             31.721
 Vibrational             91.998             32.389             39.056
 Vibration     1          0.593              1.984              5.883
 Vibration     2          0.596              1.975              4.608
 Vibration     3          0.599              1.965              3.992
 Vibration     4          0.604              1.949              3.462
 Vibration     5          0.608              1.936              3.157
 Vibration     6          0.617              1.908              2.730
 Vibration     7          0.621              1.894              2.574
 Vibration     8          0.625              1.881              2.453
 Vibration     9          0.630              1.864              2.308
 Vibration    10          0.671              1.737              1.628
 Vibration    11          0.691              1.680              1.434
 Vibration    12          0.760              1.485              0.988
 Vibration    13          0.775              1.447              0.925
 Vibration    14          0.896              1.160              0.564
 Vibration    15          0.932              1.084              0.494
 Vibration    16          0.977              0.995              0.421

 Optimization completed.
    -- Stationary point found.
 Normal termination of Gaussian 16 at Fri Feb 19 09:45:50 2021.
