 Gaussian 16, Revision A.03,
 Gaussian 16:  ES64L-G16RevA.03 25-Dec-2016

 ----------------------------------------------------------------------
 # wB97XD def2tzvp, opt=(ts, noeigen, calcfc, maxcycles=70, maxstep=1),
  freq=noraman, scrf=(iefpcm, solvent=water)
 ----------------------------------------------------------------------

 ------------------------
 0_iteration/TS-676-0.out
 ------------------------
 Symbolic Z-matrix:
 Charge =  0 Multiplicity = 1

 SCF Done:  E(RwB97XD) =  -3435.56724503     A.U. after   15 cycles
 SCF Done:  E(RwB97XD) =  -3435.56717945     A.U. after   10 cycles
 SCF Done:  E(RwB97XD) =  -3435.56711865     A.U. after   10 cycles
 SCF Done:  E(RwB97XD) =  -3435.56706269     A.U. after   10 cycles
 SCF Done:  E(RwB97XD) =  -3435.56701152     A.U. after   10 cycles
 SCF Done:  E(RwB97XD) =  -3435.56696507     A.U. after   10 cycles
 SCF Done:  E(RwB97XD) =  -3435.56692329     A.U. after   10 cycles
 SCF Done:  E(RwB97XD) =  -3435.56688616     A.U. after   10 cycles
 SCF Done:  E(RwB97XD) =  -3435.56685366     A.U. after   10 cycles
 SCF Done:  E(RwB97XD) =  -3435.56682579     A.U. after   10 cycles
 SCF Done:  E(RwB97XD) =  -3435.56803463     A.U. after   10 cycles
 SCF Done:  E(RwB97XD) =  -3435.56806547     A.U. after    9 cycles
 SCF Done:  E(RwB97XD) =  -3435.56808955     A.U. after    9 cycles
 SCF Done:  E(RwB97XD) =  -3435.56810767     A.U. after    9 cycles
 SCF Done:  E(RwB97XD) =  -3435.56812129     A.U. after    9 cycles
 SCF Done:  E(RwB97XD) =  -3435.56812937     A.U. after    9 cycles
 SCF Done:  E(RwB97XD) =  -3435.56813253     A.U. after    9 cycles
 SCF Done:  E(RwB97XD) =  -3435.56813282     A.U. after    8 cycles
 SCF Done:  E(RwB97XD) =  -3435.56813288     A.U. after    7 cycles
 Optimization completed on the basis of negligible forces.
    -- Stationary point found.
 Normal termination of Gaussian 16 at Thu Feb 18 17:39:40 2021.

 ---------------------------------------------------------------------
 #N Geom=AllCheck Guess=TCheck SCRF=Check GenChk RwB97XD/def2TZVP Freq
 ---------------------------------------------------------------------

 Structure from the checkpoint file:  "/beegfs/scratch/user/q/tla25/Gau-27442.chk"
 ------------------------
 0_iteration/TS-676-0.out
 ------------------------
 Charge =  0 Multiplicity = 1

                         Standard orientation:
 ---------------------------------------------------------------------
 Center     Atomic      Atomic             Coordinates (Angstroms)
 Number     Number       Type             X           Y           Z
 ---------------------------------------------------------------------
      1          6           0        0.677260   -0.290334    0.004255
      2          6           0        1.903587    0.382283   -0.341160
      3          8           0        1.951742    1.450006   -0.934998
      4          6           0       -0.510533    0.314082   -0.340521
      5          6           0       -2.143937    2.517273    0.675275
      6          1           0       -2.319373    3.245624    1.467801
      7          1           0       -1.857632    3.044044   -0.234051
      8          1           0       -3.062950    1.964822    0.490313
      9          7           0       -1.083935    1.577452    1.033327
     10          1           0       -0.210757    2.055254    1.224796
     11          1           0       -1.323681    1.025593    1.849171
     12         35           0       -2.107530   -0.716498   -0.527994
     13          1           0       -0.444235    1.081414   -1.098274
     14         17           0        0.711293   -1.703216    1.026651
     15          8           0        3.011506   -0.271853    0.040014
     16          6           0        4.250821    0.352969   -0.279538
     17          1           0        5.021768   -0.307320    0.108412
     18          1           0        4.362464    0.465333   -1.357794
     19          1           0        4.324342    1.332339    0.193076
 ---------------------------------------------------------------------

 SCF Done:  E(RwB97XD) =  -3435.56813288     A.U. after    1 cycles

 The electronic state is 1-A.
 Alpha  occ. eigenvalues -- -483.13959-101.69302 -62.68816 -56.47935 -56.47579
 Alpha  occ. eigenvalues --  -56.47559 -19.29124 -19.22205 -14.48577 -10.41051
 Alpha  occ. eigenvalues --  -10.39025 -10.33022 -10.31970 -10.31966  -9.57819
 Alpha  occ. eigenvalues --   -8.82939  -7.32467  -7.31597  -7.31591  -6.65109
 Alpha  occ. eigenvalues --   -6.63968  -6.63904  -2.75498  -2.75174  -2.75124
 Alpha  occ. eigenvalues --   -2.74201  -2.74200  -1.20693  -1.10986  -1.04012
 Alpha  occ. eigenvalues --   -0.97677  -0.91567  -0.84881  -0.81862  -0.78875
 Alpha  occ. eigenvalues --   -0.70977  -0.64309  -0.63489  -0.61253  -0.57619
 Alpha  occ. eigenvalues --   -0.57141  -0.56291  -0.54320  -0.52154  -0.51380
 Alpha  occ. eigenvalues --   -0.49294  -0.48353  -0.47296  -0.45829  -0.44133
 Alpha  occ. eigenvalues --   -0.42258  -0.41048  -0.38830  -0.37874  -0.37319
 Alpha  occ. eigenvalues --   -0.35940  -0.28126
 Alpha virt. eigenvalues --    0.03791   0.06141   0.10039   0.12675   0.13634
 Alpha virt. eigenvalues --    0.14607   0.15748   0.16192   0.16874   0.17894
 Alpha virt. eigenvalues --    0.19229   0.19722   0.20208   0.20917   0.22266

 Mulliken charges:
               1
     1  C   -0.167531
     2  C    0.416112
     3  O   -0.501111
     4  C   -0.053029
     5  C   -0.271225
     6  H    0.154635
     7  H    0.152419
     8  H    0.151189
     9  N   -0.347847
    10  H    0.284710
    11  H    0.286601
    12  Br  -0.061128
    13  H    0.189364
    14  Cl  -0.148449
    15  O   -0.297722
    16  C   -0.191952
    17  H    0.142084
    18  H    0.131975
    19  H    0.130905
 Sum of Mulliken charges =  -0.00000

 Dipole moment (field-independent basis, Debye):
    X=             -3.1969    Y=              4.7966    Z=              3.1756  Tot=              6.5812
 Quadrupole moment (field-independent basis, Debye-Ang):
   XX=            -68.7569   YY=            -76.9420   ZZ=            -76.8563
   XY=             -6.9869   XZ=             -2.2492   YZ=              8.3952

  Exact polarizability: 195.853  -8.837 152.696  -5.024  -2.547 119.454
 Approx polarizability: 142.849  -3.118 129.857  -2.332  -5.454 106.935

 ******    1 imaginary frequencies (negative Signs) ******

                      1                      2                      3
                      A                      A                      A
 Frequencies --   -354.3484                28.9802                52.3021
 Red. masses --      6.7153                 2.7110                 3.2323
 Frc consts  --      0.4968                 0.0013                 0.0052
 IR Inten    --    919.3812                 0.1962                 2.9232

                      4                      5                      6
                      A                      A                      A
 Frequencies --     64.7524               105.7252               124.8987
 Red. masses --      4.2704                 5.3680                 3.2537
 Frc consts  --      0.0105                 0.0354                 0.0299
 IR Inten    --      7.9126                 8.3426                 2.6645

                      7                      8                      9
                      A                      A                      A
 Frequencies --    138.4235               163.7556               172.7087
 Red. masses --      3.1747                 1.6990                 1.6419
 Frc consts  --      0.0358                 0.0268                 0.0289
 IR Inten    --      1.4950                 1.9943                 1.9460

                     10                     11                     12
                      A                      A                      A
 Frequencies --    175.7945               200.2494               258.2195
 Red. masses --      2.6382                 4.2487                 4.1369
 Frc consts  --      0.0480                 0.1004                 0.1625
 IR Inten    --      6.4631                19.3550                17.8112

                     13                     14                     15
                      A                      A                      A
 Frequencies --    293.3187               333.0818               445.8886
 Red. masses --      4.5359                 4.4735                 8.1366
 Frc consts  --      0.2299                 0.2924                 0.9531
 IR Inten    --      5.2501                31.5966               103.6988

                     16                     17                     18
                      A                      A                      A
 Frequencies --    468.2789               598.1386               650.6232
 Red. masses --     13.0447                 1.8177                 4.7764
 Frc consts  --      1.6854                 0.3832                 1.1913
 IR Inten    --     52.3445                 3.9919                22.0011

                     19                     20                     21
                      A                      A                      A
 Frequencies --    729.0531               784.2919               803.6300
 Red. masses --      3.1086                10.7125                 4.2827
 Frc consts  --      0.9735                 3.8824                 1.6296
 IR Inten    --    106.7904                60.0023               104.7960

                     22                     23                     24
                      A                      A                      A
 Frequencies --    985.5353              1006.1614              1033.5538
 Red. masses --      4.0008                 1.1057                 1.1122
 Frc consts  --      2.2895                 0.6595                 0.7000
 IR Inten    --      8.5235                12.4962                98.8789

                     25                     26                     27
                      A                      A                      A
 Frequencies --   1070.1983              1110.4090              1134.2492
 Red. masses --      4.8712                 5.9622                 1.1259
 Frc consts  --      3.2871                 4.3313                 0.8534
 IR Inten    --    171.2681               240.3181                53.8246

                     28                     29                     30
                      A                      A                      A
 Frequencies --   1182.6405              1218.3167              1220.0725
 Red. masses --      1.2814                 1.4160                 1.4511
 Frc consts  --      1.0560                 1.2383                 1.2726
 IR Inten    --      1.6270                48.3949                32.3705

                     31                     32                     33
                      A                      A                      A
 Frequencies --   1232.0560              1323.4058              1344.7534
 Red. masses --      1.4047                 6.0377                 1.3310
 Frc consts  --      1.2563                 6.2303                 1.4181
 IR Inten    --    101.2890              1023.8038                25.8088

                     34                     35                     36
                      A                      A                      A
 Frequencies --   1437.9644              1465.7969              1481.3050
 Red. masses --      4.0562                 1.3232                 1.2186
 Frc consts  --      4.9416                 1.6751                 1.5754
 IR Inten    --    802.7975               116.6184               113.5078

                     37                     38                     39
                      A                      A                      A
 Frequencies --   1483.0953              1491.0072              1495.9099
 Red. masses --      1.0441                 1.0398                 1.0759
 Frc consts  --      1.3532                 1.3619                 1.4185
 IR Inten    --     13.2833                16.3280                16.5043

                     40                     41                     42
                      A                      A                      A
 Frequencies --   1505.2051              1641.4691              1694.0532
 Red. masses --      1.0342                 1.0914                10.6444
 Frc consts  --      1.3805                 1.7326                17.9980
 IR Inten    --      9.2672                45.5320               514.4734

                     43                     44                     45
                      A                      A                      A
 Frequencies --   3066.3220              3067.7594              3143.8837
 Red. masses --      1.0308                 1.0341                 1.1070
 Frc consts  --      5.7101                 5.7337                 6.4466
 IR Inten    --     58.6297                42.8671                33.1994

                     46                     47                     48
                      A                      A                      A
 Frequencies --   3144.9218              3168.1477              3177.8896
 Red. masses --      1.1044                 1.1053                 1.1057
 Frc consts  --      6.4357                 6.5364                 6.5790
 IR Inten    --     15.8658                11.8275                22.8006

                     49                     50                     51
                      A                      A                      A
 Frequencies --   3229.7704              3521.8688              3606.0741
 Red. masses --      1.0905                 1.0507                 1.0968
 Frc consts  --      6.7022                 7.6783                 8.4033
 IR Inten    --      3.6236                28.5208                49.9643

 - Thermochemistry -
 -------------------
 Temperature   298.150 Kelvin.  Pressure   1.00000 Atm.
 Atom     1 has atomic number  6 and mass  12.00000

 Molecular mass:   228.95052 amu.
 Principal axes and moments of inertia in atomic units:
                           1         2         3
     Eigenvalues --  1533.470103943.978454715.78797
           X            0.99903  -0.03632  -0.02471
           Y            0.03714   0.99874   0.03368
           Z            0.02346  -0.03456   0.99913
 This molecule is an asymmetric top.
 Rotational symmetry number  1.
 Warning -- assumption of classical behavior for rotation
           may cause significant error
 Rotational temperatures (Kelvin)      0.05648     0.02196     0.01837
 Rotational constants (GHZ):           1.17690     0.45759     0.38270
    1 imaginary frequencies ignored.
 Zero-point vibrational energy     378474.0 (Joules/Mol)
                                   90.45746 (Kcal/Mol)
 Warning -- explicit consideration of  16 degrees of freedom as
           vibrations may cause significant error
 Vibrational temperatures:     41.70    75.25    93.16   152.12   179.70
          (Kelvin)            199.16   235.61   248.49   252.93   288.11
                              371.52   422.02   479.23   641.53   673.75
                              860.59   936.10  1048.94  1128.42  1156.24
                             1417.97  1447.64  1487.05  1539.78  1597.63
                             1631.93  1701.56  1752.89  1755.41  1772.65
                             1904.09  1934.80  2068.91  2108.95  2131.27
                             2133.84  2145.23  2152.28  2165.65  2361.71
                             2437.36  4411.75  4413.82  4523.35  4524.84
                             4558.26  4572.27  4646.92  5067.18  5188.34

 Zero-point correction=                           0.144153 (Hartree/Particle)
 Thermal correction to Energy=                    0.156623
 Thermal correction to Enthalpy=                  0.157568
 Thermal correction to Gibbs Free Energy=         0.102613
 Sum of electronic and zero-point Energies=          -3435.423980
 Sum of electronic and thermal Energies=             -3435.411509
 Sum of electronic and thermal Enthalpies=           -3435.410565
 Sum of electronic and thermal Free Energies=        -3435.465520

                     E (Thermal)             CV                S
                      KCal/Mol        Cal/Mol-Kelvin    Cal/Mol-Kelvin
 Total                   98.283             40.583            115.661
 Electronic               0.000              0.000              0.000
 Translational            0.889              2.981             42.187
 Rotational               0.889              2.981             31.723
 Vibrational             96.505             34.622             41.751
 Vibration     1          0.593              1.984              5.898
 Vibration     2          0.596              1.977              4.728
 Vibration     3          0.597              1.971              4.307
 Vibration     4          0.605              1.945              3.346
 Vibration     5          0.610              1.928              3.023
 Vibration     6          0.614              1.915              2.826
 Vibration     7          0.623              1.887              2.506
 Vibration     8          0.626              1.876              2.406
 Vibration     9          0.628              1.872              2.373
 Vibration    10          0.638              1.840              2.131
 Vibration    11          0.667              1.749              1.674
 Vibration    12          0.688              1.686              1.455
 Vibration    13          0.715              1.609              1.245
 Vibration    14          0.805              1.370              0.808
 Vibration    15          0.825              1.320              0.742
 Vibration    16          0.956              1.036              0.453

 Optimization completed on the basis of negligible forces.
    -- Stationary point found.
 Normal termination of Gaussian 16 at Thu Feb 18 17:51:37 2021.
