 Gaussian 16, Revision A.03,
 Gaussian 16:  ES64L-G16RevA.03 25-Dec-2016

 ----------------------------------------------------------------------
 # wB97XD def2tzvp, opt=(ts, noeigen, calcfc, maxcycles=70, maxstep=1),
  freq=noraman, scrf=(iefpcm, solvent=water)
 ----------------------------------------------------------------------

 ------------------------
 0_iteration/TS-697-0.out
 ------------------------
 Symbolic Z-matrix:
 Charge =  0 Multiplicity = 1

 SCF Done:  E(RwB97XD) =  -2940.03621606     A.U. after   15 cycles
 SCF Done:  E(RwB97XD) =  -2940.03613240     A.U. after   10 cycles
 SCF Done:  E(RwB97XD) =  -2940.03605267     A.U. after   10 cycles
 SCF Done:  E(RwB97XD) =  -2940.03597684     A.U. after   10 cycles
 SCF Done:  E(RwB97XD) =  -2940.03590530     A.U. after   10 cycles
 SCF Done:  E(RwB97XD) =  -2940.03583822     A.U. after   10 cycles
 SCF Done:  E(RwB97XD) =  -2940.03577579     A.U. after   10 cycles
 SCF Done:  E(RwB97XD) =  -2940.03571821     A.U. after   10 cycles
 SCF Done:  E(RwB97XD) =  -2940.03566557     A.U. after   10 cycles
 SCF Done:  E(RwB97XD) =  -2940.03561803     A.U. after   10 cycles
 SCF Done:  E(RwB97XD) =  -2940.03578524     A.U. after   10 cycles
 SCF Done:  E(RwB97XD) =  -2940.03580505     A.U. after   10 cycles
 SCF Done:  E(RwB97XD) =  -2940.03582099     A.U. after   10 cycles
 SCF Done:  E(RwB97XD) =  -2940.03583471     A.U. after   10 cycles
 SCF Done:  E(RwB97XD) =  -2940.03584479     A.U. after   10 cycles
 SCF Done:  E(RwB97XD) =  -2940.03584924     A.U. after   10 cycles
 SCF Done:  E(RwB97XD) =  -2940.03585014     A.U. after   10 cycles
 SCF Done:  E(RwB97XD) =  -2940.03585003     A.U. after    9 cycles
 SCF Done:  E(RwB97XD) =  -2940.03585000     A.U. after    7 cycles
 Optimization completed.
    -- Stationary point found.
 Normal termination of Gaussian 16 at Thu Feb 18 22:25:11 2021.

 ---------------------------------------------------------------------
 #N Geom=AllCheck Guess=TCheck SCRF=Check GenChk RwB97XD/def2TZVP Freq
 ---------------------------------------------------------------------

 Structure from the checkpoint file:  "/beegfs/scratch/user/q/tla25/Gau-34021.chk"
 ------------------------
 0_iteration/TS-697-0.out
 ------------------------
 Charge =  0 Multiplicity = 1

                         Standard orientation:
 ---------------------------------------------------------------------
 Center     Atomic      Atomic             Coordinates (Angstroms)
 Number     Number       Type             X           Y           Z
 ---------------------------------------------------------------------
      1          6           0       -1.038996   -0.572127   -0.088138
      2          6           0       -2.268632   -0.589257    0.620443
      3          8           0       -3.292848   -1.193897    0.281123
      4          6           0        0.028647    0.165705    0.417714
      5          6           0       -1.024730    2.532323   -0.710186
      6          1           0       -1.062407    3.204436   -1.566578
      7          1           0       -1.852305    1.822460   -0.777580
      8          1           0       -1.126166    3.112038    0.204289
      9          7           0        0.219325    1.776356   -0.674741
     10          1           0        0.464594    1.422833   -1.591727
     11          1           0        1.000863    2.327096   -0.338443
     12         35           0        1.816738   -0.550707    0.001195
     13          6           0        0.043696    0.801162    1.782146
     14          1           0        0.931556    1.415282    1.914392
     15          1           0       -0.832668    1.429407    1.931839
     16          1           0        0.050357    0.025969    2.548218
     17          6           0       -0.948863   -1.309464   -1.395086
     18          1           0       -0.531364   -0.690199   -2.194254
     19          1           0       -0.326059   -2.205506   -1.326913
     20          1           0       -1.947767   -1.618342   -1.699467
     21          1           0       -2.293697   -0.024104    1.567257
 ---------------------------------------------------------------------

 SCF Done:  E(RwB97XD) =  -2940.03585000     A.U. after    1 cycles

 The electronic state is 1-A.
 Alpha  occ. eigenvalues -- -483.12784 -62.67648 -56.46746 -56.46419 -56.46401
 Alpha  occ. eigenvalues --  -19.20410 -14.48892 -10.39927 -10.34123 -10.31837
 Alpha  occ. eigenvalues --  -10.29415 -10.26941 -10.26560  -8.81760  -6.63859
 Alpha  occ. eigenvalues --   -6.62823  -6.62767  -2.74251  -2.73967  -2.73923
 Alpha  occ. eigenvalues --   -2.73083  -2.73083  -1.10530  -1.04419  -0.94535
 Alpha  occ. eigenvalues --   -0.86271  -0.83890  -0.79128  -0.76185  -0.69918
 Alpha  occ. eigenvalues --   -0.63549  -0.60204  -0.58230  -0.57154  -0.55458
 Alpha  occ. eigenvalues --   -0.53422  -0.50289  -0.49768  -0.49332  -0.48191
 Alpha  occ. eigenvalues --   -0.46657  -0.44891  -0.44623  -0.44258  -0.42926
 Alpha  occ. eigenvalues --   -0.37330  -0.37051  -0.31963  -0.27799
 Alpha virt. eigenvalues --    0.03749   0.05373   0.09732   0.13090   0.13941
 Alpha virt. eigenvalues --    0.14255   0.15522   0.16593   0.18181   0.19026
 Alpha virt. eigenvalues --    0.19323   0.20081   0.20139   0.21128   0.22028

 Mulliken charges:
               1
     1  C   -0.145119
     2  C    0.109460
     3  O   -0.521987
     4  C    0.137786
     5  C   -0.306414
     6  H    0.161940
     7  H    0.155906
     8  H    0.163815
     9  N   -0.331759
    10  H    0.284947
    11  H    0.293015
    12  Br  -0.127955
    13  C   -0.408007
    14  H    0.160199
    15  H    0.155813
    16  H    0.170856
    17  C   -0.401437
    18  H    0.115039
    19  H    0.129911
    20  H    0.129265
    21  H    0.074727
 Sum of Mulliken charges =  -0.00000

 Dipole moment (field-independent basis, Debye):
    X=              5.8764    Y=              8.6944    Z=             -0.9072  Tot=             10.5332
 Quadrupole moment (field-independent basis, Debye-Ang):
   XX=            -94.2999   YY=            -61.2854   ZZ=            -62.6202
   XY=             -9.1363   XZ=              0.3508   YZ=             -1.5384

  Exact polarizability: 192.599  17.106 150.341  -7.568  -0.039 127.874
 Approx polarizability: 151.211  12.141 121.826  -5.231   0.169 107.326

 ******    1 imaginary frequencies (negative Signs) ******

                      1                      2                      3
                      A                      A                      A
 Frequencies --   -370.8276                66.0702                77.9857
 Red. masses --      5.5575                 2.0444                 1.8621
 Frc consts  --      0.4503                 0.0053                 0.0067
 IR Inten    --    763.7970                 0.9271                 3.8836

                      4                      5                      6
                      A                      A                      A
 Frequencies --     85.8755               141.0194               170.7577
 Red. masses --      1.9107                 1.9227                 4.1710
 Frc consts  --      0.0083                 0.0225                 0.0717
 IR Inten    --      2.9185                 5.2634                11.3772

                      7                      8                      9
                      A                      A                      A
 Frequencies --    179.4939               212.6963               256.6632
 Red. masses --      1.2563                 3.3092                 1.8398
 Frc consts  --      0.0238                 0.0882                 0.0714
 IR Inten    --      2.7211                 5.3004                 0.7712

                     10                     11                     12
                      A                      A                      A
 Frequencies --    276.6877               286.3488               297.7310
 Red. masses --      5.2296                 2.9472                 1.5511
 Frc consts  --      0.2359                 0.1424                 0.0810
 IR Inten    --     29.5280                14.4535                 3.8114

                     13                     14                     15
                      A                      A                      A
 Frequencies --    320.3057               358.0227               379.9847
 Red. masses --      2.8212                 3.0824                 2.6652
 Frc consts  --      0.1705                 0.2328                 0.2267
 IR Inten    --      7.4726                 6.6744                 8.8336

                     16                     17                     18
                      A                      A                      A
 Frequencies --    496.6899               556.2840               649.6714
 Red. masses --      2.7881                 3.9944                 1.7287
 Frc consts  --      0.4053                 0.7283                 0.4299
 IR Inten    --     51.8551                55.9628                55.5724

                     19                     20                     21
                      A                      A                      A
 Frequencies --    700.0258               836.3375               980.2758
 Red. masses --      2.5642                 3.0716                 1.6573
 Frc consts  --      0.7403                 1.2658                 0.9383
 IR Inten    --    262.5837                36.4363               204.4392

                     22                     23                     24
                      A                      A                      A
 Frequencies --   1002.1862              1016.7390              1029.4144
 Red. masses --      1.0905                 1.5660                 1.1755
 Frc consts  --      0.6453                 0.9538                 0.7339
 IR Inten    --     60.0945                 7.8291                60.7026

                     25                     26                     27
                      A                      A                      A
 Frequencies --   1061.2895              1062.6928              1083.2669
 Red. masses --      1.4091                 1.5335                 3.3132
 Frc consts  --      0.9351                 1.0204                 2.2907
 IR Inten    --     26.4470                79.8791                 3.4286

                     28                     29                     30
                      A                      A                      A
 Frequencies --   1093.9911              1129.7689              1212.8327
 Red. masses --      1.9723                 2.6802                 1.3971
 Frc consts  --      1.3907                 2.0155                 1.2108
 IR Inten    --    113.1284                17.0072                24.1362

                     31                     32                     33
                      A                      A                      A
 Frequencies --   1337.0108              1341.8847              1406.7251
 Red. masses --      1.3574                 2.6829                 1.2832
 Frc consts  --      1.4296                 2.8463                 1.4962
 IR Inten    --     42.3971               683.2781               180.9225

                     34                     35                     36
                      A                      A                      A
 Frequencies --   1417.1189              1433.0436              1455.9354
 Red. masses --      1.2713                 2.2432                 1.1734
 Frc consts  --      1.5042                 2.7142                 1.4655
 IR Inten    --     43.2303               178.5710                 6.3813

                     37                     38                     39
                      A                      A                      A
 Frequencies --   1475.2493              1481.8785              1487.4956
 Red. masses --      1.1436                 1.0915                 1.0800
 Frc consts  --      1.4665                 1.4122                 1.4080
 IR Inten    --      4.2838                40.8026                 5.4635

                     40                     41                     42
                      A                      A                      A
 Frequencies --   1489.5931              1497.3735              1507.4917
 Red. masses --      1.0581                 1.0481                 1.0419
 Frc consts  --      1.3832                 1.3846                 1.3951
 IR Inten    --     10.0628                10.0403                26.1842

                     43                     44                     45
                      A                      A                      A
 Frequencies --   1524.3971              1647.2785              1651.0646
 Red. masses --      1.9294                 1.0906                 6.0265
 Frc consts  --      2.6417                 1.7436                 9.6793
 IR Inten    --    306.1013                96.9505              1057.1595

                     46                     47                     48
                      A                      A                      A
 Frequencies --   2972.0152              3035.0481              3060.1212
 Red. masses --      1.0813                 1.0397                 1.0358
 Frc consts  --      5.6273                 5.6427                 5.7146
 IR Inten    --    139.4857                53.2628                32.8483

                     49                     50                     51
                      A                      A                      A
 Frequencies --   3079.8669              3085.2910              3136.3830
 Red. masses --      1.0364                 1.1010                 1.1013
 Frc consts  --      5.7921                 6.1748                 6.3827
 IR Inten    --      9.3592                45.2331                 7.6330

                     52                     53                     54
                      A                      A                      A
 Frequencies --   3143.0371              3157.6179              3165.9981
 Red. masses --      1.0971                 1.1026                 1.1036
 Frc consts  --      6.3856                 6.4771                 6.5176
 IR Inten    --     13.6737                 8.3175                12.1325

                     55                     56                     57
                      A                      A                      A
 Frequencies --   3169.7557              3529.9355              3611.2554
 Red. masses --      1.1048                 1.0508                 1.0964
 Frc consts  --      6.5400                 7.7143                 8.4241
 IR Inten    --     12.5508                58.3823                51.0377

 - Thermochemistry -
 -------------------
 Temperature   298.150 Kelvin.  Pressure   1.00000 Atm.
 Atom     1 has atomic number  6 and mass  12.00000

 Molecular mass:   193.01023 amu.
 Principal axes and moments of inertia in atomic units:
                           1         2         3
     Eigenvalues --  1286.056992363.089272837.59728
           X            0.99987   0.01375   0.00839
           Y           -0.01398   0.99950   0.02820
           Z           -0.00800  -0.02831   0.99957
 This molecule is an asymmetric top.
 Rotational symmetry number  1.
 Warning -- assumption of classical behavior for rotation
           may cause significant error
 Rotational temperatures (Kelvin)      0.06735     0.03665     0.03052
 Rotational constants (GHZ):           1.40331     0.76372     0.63601
    1 imaginary frequencies ignored.
 Zero-point vibrational energy     462482.1 (Joules/Mol)
                                  110.53588 (Kcal/Mol)
 Warning -- explicit consideration of  16 degrees of freedom as
           vibrations may cause significant error
 Vibrational temperatures:     95.06   112.20   123.56   202.90   245.68
          (Kelvin)            258.25   306.02   369.28   398.09   411.99
                              428.37   460.85   515.11   546.71   714.63
                              800.37   934.73  1007.18  1203.30  1410.40
                             1441.92  1462.86  1481.10  1526.96  1528.98
                             1558.58  1574.01  1625.49  1745.00  1923.66
                             1930.67  2023.96  2038.92  2061.83  2094.77
                             2122.55  2132.09  2140.17  2143.19  2154.39
                             2168.94  2193.27  2370.07  2375.51  4276.07
                             4366.76  4402.83  4431.24  4439.05  4512.56
                             4522.13  4543.11  4555.17  4560.57  5078.79
                             5195.79

 Zero-point correction=                           0.176150 (Hartree/Particle)
 Thermal correction to Energy=                    0.187697
 Thermal correction to Enthalpy=                  0.188641
 Thermal correction to Gibbs Free Energy=         0.138095
 Sum of electronic and zero-point Energies=          -2939.859700
 Sum of electronic and thermal Energies=             -2939.848153
 Sum of electronic and thermal Enthalpies=           -2939.847209
 Sum of electronic and thermal Free Energies=        -2939.897755

                     E (Thermal)             CV                S
                      KCal/Mol        Cal/Mol-Kelvin    Cal/Mol-Kelvin
 Total                  117.782             40.028            106.383
 Electronic               0.000              0.000              0.000
 Translational            0.889              2.981             41.678
 Rotational               0.889              2.981             30.534
 Vibrational            116.004             34.067             34.171
 Vibration     1          0.597              1.970              4.267
 Vibration     2          0.599              1.964              3.941
 Vibration     3          0.601              1.959              3.752
 Vibration     4          0.615              1.912              2.790
 Vibration     5          0.626              1.878              2.427
 Vibration     6          0.629              1.867              2.334
 Vibration     7          0.644              1.822              2.020
 Vibration     8          0.666              1.752              1.684
 Vibration     9          0.678              1.717              1.554
 Vibration    10          0.684              1.699              1.495
 Vibration    11          0.691              1.678              1.430
 Vibration    12          0.706              1.635              1.309
 Vibration    13          0.733              1.559              1.131
 Vibration    14          0.750              1.513              1.039
 Vibration    15          0.852              1.257              0.666
 Vibration    16          0.912              1.126              0.531

 Optimization completed.
    -- Stationary point found.
 Normal termination of Gaussian 16 at Thu Feb 18 22:38:27 2021.
