 Gaussian 16, Revision A.03,
 Gaussian 16:  ES64L-G16RevA.03 25-Dec-2016

 ----------------------------------------------------------------------
 # wB97XD def2tzvp, opt=(ts, noeigen, calcfc, maxcycles=70, maxstep=3),
  freq=noraman, scrf=(iefpcm, solvent=water)
 ----------------------------------------------------------------------

 ------------------------
 3_iteration/TS-632-3.out
 ------------------------
 Symbolic Z-matrix:
 Charge =  0 Multiplicity = 1

 SCF Done:  E(RwB97XD) =  -5897.11278545     A.U. after   15 cycles
 Optimization completed.
    -- Stationary point found.
 Normal termination of Gaussian 16 at Sun Feb 21 00:52:25 2021.

 ---------------------------------------------------------------------
 #N Geom=AllCheck Guess=TCheck SCRF=Check GenChk RwB97XD/def2TZVP Freq
 ---------------------------------------------------------------------

 Structure from the checkpoint file:  "/beegfs/scratch/user/q/tla25/Gau-55966.chk"
 ------------------------
 3_iteration/TS-632-3.out
 ------------------------
 Charge =  0 Multiplicity = 1

                         Standard orientation:
 ---------------------------------------------------------------------
 Center     Atomic      Atomic             Coordinates (Angstroms)
 Number     Number       Type             X           Y           Z
 ---------------------------------------------------------------------
      1          6           0       -0.844069   -0.811691    0.049741
      2          6           0        0.180691   -1.824770    0.196521
      3          8           0       -0.077809   -2.963720    0.577761
      4          6           0       -0.738149    0.575730    0.051821
      5          6           0       -1.685589    0.492689    2.807271
      6          1           0       -2.613249    0.479029    3.378191
      7          1           0       -1.405979   -0.537021    2.570341
      8          1           0       -0.903359    0.947799    3.407881
      9          7           0       -1.850809    1.228799    1.559811
     10          1           0       -2.790979    1.132369    1.195601
     11          1           0       -1.646789    2.216729    1.654691
     12         35           0       -1.820179    1.539579   -1.299289
     13          6           0        0.552761    1.261430    0.368351
     14          6           0        1.097421    2.258550   -0.435149
     15          6           0        2.308171    2.847400   -0.108259
     16          6           0        2.990321    2.460220    1.033851
     17          6           0        2.451651    1.475500    1.848441
     18          6           0        1.245761    0.884120    1.519581
     19          1           0        0.588731    2.569700   -1.335029
     20          1           0        2.718350    3.611880   -0.755179
     21          1           0        3.935320    2.922360    1.288651
     22          1           0        2.973601    1.159530    2.742161
     23          1           0        0.853951    0.103010    2.154221
     24         35           0       -2.610089   -1.542391   -0.059149
     25          6           0        1.591041   -1.553210   -0.245209
     26          6           0        1.868911   -0.892440   -1.435419
     27          6           0        3.180321   -0.738170   -1.859619
     28          6           0        4.222481   -1.235070   -1.091299
     29          6           0        3.949131   -1.904640    0.095101
     30          6           0        2.638991   -2.074240    0.507771
     31          1           0        1.056781   -0.499500   -2.034089
     32          1           0        3.387331   -0.226380   -2.790839
     33          1           0        5.246691   -1.105370   -1.417529
     34          1           0        4.759821   -2.295140    0.697071
     35          1           0        2.418251   -2.600870    1.427431
 ---------------------------------------------------------------------

 SCF Done:  E(RwB97XD) =  -5897.11278545     A.U. after    1 cycles

 The electronic state is 1-A.
 Alpha  occ. eigenvalues -- -483.13323-483.12655 -62.68163 -62.67474 -56.47278
 Alpha  occ. eigenvalues --  -56.46930 -56.46913 -56.46587 -56.46245 -56.46231
 Alpha  occ. eigenvalues --  -19.22368 -14.49176 -10.41655 -10.37669 -10.32402
 Alpha  occ. eigenvalues --  -10.32067 -10.32053 -10.30192 -10.30066 -10.30002
 Alpha  occ. eigenvalues --  -10.29872 -10.29693 -10.29640 -10.29455 -10.29329
 Alpha  occ. eigenvalues --  -10.29272 -10.29179 -10.29135  -8.82258  -8.81577
 Alpha  occ. eigenvalues --   -6.64394  -6.63709  -6.63300  -6.63243  -6.62614
 Alpha  occ. eigenvalues --   -6.62573  -2.74777  -2.74480  -2.74435  -2.74103
 Alpha  occ. eigenvalues --   -2.73787  -2.73755  -2.73549  -2.73549  -2.72869
 Alpha  occ. eigenvalues --   -2.72868  -1.13494  -1.04706  -0.98748  -0.96852
 Alpha  occ. eigenvalues --   -0.94871  -0.89495  -0.87497  -0.86282  -0.85906
 Alpha  occ. eigenvalues --   -0.85357  -0.81714  -0.79418  -0.75299  -0.71629
 Alpha  occ. eigenvalues --   -0.71456  -0.70653  -0.68406  -0.64868  -0.63544
 Alpha  occ. eigenvalues --   -0.62262  -0.58776  -0.58114  -0.57152  -0.56353
 Alpha  occ. eigenvalues --   -0.55968  -0.54959  -0.53804  -0.53288  -0.52603
 Alpha  occ. eigenvalues --   -0.51523  -0.51285  -0.50438  -0.49144  -0.48531
 Alpha  occ. eigenvalues --   -0.48090  -0.47205  -0.45587  -0.45270  -0.44427
 Alpha  occ. eigenvalues --   -0.43446  -0.43198  -0.42580  -0.40231  -0.38316
 Alpha  occ. eigenvalues --   -0.37706  -0.36472  -0.35701  -0.35279  -0.33850
 Alpha  occ. eigenvalues --   -0.33042  -0.32142  -0.28749
 Alpha virt. eigenvalues --   -0.01513   0.02312   0.04126   0.05514   0.05702
 Alpha virt. eigenvalues --    0.07190   0.09587   0.10454   0.12244   0.13308
 Alpha virt. eigenvalues --    0.13814   0.14061   0.14412   0.15583   0.16363

 Mulliken charges:
               1
     1  C   -0.176552
     2  C    0.199231
     3  O   -0.442034
     4  C    0.176588
     5  C   -0.321676
     6  H    0.167689
     7  H    0.158509
     8  H    0.170887
     9  N   -0.332028
    10  H    0.288341
    11  H    0.296158
    12  Br  -0.107816
    13  C    0.083517
    14  C   -0.178348
    15  C   -0.157957
    16  C   -0.118719
    17  C   -0.181569
    18  C   -0.253608
    19  H    0.152025
    20  H    0.145190
    21  H    0.147381
    22  H    0.145159
    23  H    0.197594
    24  Br  -0.129169
    25  C    0.215364
    26  C   -0.199649
    27  C   -0.172024
    28  C   -0.118891
    29  C   -0.156166
    30  C   -0.220757
    31  H    0.153641
    32  H    0.141942
    33  H    0.145097
    34  H    0.141886
    35  H    0.140762
 Sum of Mulliken charges =  -0.00000

 Dipole moment (field-independent basis, Debye):
    X=              1.8367    Y=              9.4769    Z=              4.3146  Tot=             10.5736
 Quadrupole moment (field-independent basis, Debye-Ang):
   XX=           -124.5587   YY=           -155.9833   ZZ=           -126.8159
   XY=             -4.6690   XZ=             -6.8455   YZ=              3.8714

  Exact polarizability: 393.410  12.491 332.251   8.780 -34.781 305.812
 Approx polarizability: 303.836  10.060 271.425   9.641 -36.497 264.926

 ******    1 imaginary frequencies (negative Signs) ******

                      1                      2                      3
                      A                      A                      A
 Frequencies --   -338.7695                24.4445                47.3817
 Red. masses --      6.0828                 6.3328                 4.7391
 Frc consts  --      0.4113                 0.0022                 0.0063
 IR Inten    --    572.1303                 1.5004                 1.1675

                      4                      5                      6
                      A                      A                      A
 Frequencies --     57.4060                69.9448                79.9226
 Red. masses --      6.5636                 4.5115                 4.6024
 Frc consts  --      0.0127                 0.0130                 0.0173
 IR Inten    --      0.4931                 1.0135                 0.4911

                      7                      8                      9
                      A                      A                      A
 Frequencies --     87.4672               101.2829               122.4243
 Red. masses --      4.0574                 4.6062                 7.1001
 Frc consts  --      0.0183                 0.0278                 0.0627
 IR Inten    --      1.4691                 2.3706                 2.4952

                     10                     11                     12
                      A                      A                      A
 Frequencies --    145.2263               164.4783               171.1966
 Red. masses --      8.7226                 2.3958                 3.6197
 Frc consts  --      0.1084                 0.0382                 0.0625
 IR Inten    --      0.1864                 3.4112                 5.5614

                     13                     14                     15
                      A                      A                      A
 Frequencies --    188.4927               208.9080               219.1017
 Red. masses --      3.4541                 1.7405                 5.5564
 Frc consts  --      0.0723                 0.0448                 0.1572
 IR Inten    --      2.8474                 2.9576                 0.1209

                     16                     17                     18
                      A                      A                      A
 Frequencies --    245.5948               257.0152               280.0578
 Red. masses --      5.1013                 9.6616                 5.0719
 Frc consts  --      0.1813                 0.3760                 0.2344
 IR Inten    --      7.4289                17.4356                 8.9449

                     19                     20                     21
                      A                      A                      A
 Frequencies --    294.7989               323.5514               346.6647
 Red. masses --      3.1363                 5.8647                 7.5870
 Frc consts  --      0.1606                 0.3617                 0.5372
 IR Inten    --     19.9899                26.4874                16.1762

                     22                     23                     24
                      A                      A                      A
 Frequencies --    412.1665               424.3976               429.9503
 Red. masses --      5.4286                 2.8929                 2.9676
 Frc consts  --      0.5434                 0.3070                 0.3232
 IR Inten    --     10.8628                 1.0374                 4.8571

                     25                     26                     27
                      A                      A                      A
 Frequencies --    480.2978               541.7692               570.4565
 Red. masses --      4.5729                 3.6718                 3.4614
 Frc consts  --      0.6215                 0.6350                 0.6637
 IR Inten    --     23.5181                 3.9811                86.0330

                     28                     29                     30
                      A                      A                      A
 Frequencies --    615.5457               633.3853               635.1432
 Red. masses --      2.8061                 5.5460                 6.3879
 Frc consts  --      0.6264                 1.3109                 1.5183
 IR Inten    --     52.1339                47.2949                 3.0769

                     31                     32                     33
                      A                      A                      A
 Frequencies --    647.1336               665.2921               724.4637
 Red. masses --      3.8112                 3.6196                 1.8707
 Frc consts  --      0.9404                 0.9439                 0.5785
 IR Inten    --     94.5661                81.3038                47.2062

                     34                     35                     36
                      A                      A                      A
 Frequencies --    725.2851               732.1618               758.1940
 Red. masses --      1.7173                 3.8511                 2.8972
 Frc consts  --      0.5323                 1.2163                 0.9813
 IR Inten    --     45.5136               237.2275                95.0884

                     37                     38                     39
                      A                      A                      A
 Frequencies --    793.0479               806.6732               835.8334
 Red. masses --      6.7850                 2.3535                 3.2900
 Frc consts  --      2.5142                 0.9023                 1.3542
 IR Inten    --    130.7025                 8.7408                75.8522

                     40                     41                     42
                      A                      A                      A
 Frequencies --    879.5074               881.5172               895.5773
 Red. masses --      1.2524                 1.2529                 5.7992
 Frc consts  --      0.5708                 0.5736                 2.7405
 IR Inten    --      0.5337                 3.0809                39.1929

                     43                     44                     45
                      A                      A                      A
 Frequencies --    970.7205               975.3538              1017.5934
 Red. masses --      1.4439                 1.4307                 1.3732
 Frc consts  --      0.8016                 0.8019                 0.8378
 IR Inten    --     10.0159                 5.6834                 0.9674

                     46                     47                     48
                      A                      A                      A
 Frequencies --   1020.2458              1022.3173              1026.7239
 Red. masses --      1.1067                 1.3595                 5.4845
 Frc consts  --      0.6787                 0.8371                 3.4064
 IR Inten    --     18.9159                 0.4576                 2.9122

                     49                     50                     51
                      A                      A                      A
 Frequencies --   1027.0271              1033.8941              1039.1236
 Red. masses --      5.9046                 1.3179                 1.3155
 Frc consts  --      3.6695                 0.8300                 0.8369
 IR Inten    --      2.4785                 0.8464                 2.5150

                     52                     53                     54
                      A                      A                      A
 Frequencies --   1047.0062              1058.3577              1069.4354
 Red. masses --      1.3655                 2.3672                 2.2402
 Frc consts  --      0.8819                 1.5623                 1.5096
 IR Inten    --    153.5705                14.1739                 7.9930

                     55                     56                     57
                      A                      A                      A
 Frequencies --   1082.4775              1110.6911              1127.9159
 Red. masses --      2.8330                 1.5992                 2.0371
 Frc consts  --      1.9559                 1.1624                 1.5269
 IR Inten    --      4.2040                28.4949                 8.6176

                     58                     59                     60
                      A                      A                      A
 Frequencies --   1135.6746              1183.7703              1187.9044
 Red. masses --      2.2855                 1.1388                 1.1276
 Frc consts  --      1.7368                 0.9402                 0.9375
 IR Inten    --     28.9550                 1.2909                 0.3156

                     61                     62                     63
                      A                      A                      A
 Frequencies --   1196.3856              1204.3261              1216.3535
 Red. masses --      1.4590                 1.1242                 3.6679
 Frc consts  --      1.2304                 0.9607                 3.1974
 IR Inten    --     40.7876                 9.8496               151.4223

                     64                     65                     66
                      A                      A                      A
 Frequencies --   1228.3814              1306.6912              1321.1563
 Red. masses --      1.1378                 5.2549                 4.6648
 Frc consts  --      1.0116                 5.2864                 4.7973
 IR Inten    --      6.9513               618.9398                16.5929

                     67                     68                     69
                      A                      A                      A
 Frequencies --   1329.9954              1330.9762              1356.6236
 Red. masses --      1.5889                 3.1026                 1.4617
 Frc consts  --      1.6560                 3.2383                 1.5850
 IR Inten    --      3.8774                73.0331                10.9745

                     70                     71                     72
                      A                      A                      A
 Frequencies --   1372.5853              1412.5683              1459.4792
 Red. masses --      1.4492                 5.0501                 1.2233
 Frc consts  --      1.6086                 5.9371                 1.5352
 IR Inten    --     22.7999              1001.2075                22.8009

                     73                     74                     75
                      A                      A                      A
 Frequencies --   1491.9305              1494.2667              1498.1507
 Red. masses --      2.2583                 2.3098                 1.0381
 Frc consts  --      2.9616                 3.0386                 1.3728
 IR Inten    --      6.4103               117.0869                 8.0820

                     76                     77                     78
                      A                      A                      A
 Frequencies --   1500.6996              1538.5100              1546.1464
 Red. masses --      1.0394                 2.3027                 2.2119
 Frc consts  --      1.3792                 3.2113                 3.1155
 IR Inten    --     21.3124                 3.2434                16.0891

                     79                     80                     81
                      A                      A                      A
 Frequencies --   1636.4302              1643.8800              1652.4499
 Red. masses --      1.0899                 8.0826                 5.6114
 Frc consts  --      1.7197                12.8689                 9.0277
 IR Inten    --     82.3681               358.2603                 2.8429

                     82                     83                     84
                      A                      A                      A
 Frequencies --   1660.7064              1673.4170              1674.9241
 Red. masses --      7.9210                 5.9254                 5.8393
 Frc consts  --     12.8711                 9.7764                 9.6516
 IR Inten    --    298.1782                16.7836                 4.3428

                     85                     86                     87
                      A                      A                      A
 Frequencies --   3056.5645              3132.5837              3180.6541
 Red. masses --      1.0392                 1.0990                 1.1042
 Frc consts  --      5.7204                 6.3544                 6.5818
 IR Inten    --     25.0168                12.1065                11.8707

                     88                     89                     90
                      A                      A                      A
 Frequencies --   3195.1514              3201.7519              3202.1324
 Red. masses --      1.0859                 1.0884                 1.0868
 Frc consts  --      6.5314                 6.5735                 6.5655
 IR Inten    --      0.5714                 1.4629                 0.3025

                     91                     92                     93
                      A                      A                      A
 Frequencies --   3209.0210              3212.6612              3216.7101
 Red. masses --      1.0918                 1.0910                 1.0951
 Frc consts  --      6.6244                 6.6343                 6.6759
 IR Inten    --     12.8809                14.3622                30.0998

                     94                     95                     96
                      A                      A                      A
 Frequencies --   3223.0874              3223.6769              3241.0018
 Red. masses --      1.0962                 1.0988                 1.0935
 Frc consts  --      6.7093                 6.7276                 6.7675
 IR Inten    --     18.8093                20.9971                 4.9867

                     97                     98                     99
                      A                      A                      A
 Frequencies --   3248.6162              3529.0360              3614.7448
 Red. masses --      1.0922                 1.0508                 1.0970
 Frc consts  --      6.7910                 7.7106                 8.4454
 IR Inten    --      2.0570                71.7474                60.7411

 - Thermochemistry -
 -------------------
 Temperature   298.150 Kelvin.  Pressure   1.00000 Atm.
 Atom     1 has atomic number  6 and mass  12.00000

 Molecular mass:   394.95204 amu.
 Principal axes and moments of inertia in atomic units:
                           1         2         3
     Eigenvalues --  5672.706618827.04005**********
           X            0.99948  -0.01591  -0.02793
           Y            0.01711   0.99892   0.04314
           Z            0.02721  -0.04360   0.99868
 This molecule is an asymmetric top.
 Rotational symmetry number  1.
 Warning -- assumption of classical behavior for rotation
           may cause significant error
 Rotational temperatures (Kelvin)      0.01527     0.00981     0.00793
 Rotational constants (GHZ):           0.31814     0.20446     0.16528
    1 imaginary frequencies ignored.
 Zero-point vibrational energy     718320.6 (Joules/Mol)
                                  171.68273 (Kcal/Mol)
 Warning -- explicit consideration of  27 degrees of freedom as
           vibrations may cause significant error
 Vibrational temperatures:     35.17    68.17    82.59   100.63   114.99
          (Kelvin)            125.85   145.72   176.14   208.95   236.65
                              246.31   271.20   300.57   315.24   353.36
                              369.79   402.94   424.15   465.52   498.77
                              593.02   610.61   618.60   691.04   779.49
                              820.76   885.63   911.30   913.83   931.08
                              957.21  1042.34  1043.52  1053.42  1090.87
                             1141.02  1160.62  1202.58  1265.41  1268.31
                             1288.54  1396.65  1403.32  1464.09  1467.91
                             1470.89  1477.23  1477.66  1487.54  1495.07
                             1506.41  1522.74  1538.68  1557.44  1598.04
                             1622.82  1633.98  1703.18  1709.13  1721.33
                             1732.76  1750.06  1767.37  1880.04  1900.85
                             1913.57  1914.98  1951.88  1974.84  2032.37
                             2099.87  2146.56  2149.92  2155.50  2159.17
                             2213.57  2224.56  2354.46  2365.18  2377.51
                             2389.39  2407.67  2409.84  4397.71  4507.09
                             4576.25  4597.11  4606.61  4607.15  4617.07
                             4622.30  4628.13  4637.30  4638.15  4663.08
                             4674.03  5077.50  5200.81

 Zero-point correction=                           0.273594 (Hartree/Particle)
 Thermal correction to Energy=                    0.292541
 Thermal correction to Enthalpy=                  0.293485
 Thermal correction to Gibbs Free Energy=         0.224357
 Sum of electronic and zero-point Energies=          -5896.839192
 Sum of electronic and thermal Energies=             -5896.820244
 Sum of electronic and thermal Enthalpies=           -5896.819300
 Sum of electronic and thermal Free Energies=        -5896.888429

                     E (Thermal)             CV                S
                      KCal/Mol        Cal/Mol-Kelvin    Cal/Mol-Kelvin
 Total                  183.572             70.206            145.494
 Electronic               0.000              0.000              0.000
 Translational            0.889              2.981             43.812
 Rotational               0.889              2.981             34.657
 Vibrational            181.795             64.245             67.024
 Vibration     1          0.593              1.985              6.236
 Vibration     2          0.595              1.979              4.924
 Vibration     3          0.596              1.975              4.544
 Vibration     4          0.598              1.968              4.155
 Vibration     5          0.600              1.963              3.893
 Vibration     6          0.601              1.958              3.716
 Vibration     7          0.604              1.948              3.429
 Vibration     8          0.610              1.930              3.062
 Vibration     9          0.617              1.908              2.734
 Vibration    10          0.623              1.886              2.498
 Vibration    11          0.626              1.878              2.422
 Vibration    12          0.633              1.856              2.243
 Vibration    13          0.642              1.827              2.053
 Vibration    14          0.647              1.812              1.967
 Vibration    15          0.660              1.770              1.762
 Vibration    16          0.667              1.751              1.682
 Vibration    17          0.680              1.710              1.533
 Vibration    18          0.689              1.683              1.446
 Vibration    19          0.708              1.628              1.292
 Vibration    20          0.725              1.582              1.181
 Vibration    21          0.776              1.444              0.919
 Vibration    22          0.786              1.417              0.877
 Vibration    23          0.791              1.405              0.859
 Vibration    24          0.837              1.294              0.709
 Vibration    25          0.897              1.158              0.561
 Vibration    26          0.927              1.095              0.503
 Vibration    27          0.975              0.999              0.424

 Optimization completed.
    -- Stationary point found.
 Normal termination of Gaussian 16 at Sun Feb 21 03:50:57 2021.
