 Gaussian 16, Revision A.03,
 Gaussian 16:  ES64L-G16RevA.03 25-Dec-2016

 ----------------------------------------------------------------------
 # wB97XD def2tzvp, opt=(ts, noeigen, calcfc, maxcycles=70, maxstep=5),
  freq=noraman, scrf=(iefpcm, solvent=water)
 ----------------------------------------------------------------------

 ------------------------
 2_iteration/TS-626-2.out
 ------------------------
 Symbolic Z-matrix:
 Charge =  0 Multiplicity = 1

 SCF Done:  E(RwB97XD) =  -5705.37743203     A.U. after   15 cycles
 SCF Done:  E(RwB97XD) =  -5705.37743802     A.U. after   10 cycles
 SCF Done:  E(RwB97XD) =  -5705.37743805     A.U. after    7 cycles
 Optimization completed.
    -- Stationary point found.
 Normal termination of Gaussian 16 at Sat Feb 20 23:12:49 2021.

 ---------------------------------------------------------------------
 #N Geom=AllCheck Guess=TCheck SCRF=Check GenChk RwB97XD/def2TZVP Freq
 ---------------------------------------------------------------------

 Structure from the checkpoint file:  "/beegfs/scratch/user/q/tla25/Gau-78371.chk"
 ------------------------
 2_iteration/TS-626-2.out
 ------------------------
 Charge =  0 Multiplicity = 1

                         Standard orientation:
 ---------------------------------------------------------------------
 Center     Atomic      Atomic             Coordinates (Angstroms)
 Number     Number       Type             X           Y           Z
 ---------------------------------------------------------------------
      1          6           0        0.849038    0.642484   -0.137232
      2          6           0        0.601630    2.071076   -0.123219
      3          8           0       -0.456903    2.550951    0.275322
      4          6           0       -0.124375   -0.303095    0.164041
      5          6           0        0.214669    0.412024    2.923514
      6          1           0        0.625566    0.153696    3.899345
      7          1           0        0.883718    1.118681    2.432940
      8          1           0       -0.757748    0.881299    3.048954
      9          7           0        0.090819   -0.765647    2.071759
     10          1           0        0.970165   -1.269149    2.032389
     11          1           0       -0.609701   -1.420583    2.400613
     12         35           0        0.156716   -2.137379   -0.475923
     13          6           0       -1.577867    0.029985   -0.024000
     14          6           0       -1.967250    0.397341   -1.313313
     15          6           0       -3.289183    0.678181   -1.600837
     16          6           0       -4.254159    0.590968   -0.605634
     17          6           0       -3.878043    0.213561    0.671620
     18          6           0       -2.550087   -0.071791    0.960425
     19          1           0       -1.218514    0.467945   -2.091812
     20          1           0       -3.567467    0.966406   -2.606501
     21          1           0       -5.290265    0.811619   -0.827642
     22          1           0       -4.618441    0.136987    1.457477
     23          1           0       -2.304587   -0.359119    1.970744
     24         35           0        2.666539    0.073337   -0.322300
     25          6           0        1.682035    3.003682   -0.625912
     26          1           0        2.102664    2.668785   -1.574160
     27          1           0        1.249672    3.995331   -0.739308
     28          1           0        2.502088    3.054995    0.093162
 ---------------------------------------------------------------------

 SCF Done:  E(RwB97XD) =  -5705.37743805     A.U. after    1 cycles

 The electronic state is 1-A.
 Alpha  occ. eigenvalues -- -483.13636-483.12776 -62.68470 -62.67606 -56.47593
 Alpha  occ. eigenvalues --  -56.47234 -56.47215 -56.46716 -56.46373 -56.46363
 Alpha  occ. eigenvalues --  -19.21728 -14.49060 -10.41165 -10.37044 -10.31894
 Alpha  occ. eigenvalues --  -10.31887 -10.31876 -10.29869 -10.29529 -10.29441
 Alpha  occ. eigenvalues --  -10.29367 -10.29299 -10.27564  -8.82565  -8.81717
 Alpha  occ. eigenvalues --   -6.64729  -6.63845  -6.63593  -6.63533  -6.62749
 Alpha  occ. eigenvalues --   -6.62721  -2.75109  -2.74798  -2.74751  -2.74239
 Alpha  occ. eigenvalues --   -2.73920  -2.73899  -2.73831  -2.73831  -2.73012
 Alpha  occ. eigenvalues --   -2.73012  -1.12849  -1.04584  -0.98320  -0.94877
 Alpha  occ. eigenvalues --   -0.89998  -0.86377  -0.85762  -0.83372  -0.81387
 Alpha  occ. eigenvalues --   -0.79200  -0.72901  -0.71204  -0.68623  -0.64911
 Alpha  occ. eigenvalues --   -0.61965  -0.58869  -0.57935  -0.56685  -0.56256
 Alpha  occ. eigenvalues --   -0.54153  -0.53874  -0.53136  -0.51956  -0.51301
 Alpha  occ. eigenvalues --   -0.49973  -0.48721  -0.47869  -0.46602  -0.46363
 Alpha  occ. eigenvalues --   -0.45687  -0.43959  -0.43497  -0.43118  -0.40335
 Alpha  occ. eigenvalues --   -0.39386  -0.37717  -0.36273  -0.34672  -0.34135
 Alpha  occ. eigenvalues --   -0.31544  -0.28571
 Alpha virt. eigenvalues --    0.01242   0.02603   0.04869   0.06646   0.09944
 Alpha virt. eigenvalues --    0.10111   0.12461   0.13252   0.13563   0.14903
 Alpha virt. eigenvalues --    0.15868   0.16553   0.17669   0.18290   0.18643

 Mulliken charges:
               1
     1  C   -0.276430
     2  C    0.292557
     3  O   -0.465884
     4  C    0.182525
     5  C   -0.276449
     6  H    0.161505
     7  H    0.153291
     8  H    0.153088
     9  N   -0.362446
    10  H    0.284074
    11  H    0.290589
    12  Br  -0.084894
    13  C    0.272482
    14  C   -0.310487
    15  C   -0.121141
    16  C   -0.150429
    17  C   -0.165076
    18  C   -0.221879
    19  H    0.156229
    20  H    0.145291
    21  H    0.145947
    22  H    0.144874
    23  H    0.137308
    24  Br  -0.122539
    25  C   -0.385543
    26  H    0.144855
    27  H    0.130795
    28  H    0.147789
 Sum of Mulliken charges =  -0.00000

 Dipole moment (field-independent basis, Debye):
    X=             -0.7028    Y=             -3.0844    Z=              4.8446  Tot=              5.7860
 Quadrupole moment (field-independent basis, Debye-Ang):
   XX=           -108.4376   YY=           -123.0074   ZZ=            -95.1910
   XY=              4.1518   XZ=              1.5409   YZ=             -8.7430

  Exact polarizability: 291.876 -10.934 245.984 -12.054 -16.259 238.621
 Approx polarizability: 228.708 -12.468 199.756 -10.382 -11.042 205.026

 ******    1 imaginary frequencies (negative Signs) ******

                      1                      2                      3
                      A                      A                      A
 Frequencies --   -349.7056                38.1438                48.3869
 Red. masses --      5.2947                 4.8257                 5.1721
 Frc consts  --      0.3815                 0.0041                 0.0071
 IR Inten    --    583.4277                 0.4897                 0.1940

                      4                      5                      6
                      A                      A                      A
 Frequencies --     61.1803                81.8153               103.0387
 Red. masses --      4.0035                 5.3567                 3.3632
 Frc consts  --      0.0088                 0.0211                 0.0210
 IR Inten    --      2.5446                 4.0961                 2.9985

                      7                      8                      9
                      A                      A                      A
 Frequencies --    125.3650               136.2907               161.4159
 Red. masses --      5.5873                 6.9032                 1.5148
 Frc consts  --      0.0517                 0.0755                 0.0233
 IR Inten    --      4.0783                 2.1558                 2.2275

                     10                     11                     12
                      A                      A                      A
 Frequencies --    166.7060               189.1991               197.5353
 Red. masses --      4.6815                 1.0387                 6.1814
 Frc consts  --      0.0767                 0.0219                 0.1421
 IR Inten    --      7.1770                 0.1609                 1.5997

                     13                     14                     15
                      A                      A                      A
 Frequencies --    203.9013               249.7192               265.9320
 Red. masses --      2.5483                 4.3180                 5.1275
 Frc consts  --      0.0624                 0.1587                 0.2136
 IR Inten    --      3.4272                 5.5923                 7.0406

                     16                     17                     18
                      A                      A                      A
 Frequencies --    290.8865               302.1166               352.0843
 Red. masses --      3.3636                 5.7029                 5.0009
 Frc consts  --      0.1677                 0.3067                 0.3652
 IR Inten    --     17.5153                10.8533                18.3678

                     19                     20                     21
                      A                      A                      A
 Frequencies --    403.7641               421.2640               506.4426
 Red. masses --      6.6147                 2.8741                 3.8024
 Frc consts  --      0.6354                 0.3005                 0.5746
 IR Inten    --      5.1214                 0.1956                55.2332

                     22                     23                     24
                      A                      A                      A
 Frequencies --    530.2376               559.3789               602.7782
 Red. masses --      3.9408                 2.6675                 2.8942
 Frc consts  --      0.6528                 0.4918                 0.6196
 IR Inten    --     90.7709                26.5519                67.8008

                     25                     26                     27
                      A                      A                      A
 Frequencies --    632.0975               645.4874               681.0871
 Red. masses --      4.7013                 5.1320                 2.0476
 Frc consts  --      1.1067                 1.2598                 0.5596
 IR Inten    --     31.6929                66.0187                30.8621

                     28                     29                     30
                      A                      A                      A
 Frequencies --    718.5442               740.5636               810.0244
 Red. masses --      1.7918                 2.5543                 2.6690
 Frc consts  --      0.5451                 0.8254                 1.0318
 IR Inten    --     43.1864               188.9659                 9.7359

                     31                     32                     33
                      A                      A                      A
 Frequencies --    853.1255               865.8124               948.6373
 Red. masses --      5.1470                 1.2657                 1.4814
 Frc consts  --      2.2071                 0.5590                 0.7855
 IR Inten    --     70.7067                 1.5005                 1.2910

                     34                     35                     36
                      A                      A                      A
 Frequencies --    982.3013               987.6572              1009.2862
 Red. masses --      1.1185                 3.3375                 1.3793
 Frc consts  --      0.6359                 1.9181                 0.8278
 IR Inten    --     48.0571                 9.8141                 0.6792

                     37                     38                     39
                      A                      A                      A
 Frequencies --   1016.8536              1024.0083              1029.6056
 Red. masses --      1.8722                 5.1837                 1.3125
 Frc consts  --      1.1406                 3.2025                 0.8197
 IR Inten    --     42.8371                 3.6541                 0.4075

                     40                     41                     42
                      A                      A                      A
 Frequencies --   1044.2491              1056.8522              1066.2573
 Red. masses --      1.8165                 1.2309                 2.1108
 Frc consts  --      1.1670                 0.8101                 1.4139
 IR Inten    --     13.8017                91.2177                17.0452

                     43                     44                     45
                      A                      A                      A
 Frequencies --   1074.0657              1125.2966              1185.9183
 Red. masses --      4.9035                 1.5636                 1.1780
 Frc consts  --      3.3329                 1.1666                 0.9761
 IR Inten    --     32.7883                 9.6480                 3.9240

                     46                     47                     48
                      A                      A                      A
 Frequencies --   1191.6571              1216.0350              1222.5142
 Red. masses --      3.3497                 1.1956                 1.3224
 Frc consts  --      2.8026                 1.0417                 1.1645
 IR Inten    --    114.2465                 5.0526                16.0227

                     49                     50                     51
                      A                      A                      A
 Frequencies --   1286.2871              1316.8659              1341.4145
 Red. masses --      4.3537                 4.3248                 1.3304
 Frc consts  --      4.2441                 4.4188                 1.4105
 IR Inten    --    362.3958               105.7422                12.4066

                     52                     53                     54
                      A                      A                      A
 Frequencies --   1360.5708              1383.7590              1400.9624
 Red. masses --      1.4592                 1.8727                 2.5915
 Frc consts  --      1.5915                 2.1127                 2.9967
 IR Inten    --      5.4735               139.4734               801.3015

                     55                     56                     57
                      A                      A                      A
 Frequencies --   1459.6538              1460.7755              1470.9232
 Red. masses --      1.0982                 1.1727                 1.0583
 Frc consts  --      1.3786                 1.4744                 1.3491
 IR Inten    --     32.4390                13.3488                23.1239

                     58                     59                     60
                      A                      A                      A
 Frequencies --   1486.6431              1489.6141              1504.5787
 Red. masses --      1.0503                 2.1515                 1.0450
 Frc consts  --      1.3676                 2.8128                 1.3938
 IR Inten    --     12.5962                34.4620                15.4436

                     61                     62                     63
                      A                      A                      A
 Frequencies --   1541.9821              1649.7954              1658.1494
 Red. masses --      2.3095                 2.4240                 1.4890
 Frc consts  --      3.2354                 3.8873                 2.4121
 IR Inten    --     28.8752                51.2570                40.9495

                     64                     65                     66
                      A                      A                      A
 Frequencies --   1673.4918              1680.4303              3064.8201
 Red. masses --      5.7063                10.1501                 1.0368
 Frc consts  --      9.4157                16.8873                 5.7377
 IR Inten    --      1.5515               431.9937                 5.3751

                     67                     68                     69
                      A                      A                      A
 Frequencies --   3072.7860              3137.0547              3146.8746
 Red. masses --      1.0338                 1.0994                 1.1044
 Frc consts  --      5.7514                 6.3745                 6.4439
 IR Inten    --     33.7308                10.0773                 9.2245

                     70                     71                     72
                      A                      A                      A
 Frequencies --   3169.2491              3178.1616              3198.4924
 Red. masses --      1.1043                 1.1045                 1.0861
 Frc consts  --      6.5351                 6.5733                 6.5466
 IR Inten    --     24.9222                13.4288                 0.4776

                     73                     74                     75
                      A                      A                      A
 Frequencies --   3206.3289              3215.0390              3224.1571
 Red. masses --      1.0893                 1.0939                 1.0982
 Frc consts  --      6.5980                 6.6617                 6.7261
 IR Inten    --      4.3246                22.0508                20.9272

                     76                     77                     78
                      A                      A                      A
 Frequencies --   3254.4987              3523.1517              3600.0102
 Red. masses --      1.0915                 1.0512                 1.0956
 Frc consts  --      6.8114                 7.6880                 8.3660
 IR Inten    --     15.5928                47.0744                48.0147

 - Thermochemistry -
 -------------------
 Temperature   298.150 Kelvin.  Pressure   1.00000 Atm.
 Atom     1 has atomic number  6 and mass  12.00000

 Molecular mass:   332.93639 amu.
 Principal axes and moments of inertia in atomic units:
                           1         2         3
     Eigenvalues --  3640.488056088.175437389.44150
           X            0.99987   0.01276   0.00939
           Y           -0.01226   0.99860  -0.05150
           Z           -0.01003   0.05138   0.99863
 This molecule is an asymmetric top.
 Rotational symmetry number  1.
 Warning -- assumption of classical behavior for rotation
           may cause significant error
 Rotational temperatures (Kelvin)      0.02379     0.01423     0.01172
 Rotational constants (GHZ):           0.49574     0.29643     0.24423
    1 imaginary frequencies ignored.
 Zero-point vibrational energy     575894.5 (Joules/Mol)
                                  137.64209 (Kcal/Mol)
 Warning -- explicit consideration of  23 degrees of freedom as
           vibrations may cause significant error
 Vibrational temperatures:     54.88    69.62    88.02   117.71   148.25
          (Kelvin)            180.37   196.09   232.24   239.85   272.22
                              284.21   293.37   359.29   382.62   418.52
                              434.68   506.57   580.93   606.10   728.66
                              762.89   804.82   867.26   909.45   928.71
                              979.93  1033.82  1065.51  1165.44  1227.46
                             1245.71  1364.88  1413.31  1421.02  1452.14
                             1463.03  1473.32  1481.37  1502.44  1520.57
                             1534.11  1545.34  1619.05  1706.27  1714.53
                             1749.60  1758.93  1850.68  1894.68  1930.00
                             1957.56  1990.92  2015.67  2100.12  2101.73
                             2116.33  2138.95  2143.22  2164.75  2218.57
                             2373.69  2385.71  2407.78  2417.76  4409.59
                             4421.05  4513.52  4527.65  4559.84  4572.67
                             4601.92  4613.19  4625.72  4638.84  4682.50
                             5069.03  5179.61

 Zero-point correction=                           0.219347 (Hartree/Particle)
 Thermal correction to Energy=                    0.235368
 Thermal correction to Enthalpy=                  0.236312
 Thermal correction to Gibbs Free Energy=         0.174049
 Sum of electronic and zero-point Energies=          -5705.158091
 Sum of electronic and thermal Energies=             -5705.142070
 Sum of electronic and thermal Enthalpies=           -5705.141126
 Sum of electronic and thermal Free Energies=        -5705.203389

                     E (Thermal)             CV                S
                      KCal/Mol        Cal/Mol-Kelvin    Cal/Mol-Kelvin
 Total                  147.696             57.358            131.043
 Electronic               0.000              0.000              0.000
 Translational            0.889              2.981             43.303
 Rotational               0.889              2.981             33.459
 Vibrational            145.918             51.396             54.281
 Vibration     1          0.594              1.982              5.353
 Vibration     2          0.595              1.978              4.882
 Vibration     3          0.597              1.973              4.419
 Vibration     4          0.600              1.962              3.847
 Vibration     5          0.605              1.947              3.396
 Vibration     6          0.610              1.928              3.016
 Vibration     7          0.614              1.917              2.855
 Vibration     8          0.622              1.890              2.533
 Vibration     9          0.624              1.883              2.472
 Vibration    10          0.633              1.855              2.236
 Vibration    11          0.637              1.843              2.156
 Vibration    12          0.640              1.834              2.098
 Vibration    13          0.663              1.763              1.733
 Vibration    14          0.672              1.736              1.623
 Vibration    15          0.687              1.691              1.469
 Vibration    16          0.694              1.670              1.405
 Vibration    17          0.729              1.571              1.157
 Vibration    18          0.769              1.462              0.949
 Vibration    19          0.784              1.424              0.888
 Vibration    20          0.862              1.236              0.642
 Vibration    21          0.885              1.183              0.587
 Vibration    22          0.915              1.119              0.525
 Vibration    23          0.961              1.026              0.445

 Optimization completed.
    -- Stationary point found.
 Normal termination of Gaussian 16 at Sun Feb 21 00:19:34 2021.
