 Gaussian 16, Revision A.03,
 Gaussian 16:  ES64L-G16RevA.03 25-Dec-2016

 ----------------------------------------------------------------------
 # wB97XD def2tzvp, opt=(ts, noeigen, calcfc, maxcycles=70, maxstep=8),
  freq=noraman, scrf=(iefpcm, solvent=water)
 ----------------------------------------------------------------------

 ------------------------
 1_iteration/TS-612-1.out
 ------------------------
 Symbolic Z-matrix:
 Charge =  0 Multiplicity = 1

 SCF Done:  E(RwB97XD) =  -3207.00379531     A.U. after   15 cycles
 SCF Done:  E(RwB97XD) =  -3207.00390150     A.U. after   12 cycles
 SCF Done:  E(RwB97XD) =  -3207.00395423     A.U. after   12 cycles
 SCF Done:  E(RwB97XD) =  -3207.00395915     A.U. after   10 cycles
 SCF Done:  E(RwB97XD) =  -3207.00395913     A.U. after   10 cycles
 SCF Done:  E(RwB97XD) =  -3207.00395901     A.U. after    7 cycles
 Optimization completed.
    -- Stationary point found.
 Normal termination of Gaussian 16 at Fri Feb 19 22:41:21 2021.

 ---------------------------------------------------------------------
 #N Geom=AllCheck Guess=TCheck SCRF=Check GenChk RwB97XD/def2TZVP Freq
 ---------------------------------------------------------------------

 Structure from the checkpoint file:  "/beegfs/scratch/user/q/tla25/Gau-7951.chk"
 ------------------------
 1_iteration/TS-612-1.out
 ------------------------
 Charge =  0 Multiplicity = 1

                         Standard orientation:
 ---------------------------------------------------------------------
 Center     Atomic      Atomic             Coordinates (Angstroms)
 Number     Number       Type             X           Y           Z
 ---------------------------------------------------------------------
      1          6           0        1.232419   -0.629586   -0.143795
      2          6           0        2.156134    0.457243   -0.224873
      3          8           0        1.970251    1.659829   -0.120115
      4          6           0       -0.130788   -0.543926    0.118158
      5          6           0        0.336304   -2.255107    2.254042
      6          1           0        0.154538   -2.508752    3.296972
      7          1           0        0.151461   -3.126357    1.629479
      8          1           0        1.369768   -1.934883    2.130853
      9          7           0       -0.535728   -1.163809    1.831035
     10          1           0       -1.513939   -1.433510    1.841458
     11          1           0       -0.430330   -0.368605    2.450114
     12         35           0       -1.141277   -2.004415   -0.812872
     13          6           0       -0.869748    0.765284    0.101911
     14          6           0       -0.683767    1.686961    1.130738
     15          6           0       -1.326355    2.912097    1.112838
     16          6           0       -2.158202    3.248576    0.054744
     17          6           0       -2.332637    2.349898   -0.984792
     18          6           0       -1.697242    1.116991   -0.958642
     19          1           0        0.004443    1.478324    1.939076
     20          1           0       -1.167114    3.609475    1.925119
     21          1           0       -2.662655    4.206194    0.040225
     22          1           0       -2.971442    2.601311   -1.821674
     23          1           0       -1.849901    0.426600   -1.776173
     24          1           0        1.655548   -1.609289   -0.307910
     25          8           0        3.410011   -0.023304   -0.481113
     26          6           0        4.436742    0.945860   -0.617016
     27          1           0        5.348069    0.388119   -0.820655
     28          1           0        4.230176    1.628380   -1.442559
     29          1           0        4.556930    1.526220    0.298896
 ---------------------------------------------------------------------

 SCF Done:  E(RwB97XD) =  -3207.00395901     A.U. after    1 cycles

 The electronic state is 1-A.
 Alpha  occ. eigenvalues -- -483.12544 -62.67395 -56.46497 -56.46162 -56.46155
 Alpha  occ. eigenvalues --  -19.27472 -19.20776 -14.50273 -10.40698 -10.39406
 Alpha  occ. eigenvalues --  -10.32276 -10.32095 -10.31493 -10.29933 -10.29634
 Alpha  occ. eigenvalues --  -10.29432 -10.29354 -10.29326 -10.25558  -8.81495
 Alpha  occ. eigenvalues --   -6.63595  -6.62540  -6.62515  -2.73980  -2.73691
 Alpha  occ. eigenvalues --   -2.73670  -2.72817  -2.72816  -1.18758  -1.09360
 Alpha  occ. eigenvalues --   -1.05777  -0.97867  -0.92788  -0.86318  -0.85573
 Alpha  occ. eigenvalues --   -0.85124  -0.80226  -0.79743  -0.73096  -0.71092
 Alpha  occ. eigenvalues --   -0.68290  -0.64763  -0.63865  -0.61775  -0.58307
 Alpha  occ. eigenvalues --   -0.57848  -0.56568  -0.56097  -0.55744  -0.54578
 Alpha  occ. eigenvalues --   -0.53436  -0.51634  -0.50799  -0.49572  -0.48768
 Alpha  occ. eigenvalues --   -0.47798  -0.47382  -0.46297  -0.45145  -0.43572
 Alpha  occ. eigenvalues --   -0.43147  -0.42739  -0.37814  -0.37597  -0.37315
 Alpha  occ. eigenvalues --   -0.35583  -0.34009  -0.32937  -0.27995
 Alpha virt. eigenvalues --    0.01999   0.04500   0.05775   0.07844   0.10187
 Alpha virt. eigenvalues --    0.13365   0.13645   0.14259   0.14792   0.16256
 Alpha virt. eigenvalues --    0.16891   0.17339   0.17745   0.18129   0.19027

 Mulliken charges:
               1
     1  C   -0.568492
     2  C    0.444407
     3  O   -0.504235
     4  C    0.275935
     5  C   -0.297452
     6  H    0.166184
     7  H    0.160300
     8  H    0.160145
     9  N   -0.258616
    10  H    0.295349
    11  H    0.270798
    12  Br  -0.170025
    13  C    0.200820
    14  C   -0.250180
    15  C   -0.177404
    16  C   -0.136166
    17  C   -0.145686
    18  C   -0.238911
    19  H    0.157493
    20  H    0.145262
    21  H    0.146668
    22  H    0.145244
    23  H    0.151282
    24  H    0.153180
    25  O   -0.314571
    26  C   -0.188971
    27  H    0.134527
    28  H    0.121884
    29  H    0.121231
 Sum of Mulliken charges =  -0.00000

 Dipole moment (field-independent basis, Debye):
    X=             -3.3280    Y=             -2.5131    Z=              6.3956  Tot=              7.6351
 Quadrupole moment (field-independent basis, Debye-Ang):
   XX=            -98.4134   YY=            -98.8352   ZZ=            -86.3900
   XY=             -5.2203   XZ=             -0.1765   YZ=             -6.8859

  Exact polarizability: 242.794   1.873 257.037  10.155   6.549 211.760
 Approx polarizability: 186.920  -1.397 204.972  10.827   8.919 181.182

 ******    1 imaginary frequencies (negative Signs) ******

                      1                      2                      3
                      A                      A                      A
 Frequencies --   -353.1713                31.4994                48.9728
 Red. masses --      5.3964                 4.7801                 4.3253
 Frc consts  --      0.3966                 0.0028                 0.0061
 IR Inten    --    653.3408                 1.8892                 2.5394

                      4                      5                      6
                      A                      A                      A
 Frequencies --     57.1801                74.5913                84.1050
 Red. masses --      4.6514                 2.3654                 4.5887
 Frc consts  --      0.0090                 0.0078                 0.0191
 IR Inten    --      8.0886                 0.6233                 0.7196

                      7                      8                      9
                      A                      A                      A
 Frequencies --    125.5329               137.8274               155.5607
 Red. masses --      2.6253                 3.6255                 2.1182
 Frc consts  --      0.0244                 0.0406                 0.0302
 IR Inten    --      5.8004                 3.2273                 1.1357

                     10                     11                     12
                      A                      A                      A
 Frequencies --    167.5710               171.3588               214.4528
 Red. masses --      1.2869                 2.3223                 5.4212
 Frc consts  --      0.0213                 0.0402                 0.1469
 IR Inten    --      0.0871                 3.3133                 3.5611

                     13                     14                     15
                      A                      A                      A
 Frequencies --    250.7476               259.3618               271.4684
 Red. masses --      2.5050                 6.8556                 4.2869
 Frc consts  --      0.0928                 0.2717                 0.1861
 IR Inten    --      4.1124                28.1153                19.5869

                     16                     17                     18
                      A                      A                      A
 Frequencies --    304.8541               326.4125               358.7676
 Red. masses --      3.9402                 3.5665                 4.9437
 Frc consts  --      0.2157                 0.2239                 0.3749
 IR Inten    --      6.8485                42.9264                45.3217

                     19                     20                     21
                      A                      A                      A
 Frequencies --    425.2013               466.4748               581.0104
 Red. masses --      2.9497                 4.1853                 4.1720
 Frc consts  --      0.3142                 0.5366                 0.8298
 IR Inten    --      0.7070                28.7938               155.2261

                     22                     23                     24
                      A                      A                      A
 Frequencies --    582.6956               623.4699               639.8505
 Red. masses --      4.8577                 2.7123                 5.1289
 Frc consts  --      0.9718                 0.6212                 1.2372
 IR Inten    --     44.9411                64.7821                 2.2332

                     25                     26                     27
                      A                      A                      A
 Frequencies --    722.8313               732.4127               737.5978
 Red. masses --      1.9708                 2.7808                 1.4065
 Frc consts  --      0.6067                 0.8789                 0.4508
 IR Inten    --     75.0693                23.9057                33.1366

                     28                     29                     30
                      A                      A                      A
 Frequencies --    760.5834               800.9056               801.3527
 Red. masses --      2.4807                 2.6488                 3.9313
 Frc consts  --      0.8455                 1.0011                 1.4874
 IR Inten    --     91.5989                43.9170               120.6842

                     31                     32                     33
                      A                      A                      A
 Frequencies --    830.4790               874.0330               960.5129
 Red. masses --      3.5630                 1.2449                 1.4666
 Frc consts  --      1.4478                 0.5603                 0.7972
 IR Inten    --    330.5072                 1.5326                 2.3325

                     34                     35                     36
                      A                      A                      A
 Frequencies --    981.7323              1009.5658              1017.3367
 Red. masses --      3.8312                 1.3830                 1.1937
 Frc consts  --      2.1755                 0.8305                 0.7279
 IR Inten    --     70.7981                 5.2980                25.0203

                     37                     38                     39
                      A                      A                      A
 Frequencies --   1026.7434              1030.4228              1050.5952
 Red. masses --      4.4983                 1.3635                 1.2769
 Frc consts  --      2.7940                 0.8530                 0.8304
 IR Inten    --      1.5556                 1.4362               181.0981

                     40                     41                     42
                      A                      A                      A
 Frequencies --   1061.2789              1075.2507              1095.3725
 Red. masses --      4.1619                 2.7379                 3.4736
 Frc consts  --      2.7618                 1.8650                 2.4556
 IR Inten    --    137.0766                19.7322                57.7756

                     43                     44                     45
                      A                      A                      A
 Frequencies --   1131.5273              1171.5898              1180.5387
 Red. masses --      1.5800                 2.0162                 1.2847
 Frc consts  --      1.1919                 1.6306                 1.0549
 IR Inten    --      9.5560               512.7655                 1.5382

                     46                     47                     48
                      A                      A                      A
 Frequencies --   1188.0217              1199.1534              1215.7047
 Red. masses --      1.1317                 5.7062                 1.5693
 Frc consts  --      0.9411                 4.8344                 1.3665
 IR Inten    --      0.0846               462.2620                50.6443

                     49                     50                     51
                      A                      A                      A
 Frequencies --   1226.1643              1249.6863              1321.4197
 Red. masses --      1.1577                 1.3496                 4.7251
 Frc consts  --      1.0255                 1.2418                 4.8612
 IR Inten    --     10.5641                37.0827                 7.4513

                     52                     53                     54
                      A                      A                      A
 Frequencies --   1339.8806              1373.6311              1374.5918
 Red. masses --      1.3329                 1.7195                 1.6527
 Frc consts  --      1.4098                 1.9116                 1.8399
 IR Inten    --      3.6415                 9.4679                16.2285

                     55                     56                     57
                      A                      A                      A
 Frequencies --   1447.7604              1464.7833              1480.2979
 Red. masses --      1.3310                 1.5385                 1.0751
 Frc consts  --      1.6437                 1.9449                 1.3881
 IR Inten    --    282.1361               320.2404                55.7540

                     58                     59                     60
                      A                      A                      A
 Frequencies --   1483.5206              1491.8762              1495.1666
 Red. masses --      1.4243                 1.8635                 1.0346
 Frc consts  --      1.8469                 2.4437                 1.3628
 IR Inten    --    407.5493               170.4323                 6.1018

                     61                     62                     63
                      A                      A                      A
 Frequencies --   1496.9559              1501.6838              1548.9410
 Red. masses --      1.0417                 1.3393                 2.3047
 Frc consts  --      1.3753                 1.7794                 3.2579
 IR Inten    --     20.0032               230.7298                34.6766

                     64                     65                     66
                      A                      A                      A
 Frequencies --   1634.4835              1653.2287              1676.4073
 Red. masses --      1.0981                 5.3753                 5.8159
 Frc consts  --      1.7284                 8.6560                 9.6300
 IR Inten    --     67.3186                 4.9937                 0.4836

                     67                     68                     69
                      A                      A                      A
 Frequencies --   1707.8766              3054.6515              3078.2919
 Red. masses --     10.9191                 1.0313                 1.0324
 Frc consts  --     18.7651                 5.6699                 5.7639
 IR Inten    --    841.6266                70.8126                25.5340

                     70                     71                     72
                      A                      A                      A
 Frequencies --   3126.2945              3162.6520              3163.8274
 Red. masses --      1.1063                 1.1054                 1.1044
 Frc consts  --      6.3707                 6.5146                 6.5134
 IR Inten    --     46.2149                 3.2774                31.3413

                     73                     74                     75
                      A                      A                      A
 Frequencies --   3174.9506              3198.8610              3206.3019
 Red. masses --      1.1060                 1.0860                 1.0889
 Frc consts  --      6.5688                 6.5473                 6.5957
 IR Inten    --      7.7772                 1.4433                 5.6516

                     76                     77                     78
                      A                      A                      A
 Frequencies --   3214.9618              3224.0116              3226.3537
 Red. masses --      1.0932                 1.0968                 1.0877
 Frc consts  --      6.6574                 6.7168                 6.6707
 IR Inten    --     32.2506                18.9990                 2.2464

                     79                     80                     81
                      A                      A                      A
 Frequencies --   3233.0952              3517.5224              3600.0800
 Red. masses --      1.0947                 1.0512                 1.0960
 Frc consts  --      6.7416                 7.6632                 8.3688
 IR Inten    --      4.3179                56.9238                61.0519

 - Thermochemistry -
 -------------------
 Temperature   298.150 Kelvin.  Pressure   1.00000 Atm.
 Atom     1 has atomic number  6 and mass  12.00000

 Molecular mass:   271.02079 amu.
 Principal axes and moments of inertia in atomic units:
                           1         2         3
     Eigenvalues --  4056.636024391.154326558.06363
           X            0.93414  -0.35667  -0.01324
           Y            0.35564   0.93329  -0.04992
           Z            0.03016   0.04192   0.99867
 This molecule is an asymmetric top.
 Rotational symmetry number  1.
 Warning -- assumption of classical behavior for rotation
           may cause significant error
 Rotational temperatures (Kelvin)      0.02135     0.01972     0.01321
 Rotational constants (GHZ):           0.44489     0.41099     0.27519
    1 imaginary frequencies ignored.
 Zero-point vibrational energy     617062.1 (Joules/Mol)
                                  147.48137 (Kcal/Mol)
 Warning -- explicit consideration of  21 degrees of freedom as
           vibrations may cause significant error
 Vibrational temperatures:     45.32    70.46    82.27   107.32   121.01
          (Kelvin)            180.61   198.30   223.82   241.10   246.55
                              308.55   360.77   373.16   390.58   438.62
                              469.63   516.19   611.77   671.15   835.94
                              838.37   897.03   920.60  1039.99  1053.78
                             1061.24  1094.31  1152.32  1152.97  1194.87
                             1257.54  1381.96  1412.49  1452.54  1463.72
                             1477.25  1482.55  1511.57  1526.94  1547.05
                             1576.00  1628.02  1685.66  1698.53  1709.30
                             1725.31  1749.13  1764.18  1798.02  1901.23
                             1927.79  1976.35  1977.73  2083.00  2107.50
                             2129.82  2134.46  2146.48  2151.21  2153.79
                             2160.59  2228.58  2351.66  2378.63  2411.98
                             2457.25  4394.96  4428.98  4498.04  4550.35
                             4552.04  4568.05  4602.45  4613.15  4625.61
                             4638.63  4642.00  4651.70  5060.93  5179.71

 Zero-point correction=                           0.235027 (Hartree/Particle)
 Thermal correction to Energy=                    0.250657
 Thermal correction to Enthalpy=                  0.251601
 Thermal correction to Gibbs Free Energy=         0.190081
 Sum of electronic and zero-point Energies=          -3206.768932
 Sum of electronic and thermal Energies=             -3206.753302
 Sum of electronic and thermal Enthalpies=           -3206.752358
 Sum of electronic and thermal Free Energies=        -3206.813878

                     E (Thermal)             CV                S
                      KCal/Mol        Cal/Mol-Kelvin    Cal/Mol-Kelvin
 Total                  157.290             56.004            129.480
 Electronic               0.000              0.000              0.000
 Translational            0.889              2.981             42.690
 Rotational               0.889              2.981             33.124
 Vibrational            155.512             50.042             53.667
 Vibration     1          0.594              1.983              5.733
 Vibration     2          0.595              1.978              4.858
 Vibration     3          0.596              1.975              4.552
 Vibration     4          0.599              1.966              4.028
 Vibration     5          0.601              1.960              3.793
 Vibration     6          0.610              1.928              3.013
 Vibration     7          0.614              1.916              2.834
 Vibration     8          0.620              1.896              2.603
 Vibration     9          0.624              1.882              2.463
 Vibration    10          0.626              1.878              2.421
 Vibration    11          0.644              1.819              2.005
 Vibration    12          0.663              1.762              1.725
 Vibration    13          0.668              1.747              1.666
 Vibration    14          0.675              1.726              1.587
 Vibration    15          0.696              1.664              1.390
 Vibration    16          0.710              1.623              1.278
 Vibration    17          0.734              1.557              1.127
 Vibration    18          0.787              1.415              0.874
 Vibration    19          0.824              1.324              0.747
 Vibration    20          0.938              1.072              0.483
 Vibration    21          0.940              1.069              0.480

 Optimization completed.
    -- Stationary point found.
 Normal termination of Gaussian 16 at Fri Feb 19 23:41:00 2021.
