 Gaussian 16, Revision C.01,
 Gaussian 16:  ES64L-G16RevC.01  3-Jul-2019

 ----------------------------------------------------------------------
 # opt=(calcfc,ts,noeigen,maxcycles=100,maxstep=10) freq=noraman wb97xd
  scrf=(iefpcm,solvent=water) def2tzvp
 ----------------------------------------------------------------------

 ----------
 TS-608.out
 ----------
 Symbolic Z-matrix:
 Charge =  0 Multiplicity = 1

 SCF Done:  E(RwB97XD) =  -3554.55456854     A.U. after   15 cycles
 Optimization completed.
    -- Stationary point found.
 Normal termination of Gaussian 16 at Mon Jun  6 19:33:53 2022.

 ---------------------------------------------------------------------
 #N Geom=AllCheck Guess=TCheck SCRF=Check GenChk RwB97XD/def2TZVP Freq
 ---------------------------------------------------------------------

 Structure from the checkpoint file:  "/local/jobs/107536/Gau-1005006.chk"
 ----------
 TS-608.out
 ----------
 Charge =  0 Multiplicity = 1

                         Standard orientation:
 ---------------------------------------------------------------------
 Center     Atomic      Atomic             Coordinates (Angstroms)
 Number     Number       Type             X           Y           Z
 ---------------------------------------------------------------------
      1          6           0       -0.199238    0.077463    0.111825
      2          6           0       -0.722274   -1.171514    0.576193
      3          8           0       -0.054589   -2.006220    1.216464
      4          6           0        1.202593    0.256038    0.181765
      5          6           0        2.748220    0.266741    2.901801
      6          1           0        2.536194    0.305818    3.972223
      7          1           0        3.376396   -0.598286    2.704178
      8          1           0        3.281425    1.173862    2.617583
      9          7           0        1.511769    0.159910    2.133254
     10          1           0        1.066865   -0.753765    2.229625
     11          1           0        0.845858    0.871723    2.407651
     12         35           0        1.851099    2.054019   -0.147041
     13          6           0        2.169684   -0.753996   -0.361844
     14          6           0        1.718189   -1.703193   -1.275600
     15          6           0        2.592894   -2.619982   -1.835597
     16          6           0        3.938171   -2.596534   -1.501573
     17          6           0        4.404274   -1.635147   -0.616411
     18          6           0        3.529494   -0.716706   -0.061573
     19          1           0        0.674335   -1.716825   -1.555609
     20          1           0        2.219312   -3.350582   -2.541599
     21          1           0        4.622524   -3.311531   -1.940027
     22          1           0        5.455862   -1.590757   -0.363941
     23          1           0        3.919556    0.049191    0.592490
     24          6           0       -1.137936    1.196985   -0.173870
     25          6           0       -1.227688    1.758564   -1.447667
     26          6           0       -2.127488    2.775845   -1.719711
     27          6           0       -2.965573    3.251734   -0.719281
     28          6           0       -2.891940    2.702545    0.551895
     29          6           0       -1.984332    1.687160    0.819028
     30          1           0       -0.587785    1.380240   -2.235982
     31          1           0       -2.182077    3.193697   -2.717393
     32          1           0       -3.672865    4.043616   -0.931500
     33          1           0       -3.541004    3.065176    1.339352
     34          1           0       -1.935488    1.260388    1.814169
     35          6           0       -2.162293   -1.506609    0.307519
     36          6           0       -2.938607   -2.035109    1.333599
     37          6           0       -4.259567   -2.387700    1.105086
     38          6           0       -4.808767   -2.239833   -0.161508
     39          6           0       -4.032691   -1.734599   -1.195555
     40          6           0       -2.718682   -1.360929   -0.959222
     41          1           0       -2.501264   -2.160395    2.316233
     42          1           0       -4.861044   -2.781656    1.914666
     43          1           0       -5.838555   -2.520797   -0.343065
     44          1           0       -4.452604   -1.628608   -2.187907
     45          1           0       -2.118436   -0.958149   -1.765012
 ---------------------------------------------------------------------

 SCF Done:  E(RwB97XD) =  -3554.55456854     A.U. after    1 cycles

 The electronic state is 1-A.
 Alpha  occ. eigenvalues -- -483.13578 -62.68400 -56.47521 -56.47172 -56.47147
 Alpha  occ. eigenvalues --  -19.21564 -14.47560 -10.40894 -10.36168 -10.31636
 Alpha  occ. eigenvalues --  -10.31401 -10.29921 -10.29713 -10.29622 -10.29613
 Alpha  occ. eigenvalues --  -10.29516 -10.29390 -10.29291 -10.29204 -10.29175
 Alpha  occ. eigenvalues --  -10.29125 -10.29060 -10.29042 -10.28800 -10.28764
 Alpha  occ. eigenvalues --  -10.28712 -10.28589 -10.28509 -10.27519  -8.82487
 Alpha  occ. eigenvalues --   -6.64640  -6.63530  -6.63454  -2.75028  -2.74721
 Alpha  occ. eigenvalues --   -2.74663  -2.73764  -2.73763  -1.12266  -1.03209
 Alpha  occ. eigenvalues --   -0.98186  -0.96985  -0.96400  -0.93635  -0.88381
 Alpha  occ. eigenvalues --   -0.86370  -0.85848  -0.85490  -0.85194  -0.84786
 Alpha  occ. eigenvalues --   -0.82182  -0.78655  -0.75165  -0.72081  -0.71055
 Alpha  occ. eigenvalues --   -0.70541  -0.70050  -0.69139  -0.67212  -0.64024
 Alpha  occ. eigenvalues --   -0.63065  -0.61677  -0.61119  -0.58334  -0.56760
 Alpha  occ. eigenvalues --   -0.56544  -0.56050  -0.55762  -0.54727  -0.54313
 Alpha  occ. eigenvalues --   -0.53347  -0.53100  -0.52573  -0.52298  -0.51300
 Alpha  occ. eigenvalues --   -0.51068  -0.50608  -0.49697  -0.49035  -0.48128
 Alpha  occ. eigenvalues --   -0.47587  -0.47123  -0.46316  -0.45167  -0.44466
 Alpha  occ. eigenvalues --   -0.44299  -0.44072  -0.42946  -0.42522  -0.42465
 Alpha  occ. eigenvalues --   -0.42282  -0.38621  -0.37224  -0.34900  -0.34607
 Alpha  occ. eigenvalues --   -0.34032  -0.33767  -0.33122  -0.33075  -0.31787
 Alpha  occ. eigenvalues --   -0.27805
 Alpha virt. eigenvalues --   -0.00248   0.02963   0.03967   0.05019   0.05056
 Alpha virt. eigenvalues --    0.05862   0.06547   0.08953   0.10582   0.12500
 Alpha virt. eigenvalues --    0.12680   0.13709   0.14447   0.14656   0.14883

 Mulliken charges:
               1
     1  C   -0.194188
     2  C    0.270023
     3  O   -0.529807
     4  C    0.196901
     5  C   -0.323582
     6  H    0.156353
     7  H    0.166763
     8  H    0.157307
     9  N   -0.325358
    10  H    0.276133
    11  H    0.276305
    12  Br  -0.066619
    13  C    0.146055
    14  C   -0.171416
    15  C   -0.162084
    16  C   -0.131856
    17  C   -0.150874
    18  C   -0.282419
    19  H    0.174671
    20  H    0.142486
    21  H    0.146507
    22  H    0.143976
    23  H    0.190362
    24  C    0.166212
    25  C   -0.272376
    26  C   -0.136575
    27  C   -0.133951
    28  C   -0.166350
    29  C   -0.240423
    30  H    0.149111
    31  H    0.138468
    32  H    0.142007
    33  H    0.137971
    34  H    0.142719
    35  C    0.150727
    36  C   -0.250187
    37  C   -0.151853
    38  C   -0.125801
    39  C   -0.156366
    40  C   -0.226654
    41  H    0.138188
    42  H    0.141624
    43  H    0.144793
    44  H    0.141097
    45  H    0.161981
 Sum of Mulliken charges =  -0.00000

 Dipole moment (field-independent basis, Debye):
    X=              2.1379    Y=              1.9836    Z=              2.2804  Tot=              3.7021
 Quadrupole moment (field-independent basis, Debye-Ang):
   XX=           -136.8454   YY=           -165.5835   ZZ=           -138.6125
   XY=             -3.8832   XZ=              7.1887   YZ=              8.0700

  Exact polarizability:     473.425      -4.562     382.207      16.714       0.581     379.066
 Approx polarizability:     354.010      -4.373     308.728      11.035      -1.926     325.833

 ******    1 imaginary frequencies (negative Signs) ******

                      1                      2                      3
                      A                      A                      A
 Frequencies --   -370.5715                24.3413                37.4592
 Red. masses --      6.5208                 5.9846                 5.4099
 Frc consts  --      0.5276                 0.0021                 0.0045
 IR Inten    --    771.9002                 0.0280                 1.2730

                      4                      5                      6
                      A                      A                      A
 Frequencies --     38.9919                45.9266                53.2814
 Red. masses --      4.2288                 4.3732                 3.9948
 Frc consts  --      0.0038                 0.0054                 0.0067
 IR Inten    --      2.5111                 0.9199                 1.4759

                      7                      8                      9
                      A                      A                      A
 Frequencies --     73.3268                74.6969                86.0098
 Red. masses --      4.0876                 3.8247                 4.8074
 Frc consts  --      0.0129                 0.0126                 0.0210
 IR Inten    --      1.2385                 0.5944                 0.6354

                     10                     11                     12
                      A                      A                      A
 Frequencies --    102.8451               141.2290               152.8691
 Red. masses --      5.6940                 4.2678                 7.5439
 Frc consts  --      0.0355                 0.0502                 0.1039
 IR Inten    --      0.2259                 9.4180                14.5157

                     13                     14                     15
                      A                      A                      A
 Frequencies --    171.9811               183.7060               192.5060
 Red. masses --      3.2488                 3.9748                 6.0112
 Frc consts  --      0.0566                 0.0790                 0.1313
 IR Inten    --      2.6023                 7.7762                 2.5028

                     16                     17                     18
                      A                      A                      A
 Frequencies --    211.0672               240.2588               254.6615
 Red. masses --      3.0167                 4.6331                 5.3394
 Frc consts  --      0.0792                 0.1576                 0.2040
 IR Inten    --      2.5752                 1.1575                 3.7298

                     19                     20                     21
                      A                      A                      A
 Frequencies --    262.7947               270.7855               284.5905
 Red. masses --      1.6570                 3.9329                 3.6374
 Frc consts  --      0.0674                 0.1699                 0.1736
 IR Inten    --      5.9567                 6.4896                 2.9080

                     22                     23                     24
                      A                      A                      A
 Frequencies --    315.7326               359.1269               403.1079
 Red. masses --      3.3538                 8.1807                 5.3620
 Frc consts  --      0.1970                 0.6216                 0.5134
 IR Inten    --     24.5050                28.8049                57.7747

                     25                     26                     27
                      A                      A                      A
 Frequencies --    411.4752               421.2538               427.5026
 Red. masses --      4.3827                 3.0118                 2.9205
 Frc consts  --      0.4372                 0.3149                 0.3145
 IR Inten    --      8.1235                 1.8952                 0.6403

                     28                     29                     30
                      A                      A                      A
 Frequencies --    433.4056               507.7523               529.1842
 Red. masses --      2.9989                 4.8491                 3.6464
 Frc consts  --      0.3319                 0.7366                 0.6016
 IR Inten    --      0.8744                14.6326                38.9954

                     31                     32                     33
                      A                      A                      A
 Frequencies --    543.0712               576.4514               622.5400
 Red. masses --      4.5866                 5.4831                 3.3673
 Frc consts  --      0.7970                 1.0735                 0.7689
 IR Inten    --     15.9389               135.3677                 3.4459

                     34                     35                     36
                      A                      A                      A
 Frequencies --    634.3010               635.6234               641.6599
 Red. masses --      5.7758                 6.0368                 5.3328
 Frc consts  --      1.3692                 1.4370                 1.2936
 IR Inten    --     34.7757                12.5202                 7.8801

                     37                     38                     39
                      A                      A                      A
 Frequencies --    645.5309               678.5833               700.5389
 Red. masses --      5.1899                 2.5928                 2.9866
 Frc consts  --      1.2742                 0.7034                 0.8636
 IR Inten    --     90.6277                26.3859                17.8098

                     40                     41                     42
                      A                      A                      A
 Frequencies --    724.0766               729.0346               730.4478
 Red. masses --      1.7375                 1.5398                 1.7524
 Frc consts  --      0.5367                 0.4822                 0.5509
 IR Inten    --     84.9251                94.9533                71.0215

                     43                     44                     45
                      A                      A                      A
 Frequencies --    741.4469               767.1057               788.3466
 Red. masses --      3.6415                 3.3290                 1.9909
 Frc consts  --      1.1795                 1.1542                 0.7290
 IR Inten    --     24.9304               148.1495                45.0047

                     46                     47                     48
                      A                      A                      A
 Frequencies --    806.4743               834.1060               879.3562
 Red. masses --      2.3551                 3.3885                 1.3118
 Frc consts  --      0.9025                 1.3890                 0.5977
 IR Inten    --     11.2787                56.6987                 6.3254

                     49                     50                     51
                      A                      A                      A
 Frequencies --    880.2449               884.9125               885.6228
 Red. masses --      1.2474                 1.2384                 3.7604
 Frc consts  --      0.5695                 0.5713                 1.7377
 IR Inten    --      0.6992                 0.9073               104.9752

                     52                     53                     54
                      A                      A                      A
 Frequencies --    957.5530               963.8404               969.4960
 Red. masses --      1.6934                 1.7336                 1.8809
 Frc consts  --      0.9148                 0.9489                 1.0416
 IR Inten    --      8.6443                 0.4491                20.9136

                     55                     56                     57
                      A                      A                      A
 Frequencies --    984.0392              1014.3722              1015.2341
 Red. masses --      1.7648                 1.3738                 1.3762
 Frc consts  --      1.0068                 0.8329                 0.8357
 IR Inten    --      6.9840                 0.8853                 1.8619

                     58                     59                     60
                      A                      A                      A
 Frequencies --   1025.0533              1026.3153              1026.7122
 Red. masses --      1.6901                 6.0549                 5.7895
 Frc consts  --      1.0463                 3.7577                 3.5958
 IR Inten    --      0.6698                 0.7716                 2.7076

                     61                     62                     63
                      A                      A                      A
 Frequencies --   1027.7575              1028.8083              1030.3025
 Red. masses --      1.3136                 2.9118                 1.3308
 Frc consts  --      0.8175                 1.8159                 0.8323
 IR Inten    --      0.2526                 1.0326                 0.7811

                     64                     65                     66
                      A                      A                      A
 Frequencies --   1036.7952              1049.6817              1054.0194
 Red. masses --      1.3312                 1.5365                 2.3086
 Frc consts  --      0.8431                 0.9975                 1.5111
 IR Inten    --      0.9846                59.6543                35.8725

                     67                     68                     69
                      A                      A                      A
 Frequencies --   1061.1282              1065.5281              1067.2471
 Red. masses --      1.8268                 1.8982                 2.0595
 Frc consts  --      1.2119                 1.2697                 1.3821
 IR Inten    --     19.1299                14.0510                 7.5292

                     70                     71                     72
                      A                      A                      A
 Frequencies --   1087.9250              1109.0083              1110.5679
 Red. masses --      1.9223                 1.7951                 1.5606
 Frc consts  --      1.3405                 1.3008                 1.1340
 IR Inten    --    216.3321                30.3078                29.7102

                     73                     74                     75
                      A                      A                      A
 Frequencies --   1114.1366              1129.6956              1181.3438
 Red. masses --      1.8489                 1.7612                 1.1345
 Frc consts  --      1.3522                 1.3243                 0.9329
 IR Inten    --     28.6748                 0.6569                 1.8697

                     76                     77                     78
                      A                      A                      A
 Frequencies --   1183.3161              1186.0493              1197.2264
 Red. masses --      1.1394                 1.1277                 2.2973
 Frc consts  --      0.9400                 0.9347                 1.9400
 IR Inten    --      1.6706                 0.2389               167.9271

                     79                     80                     81
                      A                      A                      A
 Frequencies --   1204.8867              1208.8958              1212.4331
 Red. masses --      1.1457                 1.1489                 1.6642
 Frc consts  --      0.9800                 0.9893                 1.4413
 IR Inten    --     25.4965                 5.1260                63.1896

                     82                     83                     84
                      A                      A                      A
 Frequencies --   1218.2664              1267.5267              1308.4495
 Red. masses --      1.1904                 3.8503                 4.6034
 Frc consts  --      1.0410                 3.6447                 4.6435
 IR Inten    --     20.1177                12.6119                28.4038

                     85                     86                     87
                      A                      A                      A
 Frequencies --   1323.3351              1326.0871              1346.3004
 Red. masses --      3.9772                 4.6794                 2.9296
 Frc consts  --      4.1037                 4.8482                 3.1286
 IR Inten    --    184.4012                 9.4178               626.8089

                     88                     89                     90
                      A                      A                      A
 Frequencies --   1357.3998              1360.4580              1363.0364
 Red. masses --      1.4335                 1.3841                 1.4997
 Frc consts  --      1.5562                 1.5094                 1.6416
 IR Inten    --      9.0587                 6.4310                78.1704

                     91                     92                     93
                      A                      A                      A
 Frequencies --   1366.4340              1388.8162              1456.6241
 Red. masses --      1.8413                 5.3534                 1.1916
 Frc consts  --      2.0256                 6.0838                 1.4896
 IR Inten    --    578.2227               125.8264                 9.4947

                     94                     95                     96
                      A                      A                      A
 Frequencies --   1487.3604              1490.3913              1492.4427
 Red. masses --      2.2246                 2.2536                 2.2522
 Frc consts  --      2.8996                 2.9494                 2.9556
 IR Inten    --     12.0058                 6.6996                62.6377

                     97                     98                     99
                      A                      A                      A
 Frequencies --   1499.5812              1503.1727              1540.7093
 Red. masses --      1.0418                 1.0363                 2.3229
 Frc consts  --      1.3803                 1.3796                 3.2489
 IR Inten    --     19.3520                18.6304                 2.3905

                    100                    101                    102
                      A                      A                      A
 Frequencies --   1542.0041              1544.4851              1600.7224
 Red. masses --      2.2366                 2.4412                 9.8876
 Frc consts  --      3.1333                 3.4311                14.9270
 IR Inten    --     19.2856                27.7042               599.0494

                    103                    104                    105
                      A                      A                      A
 Frequencies --   1644.9319              1651.8294              1654.5797
 Red. masses --      5.6729                 5.7795                 5.8920
 Frc consts  --      9.0438                 9.2912                 9.5036
 IR Inten    --      7.1019                 3.7314                30.3464

                    106                    107                    108
                      A                      A                      A
 Frequencies --   1660.0632              1672.1929              1672.7217
 Red. masses --      1.1019                 5.8471                 5.8213
 Frc consts  --      1.7891                 9.6331                 9.5966
 IR Inten    --     64.2561                 5.4832                 1.5765

                    109                    110                    111
                      A                      A                      A
 Frequencies --   1673.9885              3057.2598              3129.1544
 Red. masses --      5.8801                 1.0364                 1.1025
 Frc consts  --      9.7082                 5.7075                 6.3601
 IR Inten    --      5.5810                61.0352                18.7105

                    112                    113                    114
                      A                      A                      A
 Frequencies --   3169.7347              3187.3135              3190.1381
 Red. masses --      1.1042                 1.0864                 1.0881
 Frc consts  --      6.5366                 6.5027                 6.5244
 IR Inten    --     15.1892                 9.9305                 2.0067

                    115                    116                    117
                      A                      A                      A
 Frequencies --   3194.0053              3199.6665              3200.1268
 Red. masses --      1.0857                 1.0864                 1.0910
 Frc consts  --      6.5259                 6.5533                 6.5830
 IR Inten    --      0.8235                 0.0133                12.2860

                    118                    119                    120
                      A                      A                      A
 Frequencies --   3201.2465              3207.7933              3209.0362
 Red. masses --      1.0882                 1.0950                 1.0917
 Frc consts  --      6.5704                 6.6385                 6.6237
 IR Inten    --      1.4075                44.5077                16.0520

                    121                    122                    123
                      A                      A                      A
 Frequencies --   3209.6038              3215.5236              3219.3398
 Red. masses --      1.0905                 1.0950                 1.0988
 Frc consts  --      6.6191                 6.6707                 6.7096
 IR Inten    --     11.5391                36.4328                21.9741

                    124                    125                    126
                      A                      A                      A
 Frequencies --   3220.6771              3222.6325              3233.0569
 Red. masses --      1.0953                 1.0988                 1.0940
 Frc consts  --      6.6940                 6.7231                 6.7375
 IR Inten    --     25.5492                17.7164                12.7346

                    127                    128                    129
                      A                      A                      A
 Frequencies --   3245.0773              3416.8001              3582.8675
 Red. masses --      1.0923                 1.0645                 1.0855
 Frc consts  --      6.7772                 7.3224                 8.2100
 IR Inten    --      4.1504               125.7373                52.0532

 - Thermochemistry -
 -------------------
 Temperature   298.150 Kelvin.  Pressure   1.00000 Atm.
 Atom     1 has atomic number  6 and mass  12.00000

 Molecular mass:   393.07283 amu.
 Principal axes and moments of inertia in atomic units:
                           1         2         3
     Eigenvalues --  6891.30573********************
           X            0.99898  -0.04417   0.00981
           Y            0.04406   0.99897   0.01083
           Z           -0.01027  -0.01039   0.99989
 This molecule is an asymmetric top.
 Rotational symmetry number  1.
 Warning -- assumption of classical behavior for rotation
           may cause significant error
 Rotational temperatures (Kelvin)      0.01257     0.00761     0.00595
 Rotational constants (GHZ):           0.26189     0.15848     0.12403
    1 imaginary frequencies ignored.
 Zero-point vibrational energy     958781.1 (Joules/Mol)
                                  229.15417 (Kcal/Mol)
 Warning -- explicit consideration of  31 degrees of freedom as
           vibrations may cause significant error
 Vibrational temperatures:     35.02    53.90    56.10    66.08    76.66
          (Kelvin)            105.50   107.47   123.75   147.97   203.20
                              219.94   247.44   264.31   276.97   303.68
                              345.68   366.40   378.10   389.60   409.46
                              454.27   516.70   579.98   592.02   606.09
                              615.08   623.57   730.54   761.38   781.36
                              829.38   895.70   912.62   914.52   923.21
                              928.77   976.33  1007.92  1041.78  1048.92
                             1050.95  1066.78  1103.69  1134.25  1160.34
                             1200.09  1265.20  1266.48  1273.19  1274.21
                             1377.71  1386.75  1394.89  1415.81  1459.46
                             1460.70  1474.82  1476.64  1477.21  1478.71
                             1480.23  1482.38  1491.72  1510.26  1516.50
                             1526.73  1533.06  1535.53  1565.28  1595.62
                             1597.86  1602.99  1625.38  1699.69  1702.53
                             1706.46  1722.54  1733.56  1739.33  1744.42
                             1752.81  1823.69  1882.57  1903.98  1907.94
                             1937.03  1953.00  1957.40  1961.11  1965.99
                             1998.20  2095.76  2139.98  2144.34  2147.29
                             2157.56  2162.73  2216.74  2218.60  2222.17
                             2303.08  2366.69  2376.61  2380.57  2388.46
                             2405.91  2406.67  2408.50  4398.72  4502.16
                             4560.54  4585.83  4589.90  4595.46  4603.61
                             4604.27  4605.88  4615.30  4617.09  4617.90
                             4626.42  4631.91  4633.84  4636.65  4651.65
                             4668.94  4916.01  5154.95

 Zero-point correction=                           0.365180 (Hartree/Particle)
 Thermal correction to Energy=                    0.387223
 Thermal correction to Enthalpy=                  0.388167
 Thermal correction to Gibbs Free Energy=         0.311886
 Sum of electronic and zero-point Energies=          -3554.189388
 Sum of electronic and thermal Energies=             -3554.167345
 Sum of electronic and thermal Enthalpies=           -3554.166401
 Sum of electronic and thermal Free Energies=        -3554.242682

                     E (Thermal)             CV                S
                      KCal/Mol        Cal/Mol-Kelvin    Cal/Mol-Kelvin
 Total                  242.986             84.601            160.547
 Electronic               0.000              0.000              0.000
 Translational            0.889              2.981             43.798
 Rotational               0.889              2.981             35.389
 Vibrational            241.209             78.640             81.359
 Vibration     1          0.593              1.985              6.244
 Vibration     2          0.594              1.982              5.389
 Vibration     3          0.594              1.981              5.310
 Vibration     4          0.595              1.979              4.986
 Vibration     5          0.596              1.976              4.692
 Vibration     6          0.599              1.967              4.062
 Vibration     7          0.599              1.966              4.026
 Vibration     8          0.601              1.959              3.749
 Vibration     9          0.605              1.947              3.400
 Vibration    10          0.615              1.912              2.787
 Vibration    11          0.619              1.899              2.636
 Vibration    12          0.626              1.877              2.414
 Vibration    13          0.631              1.862              2.290
 Vibration    14          0.634              1.850              2.204
 Vibration    15          0.643              1.824              2.034
 Vibration    16          0.657              1.779              1.801
 Vibration    17          0.665              1.755              1.698
 Vibration    18          0.670              1.741              1.643
 Vibration    19          0.674              1.727              1.591
 Vibration    20          0.683              1.702              1.506
 Vibration    21          0.703              1.644              1.332
 Vibration    22          0.734              1.556              1.126
 Vibration    23          0.769              1.463              0.951
 Vibration    24          0.775              1.445              0.921
 Vibration    25          0.784              1.424              0.888
 Vibration    26          0.789              1.410              0.867
 Vibration    27          0.794              1.397              0.848
 Vibration    28          0.863              1.233              0.639
 Vibration    29          0.884              1.185              0.589
 Vibration    30          0.898              1.155              0.559
 Vibration    31          0.933              1.082              0.492

 Optimization completed.
    -- Stationary point found.
 Normal termination of Gaussian 16 at Mon Jun  6 22:41:10 2022.
