 Gaussian 16, Revision A.03,
 Gaussian 16:  ES64L-G16RevA.03 25-Dec-2016

 ----------------------------------------------------------------------
 # wB97XD def2tzvp, opt=(ts, noeigen, calcfc, maxcycles=70, maxstep=8),
  freq=noraman, scrf=(iefpcm, solvent=water)
 ----------------------------------------------------------------------

 -----------------------
 1_iteration/TS-61-1.out
 -----------------------
 Symbolic Z-matrix:
 Charge =  0 Multiplicity = 1

 SCF Done:  E(RwB97XD) =  -652.839669425     A.U. after   14 cycles
 SCF Done:  E(RwB97XD) =  -652.840523569     A.U. after   13 cycles
 SCF Done:  E(RwB97XD) =  -652.841263461     A.U. after   12 cycles
 SCF Done:  E(RwB97XD) =  -652.841632172     A.U. after   12 cycles
 SCF Done:  E(RwB97XD) =  -652.841634877     A.U. after   12 cycles
 SCF Done:  E(RwB97XD) =  -652.841717931     A.U. after   11 cycles
 SCF Done:  E(RwB97XD) =  -652.841500266     A.U. after   12 cycles
 SCF Done:  E(RwB97XD) =  -652.841702802     A.U. after   12 cycles
 SCF Done:  E(RwB97XD) =  -652.841638860     A.U. after   12 cycles
 SCF Done:  E(RwB97XD) =  -652.841717544     A.U. after   11 cycles
 SCF Done:  E(RwB97XD) =  -652.841730913     A.U. after   11 cycles
 SCF Done:  E(RwB97XD) =  -652.841718123     A.U. after   11 cycles
 SCF Done:  E(RwB97XD) =  -652.841738360     A.U. after   10 cycles
 SCF Done:  E(RwB97XD) =  -652.841740470     A.U. after    9 cycles
 SCF Done:  E(RwB97XD) =  -652.841738328     A.U. after   10 cycles
 SCF Done:  E(RwB97XD) =  -652.841740675     A.U. after   10 cycles
 Optimization completed.
    -- Stationary point found.
 Normal termination of Gaussian 16 at Sun Jan 31 07:55:34 2021.

 ---------------------------------------------------------------------
 #N Geom=AllCheck Guess=TCheck SCRF=Check GenChk RwB97XD/def2TZVP Freq
 ---------------------------------------------------------------------

 Structure from the checkpoint file:  "/beegfs/scratch/user/q/tla25/Gau-6667.chk"
 -----------------------
 1_iteration/TS-61-1.out
 -----------------------
 Charge =  0 Multiplicity = 1

                         Standard orientation:
 ---------------------------------------------------------------------
 Center     Atomic      Atomic             Coordinates (Angstroms)
 Number     Number       Type             X           Y           Z
 ---------------------------------------------------------------------
      1          6           0       -0.892802    0.098079   -0.739796
      2          6           0       -2.243039   -0.344554   -0.614628
      3          8           0       -3.077016   -0.290550   -1.545091
      4          6           0       -0.015676    0.190185    0.386384
      5          6           0       -1.358727    2.242074    1.431253
      6          1           0       -1.996693    2.089600    0.562483
      7          1           0       -1.731534    1.643846    2.258701
      8          1           0       -1.345406    3.294473    1.706687
      9          7           0       -0.010960    1.784933    1.082396
     10          1           0        0.403610    2.409170    0.398422
     11          1           0        0.602735    1.781242    1.891667
     12          6           0        1.451388   -0.098446    0.212708
     13          6           0        2.307080    0.702862   -0.539943
     14          6           0        3.644983    0.367227   -0.689049
     15          6           0        4.149989   -0.777658   -0.091507
     16          6           0        3.308257   -1.581872    0.663821
     17          6           0        1.974114   -1.239403    0.817753
     18          1           0        1.938304    1.597948   -1.025187
     19          1           0        4.293219    1.003949   -1.277764
     20          1           0        5.193649   -1.039507   -0.210103
     21          1           0        3.692086   -2.475002    1.140592
     22          1           0        1.324679   -1.870017    1.414115
     23          1           0       -0.367969   -0.333492    1.269828
     24          6           0       -0.459340    0.639372   -2.077086
     25          1           0       -0.312449    1.729253   -2.085417
     26          1           0        0.479246    0.198814   -2.428401
     27          1           0       -1.227761    0.421510   -2.816818
     28          7           0       -2.689363   -0.860625    0.604892
     29          6           0       -3.956920   -1.554326    0.656669
     30          1           0       -1.987947   -1.260258    1.201688
     31          1           0       -4.765215   -0.892191    0.349859
     32          1           0       -3.990299   -2.441972    0.014379
     33          1           0       -4.139713   -1.864362    1.685516
 ---------------------------------------------------------------------

 SCF Done:  E(RwB97XD) =  -652.841740675     A.U. after    1 cycles

 The electronic state is 1-A.
 Alpha  occ. eigenvalues --  -19.17458 -14.51108 -14.42266 -10.34842 -10.33992
 Alpha  occ. eigenvalues --  -10.32112 -10.30462 -10.29495 -10.29383 -10.29264
 Alpha  occ. eigenvalues --  -10.29249 -10.29184 -10.29058 -10.25590 -10.23594
 Alpha  occ. eigenvalues --   -1.09752  -1.06499  -0.98671  -0.97165  -0.90004
 Alpha  occ. eigenvalues --   -0.85468  -0.84705  -0.80196  -0.78688  -0.77210
 Alpha  occ. eigenvalues --   -0.70831  -0.70669  -0.67734  -0.65297  -0.63184
 Alpha  occ. eigenvalues --   -0.61414  -0.58553  -0.57294  -0.56372  -0.55005
 Alpha  occ. eigenvalues --   -0.54109  -0.52169  -0.51802  -0.51146  -0.49968
 Alpha  occ. eigenvalues --   -0.48797  -0.48728  -0.48297  -0.46719  -0.45889
 Alpha  occ. eigenvalues --   -0.45667  -0.44052  -0.43606  -0.43259  -0.42182
 Alpha  occ. eigenvalues --   -0.41694  -0.34048  -0.33775  -0.32622  -0.31038
 Alpha  occ. eigenvalues --   -0.23961
 Alpha virt. eigenvalues --    0.04291   0.05012   0.09063   0.10954   0.11918
 Alpha virt. eigenvalues --    0.13116   0.13478   0.15206   0.15284   0.15786
 Alpha virt. eigenvalues --    0.16838   0.17947   0.18372   0.18413   0.19168

 Mulliken charges:
               1
     1  C   -0.239999
     2  C    0.272684
     3  O   -0.599590
     4  C   -0.100073
     5  C   -0.300749
     6  H    0.166475
     7  H    0.154651
     8  H    0.166586
     9  N   -0.204895
    10  H    0.288520
    11  H    0.296076
    12  C    0.312838
    13  C   -0.329213
    14  C   -0.135513
    15  C   -0.165505
    16  C   -0.128910
    17  C   -0.259959
    18  H    0.167200
    19  H    0.144210
    20  H    0.144600
    21  H    0.143881
    22  H    0.142715
    23  H    0.135858
    24  C   -0.411450
    25  H    0.101067
    26  H    0.123751
    27  H    0.127082
    28  N   -0.341153
    29  C   -0.255362
    30  H    0.231865
    31  H    0.120159
    32  H    0.104944
    33  H    0.127208
 Sum of Mulliken charges =   0.00000

 Dipole moment (field-independent basis, Debye):
    X=              7.3669    Y=              4.7987    Z=              9.2499  Tot=             12.7616
 Quadrupole moment (field-independent basis, Debye-Ang):
   XX=           -105.8580   YY=            -75.2999   ZZ=            -93.7236
   XY=             -0.5130   XZ=            -17.1886   YZ=             -0.2944

  Exact polarizability: 281.571   7.402 205.324   2.614 -15.417 196.586
 Approx polarizability: 207.906   2.941 171.430   2.382 -14.690 166.478

 ******    1 imaginary frequencies (negative Signs) ******

                      1                      2                      3
                      A                      A                      A
 Frequencies --   -293.2996                41.7665                54.0685
 Red. masses --      5.8326                 3.3566                 3.7018
 Frc consts  --      0.2956                 0.0034                 0.0064
 IR Inten    --    709.2267                11.7837                 1.7415

                      4                      5                      6
                      A                      A                      A
 Frequencies --     60.9271                88.1880                98.1858
 Red. masses --      3.2655                 2.3527                 3.8378
 Frc consts  --      0.0071                 0.0108                 0.0218
 IR Inten    --      3.2903                 5.3808                12.9408

                      7                      8                      9
                      A                      A                      A
 Frequencies --    123.1416               143.3464               166.1794
 Red. masses --      3.4464                 3.2478                 1.7664
 Frc consts  --      0.0308                 0.0393                 0.0287
 IR Inten    --     11.0686                 3.1467                15.3188

                     10                     11                     12
                      A                      A                      A
 Frequencies --    183.6926               187.9848               212.0534
 Red. masses --      1.2652                 1.1905                 1.5253
 Frc consts  --      0.0252                 0.0248                 0.0404
 IR Inten    --      1.2501                 4.3773                 3.7795

                     13                     14                     15
                      A                      A                      A
 Frequencies --    241.7718               274.6848               296.8256
 Red. masses --      1.9538                 3.7543                 3.0813
 Frc consts  --      0.0673                 0.1669                 0.1599
 IR Inten    --      8.7146                14.2524                35.9393

                     16                     17                     18
                      A                      A                      A
 Frequencies --    314.2370               332.8598               379.6999
 Red. masses --      3.0007                 4.6521                 3.1767
 Frc consts  --      0.1746                 0.3037                 0.2698
 IR Inten    --     12.5736                15.1695                56.6536

                     19                     20                     21
                      A                      A                      A
 Frequencies --    425.4645               450.9933               485.3870
 Red. masses --      2.8829                 1.7646                 4.1387
 Frc consts  --      0.3075                 0.2115                 0.5745
 IR Inten    --      2.3189                81.7092                53.5531

                     22                     23                     24
                      A                      A                      A
 Frequencies --    497.4438               570.4013               632.3920
 Red. masses --      3.2180                 2.8560                 4.7043
 Frc consts  --      0.4692                 0.5475                 1.1085
 IR Inten    --     24.5864               231.0564                31.2649

                     25                     26                     27
                      A                      A                      A
 Frequencies --    639.6603               674.1323               730.0624
 Red. masses --      6.2285                 2.2136                 1.5805
 Frc consts  --      1.5015                 0.5927                 0.4963
 IR Inten    --      5.4515                20.8885                87.0986

                     28                     29                     30
                      A                      A                      A
 Frequencies --    774.9548               794.2467               800.3832
 Red. masses --      4.9951                 2.9083                 2.0528
 Frc consts  --      1.7674                 1.0809                 0.7748
 IR Inten    --      8.2737                60.3164                18.0458

                     31                     32                     33
                      A                      A                      A
 Frequencies --    859.9680               879.4254               880.7182
 Red. masses --      2.4866                 1.5168                 2.1160
 Frc consts  --      1.0835                 0.6912                 0.9671
 IR Inten    --      2.0443                 5.4931                16.3961

                     34                     35                     36
                      A                      A                      A
 Frequencies --    958.3307               974.0580              1013.4074
 Red. masses --      1.4418                 2.0251                 1.3728
 Frc consts  --      0.7802                 1.1320                 0.8306
 IR Inten    --      6.5718                54.5820                 0.2511

                     37                     38                     39
                      A                      A                      A
 Frequencies --   1026.2282              1030.5944              1046.1431
 Red. masses --      5.9000                 1.3082                 1.3396
 Frc consts  --      3.6609                 0.8186                 0.8638
 IR Inten    --      0.2626                 0.1788                19.6710

                     40                     41                     42
                      A                      A                      A
 Frequencies --   1054.2405              1066.1051              1070.5656
 Red. masses --      2.1884                 2.0599                 1.4543
 Frc consts  --      1.4330                 1.3794                 0.9820
 IR Inten    --     94.6171                 7.7298                19.9104

                     43                     44                     45
                      A                      A                      A
 Frequencies --   1074.3698              1102.9762              1125.5764
 Red. masses --      1.8622                 1.7135                 1.5704
 Frc consts  --      1.2665                 1.2282                 1.1722
 IR Inten    --     50.3080                90.9109                29.0442

                     46                     47                     48
                      A                      A                      A
 Frequencies --   1136.7296              1160.1018              1184.9608
 Red. masses --      1.4096                 1.4641                 1.1471
 Frc consts  --      1.0732                 1.1609                 0.9490
 IR Inten    --     42.9853               139.0310                 1.3905

                     49                     50                     51
                      A                      A                      A
 Frequencies --   1195.4144              1216.9967              1219.4464
 Red. masses --      2.3254                 1.8242                 1.1357
 Frc consts  --      1.9579                 1.5918                 0.9951
 IR Inten    --     32.9686                12.2727                 0.5281

                     52                     53                     54
                      A                      A                      A
 Frequencies --   1266.9940              1288.1513              1313.5912
 Red. masses --      2.0076                 1.3964                 1.9713
 Frc consts  --      1.8988                 1.3652                 2.0041
 IR Inten    --    168.2549                53.3065               109.4227

                     55                     56                     57
                      A                      A                      A
 Frequencies --   1341.2097              1351.6156              1373.3813
 Red. masses --      2.9446                 1.4222                 1.5151
 Frc consts  --      3.1209                 1.5308                 1.6837
 IR Inten    --    193.3853                10.7084                24.2563

                     58                     59                     60
                      A                      A                      A
 Frequencies --   1381.5967              1403.7504              1433.1410
 Red. masses --      2.1280                 1.4407                 1.9541
 Frc consts  --      2.3933                 1.6727                 2.3646
 IR Inten    --    137.8306                 7.9450               186.0617

                     61                     62                     63
                      A                      A                      A
 Frequencies --   1449.8450              1460.3184              1476.7697
 Red. masses --      1.2091                 1.2309                 1.1198
 Frc consts  --      1.4974                 1.5466                 1.4389
 IR Inten    --     17.4591                 7.1716                60.9161

                     64                     65                     66
                      A                      A                      A
 Frequencies --   1491.1318              1492.4411              1497.9218
 Red. masses --      1.0502                 1.0561                 1.1175
 Frc consts  --      1.3758                 1.3860                 1.4774
 IR Inten    --     42.3973                 2.3745                 5.3596

                     67                     68                     69
                      A                      A                      A
 Frequencies --   1500.1501              1502.2670              1509.2254
 Red. masses --      1.6678                 1.0696                 1.2368
 Frc consts  --      2.2113                 1.4222                 1.6599
 IR Inten    --     68.7990                15.3025                42.3370

                     70                     71                     72
                      A                      A                      A
 Frequencies --   1529.5969              1548.3269              1602.5852
 Red. masses --      1.5358                 2.2916                 4.6604
 Frc consts  --      2.1171                 3.2368                 7.0520
 IR Inten    --    219.7508                 6.1096              1283.0446

                     73                     74                     75
                      A                      A                      A
 Frequencies --   1646.8003              1654.5528              1677.4791
 Red. masses --      1.0899                 5.4446                 5.7771
 Frc consts  --      1.7415                 8.7816                 9.5780
 IR Inten    --     58.7430                 6.6710                 2.9081

                     76                     77                     78
                      A                      A                      A
 Frequencies --   2973.7143              3015.9179              3046.9248
 Red. masses --      1.0595                 1.0512                 1.0816
 Frc consts  --      5.5201                 5.6335                 5.9160
 IR Inten    --    148.4857               135.4066                82.9187

                     79                     80                     81
                      A                      A                      A
 Frequencies --   3082.5198              3103.6836              3142.0068
 Red. masses --      1.0321                 1.0834                 1.0927
 Frc consts  --      5.7781                 6.1490                 6.3558
 IR Inten    --     27.4995                56.7403                17.1311

                     82                     83                     84
                      A                      A                      A
 Frequencies --   3145.1789              3157.5482              3170.3871
 Red. masses --      1.1038                 1.0864                 1.1058
 Frc consts  --      6.4330                 6.3819                 6.5487
 IR Inten    --     33.3487                22.5593                 2.4847

                     85                     86                     87
                      A                      A                      A
 Frequencies --   3182.7271              3188.7082              3196.5721
 Red. masses --      1.1069                 1.0879                 1.0869
 Frc consts  --      6.6065                 6.5172                 6.5432
 IR Inten    --     11.4244                 9.3822                 1.4129

                     88                     89                     90
                      A                      A                      A
 Frequencies --   3205.1584              3213.0675              3223.1172
 Red. masses --      1.0907                 1.0947                 1.0988
 Frc consts  --      6.6019                 6.6585                 6.7255
 IR Inten    --     12.3755                38.1545                15.8053

                     91                     92                     93
                      A                      A                      A
 Frequencies --   3514.2583              3590.0685              3666.8299
 Red. masses --      1.0516                 1.0949                 1.0754
 Frc consts  --      7.6518                 8.3145                 8.5196
 IR Inten    --     45.8281                47.6076                11.9504

 - Thermochemistry -
 -------------------
 Temperature   298.150 Kelvin.  Pressure   1.00000 Atm.
 Atom     1 has atomic number  6 and mass  12.00000

 Molecular mass:   206.14191 amu.
 Principal axes and moments of inertia in atomic units:
                           1         2         3
     Eigenvalues --  1757.437755444.753765636.13717
           X            0.99987   0.00288  -0.01593
           Y           -0.00406   0.99720  -0.07472
           Z            0.01567   0.07478   0.99708
 This molecule is an asymmetric top.
 Rotational symmetry number  1.
 Warning -- assumption of classical behavior for rotation
           may cause significant error
 Rotational temperatures (Kelvin)      0.04928     0.01591     0.01537
 Rotational constants (GHZ):           1.02692     0.33146     0.32021
    1 imaginary frequencies ignored.
 Zero-point vibrational energy     753424.4 (Joules/Mol)
                                  180.07275 (Kcal/Mol)
 Warning -- explicit consideration of  22 degrees of freedom as
           vibrations may cause significant error
 Vibrational temperatures:     60.09    77.79    87.66   126.88   141.27
          (Kelvin)            177.17   206.24   239.10   264.29   270.47
                              305.10   347.86   395.21   427.07   452.12
                              478.91   546.30   612.15   648.88   698.36
                              715.71   820.68   909.87   920.33   969.93
                             1050.40  1114.99  1142.74  1151.57  1237.30
                             1265.30  1267.16  1378.82  1401.45  1458.07
                             1476.51  1482.80  1505.17  1516.82  1533.89
                             1540.31  1545.78  1586.94  1619.45  1635.50
                             1669.13  1704.89  1719.93  1750.99  1754.51
                             1822.92  1853.36  1889.96  1929.70  1944.67
                             1975.99  1987.81  2019.68  2061.97  2086.00
                             2101.07  2124.74  2145.41  2147.29  2155.18
                             2158.38  2161.43  2171.44  2200.75  2227.70
                             2305.76  2369.38  2380.53  2413.52  4278.51
                             4339.23  4383.85  4435.06  4465.51  4520.65
                             4525.21  4543.01  4561.48  4579.23  4587.84
                             4599.15  4611.51  4622.89  4637.35  5056.23
                             5165.31  5275.75

 Zero-point correction=                           0.286964 (Hartree/Particle)
 Thermal correction to Energy=                    0.302693
 Thermal correction to Enthalpy=                  0.303637
 Thermal correction to Gibbs Free Energy=         0.243500
 Sum of electronic and zero-point Energies=           -652.554776
 Sum of electronic and thermal Energies=              -652.539048
 Sum of electronic and thermal Enthalpies=            -652.538104
 Sum of electronic and thermal Free Energies=         -652.598241

                     E (Thermal)             CV                S
                      KCal/Mol        Cal/Mol-Kelvin    Cal/Mol-Kelvin
 Total                  189.942             58.045            126.568
 Electronic               0.000              0.000              0.000
 Translational            0.889              2.981             41.874
 Rotational               0.889              2.981             32.356
 Vibrational            188.165             52.084             52.338
 Vibration     1          0.594              1.980              5.173
 Vibration     2          0.596              1.976              4.663
 Vibration     3          0.597              1.973              4.427
 Vibration     4          0.601              1.957              3.700
 Vibration     5          0.604              1.950              3.490
 Vibration     6          0.610              1.930              3.050
 Vibration     7          0.616              1.910              2.759
 Vibration     8          0.624              1.884              2.478
 Vibration     9          0.631              1.862              2.291
 Vibration    10          0.633              1.856              2.248
 Vibration    11          0.643              1.823              2.026
 Vibration    12          0.658              1.776              1.790
 Vibration    13          0.677              1.720              1.567
 Vibration    14          0.690              1.680              1.435
 Vibration    15          0.702              1.646              1.340
 Vibration    16          0.715              1.610              1.246
 Vibration    17          0.750              1.513              1.040
 Vibration    18          0.787              1.415              0.874
 Vibration    19          0.810              1.359              0.793
 Vibration    20          0.841              1.282              0.696
 Vibration    21          0.853              1.256              0.665
 Vibration    22          0.927              1.095              0.503

 Optimization completed.
    -- Stationary point found.
 Normal termination of Gaussian 16 at Sun Jan 31 09:03:44 2021.
