 Gaussian 16, Revision A.03,
 Gaussian 16:  ES64L-G16RevA.03 25-Dec-2016

 ----------------------------------------------------------------------
 # wB97XD def2tzvp, opt=(ts, noeigen, calcfc, maxcycles=70, maxstep=8),
  freq=noraman, scrf=(iefpcm, solvent=water)
 ----------------------------------------------------------------------

 ------------------------
 1_iteration/TS-696-1.out
 ------------------------
 Symbolic Z-matrix:
 Charge =  0 Multiplicity = 1

 SCF Done:  E(RwB97XD) =  -3131.77724451     A.U. after   15 cycles
 SCF Done:  E(RwB97XD) =  -3131.77741260     A.U. after   12 cycles
 SCF Done:  E(RwB97XD) =  -3131.77742482     A.U. after   12 cycles
 SCF Done:  E(RwB97XD) =  -3131.77743207     A.U. after    9 cycles
 SCF Done:  E(RwB97XD) =  -3131.77743201     A.U. after   10 cycles
 SCF Done:  E(RwB97XD) =  -3131.77743221     A.U. after    8 cycles
 Optimization completed.
    -- Stationary point found.
 Normal termination of Gaussian 16 at Fri Feb 19 14:24:48 2021.

 ---------------------------------------------------------------------
 #N Geom=AllCheck Guess=TCheck SCRF=Check GenChk RwB97XD/def2TZVP Freq
 ---------------------------------------------------------------------

 Structure from the checkpoint file:  "/beegfs/scratch/user/q/tla25/Gau-74731.chk"
 ------------------------
 1_iteration/TS-696-1.out
 ------------------------
 Charge =  0 Multiplicity = 1

                         Standard orientation:
 ---------------------------------------------------------------------
 Center     Atomic      Atomic             Coordinates (Angstroms)
 Number     Number       Type             X           Y           Z
 ---------------------------------------------------------------------
      1          6           0       -0.238042   -0.121781   -0.117644
      2          6           0        0.881934    0.629588   -0.576860
      3          8           0        0.842426    1.653146   -1.273828
      4          6           0       -1.567548    0.246360   -0.294018
      5          6           0       -1.265504    2.220023    1.726115
      6          1           0       -1.421942    2.534706    2.757755
      7          1           0       -0.242372    1.856726    1.616692
      8          1           0       -1.416329    3.070542    1.065278
      9          7           0       -2.171978    1.143591    1.348720
     10          1           0       -2.161674    0.398680    2.035701
     11          1           0       -3.129131    1.463584    1.249301
     12         35           0       -2.812062   -1.258043   -0.171662
     13          6           0       -2.031875    1.262580   -1.292425
     14          1           0       -1.458514    2.178770   -1.177293
     15          1           0       -1.839533    0.881496   -2.296282
     16          1           0       -3.096657    1.463369   -1.192823
     17          1           0       -0.041835   -1.024450    0.440841
     18          6           0        2.243940    0.093756   -0.197330
     19          6           0        2.489821   -0.543100    1.016450
     20          6           0        3.765447   -0.986537    1.335179
     21          6           0        4.808293   -0.812130    0.437103
     22          6           0        4.572492   -0.178629   -0.776088
     23          6           0        3.301715    0.279660   -1.083955
     24          1           0        1.687565   -0.675953    1.731292
     25          1           0        3.944712   -1.467374    2.288662
     26          1           0        5.802186   -1.164595    0.682846
     27          1           0        5.382143   -0.039678   -1.481670
     28          1           0        3.113954    0.786629   -2.021706
 ---------------------------------------------------------------------

 SCF Done:  E(RwB97XD) =  -3131.77743221     A.U. after    1 cycles

 The electronic state is 1-A.
 Alpha  occ. eigenvalues -- -483.12976 -62.67841 -56.46942 -56.46608 -56.46595
 Alpha  occ. eigenvalues --  -19.20454 -14.48493 -10.39968 -10.35614 -10.31628
 Alpha  occ. eigenvalues --  -10.29450 -10.29199 -10.29140 -10.29037 -10.29007
 Alpha  occ. eigenvalues --  -10.28901 -10.28622 -10.25726  -8.81957  -6.64069
 Alpha  occ. eigenvalues --   -6.63006  -6.62965  -2.74461  -2.74163  -2.74131
 Alpha  occ. eigenvalues --   -2.73270  -2.73270  -1.11243  -1.04017  -0.96557
 Alpha  occ. eigenvalues --   -0.93979  -0.86835  -0.85154  -0.84577  -0.81307
 Alpha  occ. eigenvalues --   -0.78815  -0.73025  -0.70443  -0.67311  -0.63144
 Alpha  occ. eigenvalues --   -0.62348  -0.59624  -0.57676  -0.56365  -0.55613
 Alpha  occ. eigenvalues --   -0.54343  -0.53855  -0.51681  -0.51058  -0.50783
 Alpha  occ. eigenvalues --   -0.49833  -0.48746  -0.47478  -0.45797  -0.45021
 Alpha  occ. eigenvalues --   -0.44820  -0.43724  -0.42993  -0.42431  -0.37612
 Alpha  occ. eigenvalues --   -0.37073  -0.33907  -0.33755  -0.31876  -0.28626
 Alpha virt. eigenvalues --    0.01485   0.05031   0.05405   0.07327   0.10150
 Alpha virt. eigenvalues --    0.13271   0.13951   0.14487   0.14795   0.16102
 Alpha virt. eigenvalues --    0.16817   0.17327   0.18440   0.18685   0.19190

 Mulliken charges:
               1
     1  C   -0.474473
     2  C    0.312607
     3  O   -0.525966
     4  C    0.192143
     5  C   -0.294068
     6  H    0.159538
     7  H    0.149556
     8  H    0.157656
     9  N   -0.337090
    10  H    0.281350
    11  H    0.289545
    12  Br  -0.121467
    13  C   -0.369684
    14  H    0.154310
    15  H    0.151408
    16  H    0.147672
    17  H    0.144525
    18  C    0.169950
    19  C   -0.253228
    20  C   -0.138717
    21  C   -0.143397
    22  C   -0.127281
    23  C   -0.248622
    24  H    0.155717
    25  H    0.142766
    26  H    0.145065
    27  H    0.142442
    28  H    0.137743
 Sum of Mulliken charges =  -0.00000

 Dipole moment (field-independent basis, Debye):
    X=             -4.5826    Y=              1.0415    Z=              6.0569  Tot=              7.6662
 Quadrupole moment (field-independent basis, Debye-Ang):
   XX=            -81.9494   YY=            -99.0356   ZZ=            -89.1694
   XY=            -15.2375   XZ=             -4.8651   YZ=              5.1077

  Exact polarizability: 305.722  -3.554 193.696 -18.450 -18.432 209.878
 Approx polarizability: 219.263  -1.229 166.155 -12.711 -18.767 179.024

 ******    1 imaginary frequencies (negative Signs) ******

                      1                      2                      3
                      A                      A                      A
 Frequencies --   -363.9871                32.9569                38.9276
 Red. masses --      5.4798                 4.4125                 4.2703
 Frc consts  --      0.4277                 0.0028                 0.0038
 IR Inten    --    886.0702                 6.5813                 1.7545

                      4                      5                      6
                      A                      A                      A
 Frequencies --     76.8303                80.0058                96.7907
 Red. masses --      2.8450                 4.2536                 3.7757
 Frc consts  --      0.0099                 0.0160                 0.0208
 IR Inten    --      3.4079                 3.5964                 6.0018

                      7                      8                      9
                      A                      A                      A
 Frequencies --    158.0801               167.8667               189.5909
 Red. masses --      4.6688                 4.9448                 1.1405
 Frc consts  --      0.0687                 0.0821                 0.0242
 IR Inten    --      3.5226                 4.6191                 1.3345

                     10                     11                     12
                      A                      A                      A
 Frequencies --    228.8336               243.1414               262.5229
 Red. masses --      2.5674                 3.5030                 2.5608
 Frc consts  --      0.0792                 0.1220                 0.1040
 IR Inten    --      4.2363                 2.9378                 2.4539

                     13                     14                     15
                      A                      A                      A
 Frequencies --    280.9718               289.4628               305.7817
 Red. masses --      2.8386                 3.4501                 1.9809
 Frc consts  --      0.1320                 0.1703                 0.1091
 IR Inten    --     30.0803                 3.5787                 2.1796

                     16                     17                     18
                      A                      A                      A
 Frequencies --    379.9635               415.4921               421.6822
 Red. masses --      3.6465                 3.9828                 2.9246
 Frc consts  --      0.3102                 0.4051                 0.3064
 IR Inten    --     22.2902                12.5586                 1.3040

                     19                     20                     21
                      A                      A                      A
 Frequencies --    465.9689               535.0917               605.9791
 Red. masses --      3.6506                 3.6715                 4.0181
 Frc consts  --      0.4670                 0.6194                 0.8693
 IR Inten    --     57.8537                 4.2747               118.0539

                     22                     23                     24
                      A                      A                      A
 Frequencies --    636.1201               670.6857               712.0130
 Red. masses --      6.3883                 1.3974                 4.5614
 Frc consts  --      1.5230                 0.3703                 1.3625
 IR Inten    --      1.1120                67.0330                16.4420

                     25                     26                     27
                      A                      A                      A
 Frequencies --    721.3439               730.5574               767.9159
 Red. masses --      2.2036                 1.7191                 1.4456
 Frc consts  --      0.6756                 0.5406                 0.5023
 IR Inten    --     37.5637                55.5706               191.8815

                     28                     29                     30
                      A                      A                      A
 Frequencies --    832.0841               877.1886               880.1925
 Red. masses --      2.9993                 4.5711                 1.2937
 Frc consts  --      1.2235                 2.0723                 0.5905
 IR Inten    --      6.7379                48.9993                 5.2459

                     31                     32                     33
                      A                      A                      A
 Frequencies --    947.0268               971.0043               996.5578
 Red. masses --      2.5406                 1.5804                 1.0949
 Frc consts  --      1.3425                 0.8779                 0.6407
 IR Inten    --     77.9800                17.4161                42.2197

                     34                     35                     36
                      A                      A                      A
 Frequencies --   1015.4790              1025.5061              1027.2359
 Red. masses --      1.3803                 6.0147                 1.1391
 Frc consts  --      0.8387                 3.7269                 0.7082
 IR Inten    --      2.8305                 1.6397                48.5037

                     37                     38                     39
                      A                      A                      A
 Frequencies --   1031.1186              1057.0331              1061.6956
 Red. masses --      1.3146                 1.9138                 1.7108
 Frc consts  --      0.8235                 1.2599                 1.1362
 IR Inten    --      0.8323                75.1502                51.5042

                     40                     41                     42
                      A                      A                      A
 Frequencies --   1081.8680              1101.5286              1108.0912
 Red. masses --      3.6124                 1.8208                 1.7377
 Frc consts  --      2.4911                 1.3017                 1.2571
 IR Inten    --      1.7346               140.7924                22.0706

                     43                     44                     45
                      A                      A                      A
 Frequencies --   1125.6283              1182.4849              1203.7921
 Red. masses --      2.2301                 1.1333                 1.1313
 Frc consts  --      1.6648                 0.9336                 0.9659
 IR Inten    --     14.4678                 0.6408                13.2782

                     46                     47                     48
                      A                      A                      A
 Frequencies --   1216.6009              1258.6660              1327.9183
 Red. masses --      1.3987                 2.8288                 3.5499
 Frc consts  --      1.2198                 2.6404                 3.6881
 IR Inten    --     20.3097               144.3991                 8.7792

                     49                     50                     51
                      A                      A                      A
 Frequencies --   1339.8628              1352.5771              1367.2915
 Red. masses --      1.3924                 1.5948                 1.9222
 Frc consts  --      1.4728                 1.7190                 2.1173
 IR Inten    --     10.6019                 1.8171               279.4379

                     52                     53                     54
                      A                      A                      A
 Frequencies --   1426.3485              1447.0645              1462.2113
 Red. masses --      1.4236                 1.3610                 1.1262
 Frc consts  --      1.7065                 1.6792                 1.4187
 IR Inten    --     27.1423               519.0347                51.3746

                     55                     56                     57
                      A                      A                      A
 Frequencies --   1468.9558              1485.2725              1491.2849
 Red. masses --      1.4326                 1.3845                 1.1606
 Frc consts  --      1.8213                 1.7995                 1.5208
 IR Inten    --    689.9390                72.6024                11.8183

                     58                     59                     60
                      A                      A                      A
 Frequencies --   1497.0505              1504.1080              1538.5724
 Red. masses --      1.7850                 1.0369                 2.3000
 Frc consts  --      2.3570                 1.3821                 3.2079
 IR Inten    --    625.2924                20.5475                19.3375

                     61                     62                     63
                      A                      A                      A
 Frequencies --   1634.7755              1641.5303              1662.9566
 Red. masses --      6.5322                 1.1010                 6.9963
 Frc consts  --     10.2855                 1.7479                11.3993
 IR Inten    --    326.1200                44.8919               191.4532

                     64                     65                     66
                      A                      A                      A
 Frequencies --   1672.4948              3064.5695              3075.0471
 Red. masses --      6.0832                 1.0339                 1.0367
 Frc consts  --     10.0257                 5.7209                 5.7760
 IR Inten    --     27.8214                34.3032                11.6384

                     67                     68                     69
                      A                      A                      A
 Frequencies --   3137.8373              3149.4486              3169.2611
 Red. masses --      1.1040                 1.1014                 1.1049
 Frc consts  --      6.4044                 6.4369                 6.5384
 IR Inten    --      8.5620                19.1998                14.6775

                     70                     71                     72
                      A                      A                      A
 Frequencies --   3180.3408              3193.3874              3200.2698
 Red. masses --      1.1027                 1.0857                 1.0884
 Frc consts  --      6.5712                 6.5233                 6.5676
 IR Inten    --      1.6860                 1.4384                 3.7441

                     73                     74                     75
                      A                      A                      A
 Frequencies --   3208.8044              3216.1401              3222.4503
 Red. masses --      1.0920                 1.0944                 1.0982
 Frc consts  --      6.6245                 6.6693                 6.7191
 IR Inten    --     17.2665                27.8133                19.8649

                     76                     77                     78
                      A                      A                      A
 Frequencies --   3231.2826              3518.8704              3604.8490
 Red. masses --      1.0883                 1.0505                 1.0969
 Frc consts  --      6.6948                 7.6642                 8.3986
 IR Inten    --      2.4213                60.1712                47.8133

 - Thermochemistry -
 -------------------
 Temperature   298.150 Kelvin.  Pressure   1.00000 Atm.
 Atom     1 has atomic number  6 and mass  12.00000

 Molecular mass:   255.02588 amu.
 Principal axes and moments of inertia in atomic units:
                           1         2         3
     Eigenvalues --  1925.804547539.332967943.70946
           X            0.99918  -0.04027  -0.00412
           Y            0.04031   0.99914   0.01007
           Z            0.00372  -0.01022   0.99994
 This molecule is an asymmetric top.
 Rotational symmetry number  1.
 Warning -- assumption of classical behavior for rotation
           may cause significant error
 Rotational temperatures (Kelvin)      0.04498     0.01149     0.01090
 Rotational constants (GHZ):           0.93714     0.23938     0.22719
    1 imaginary frequencies ignored.
 Zero-point vibrational energy     604163.2 (Joules/Mol)
                                  144.39846 (Kcal/Mol)
 Warning -- explicit consideration of  20 degrees of freedom as
           vibrations may cause significant error
 Vibrational temperatures:     47.42    56.01   110.54   115.11   139.26
          (Kelvin)            227.44   241.52   272.78   329.24   349.83
                              377.71   404.26   416.47   439.95   546.68
                              597.80   606.71   670.43   769.88   871.87
                              915.23   964.97  1024.43  1037.85  1051.11
                             1104.86  1197.18  1262.08  1266.40  1362.56
                             1397.06  1433.82  1461.05  1475.47  1477.96
                             1483.55  1520.83  1527.54  1556.57  1584.85
                             1594.30  1619.53  1701.33  1731.99  1750.42
                             1810.94  1910.58  1927.76  1946.06  1967.23
                             2052.20  2082.00  2103.80  2113.50  2136.98
                             2145.63  2153.92  2164.08  2213.66  2352.08
                             2361.80  2392.62  2406.35  4409.23  4424.31
                             4514.65  4531.35  4559.86  4575.80  4594.57
                             4604.47  4616.75  4627.31  4636.39  4649.09
                             5062.87  5186.57

 Zero-point correction=                           0.230114 (Hartree/Particle)
 Thermal correction to Energy=                    0.244510
 Thermal correction to Enthalpy=                  0.245454
 Thermal correction to Gibbs Free Energy=         0.186892
 Sum of electronic and zero-point Energies=          -3131.547319
 Sum of electronic and thermal Energies=             -3131.532922
 Sum of electronic and thermal Enthalpies=           -3131.531978
 Sum of electronic and thermal Free Energies=        -3131.590540

                     E (Thermal)             CV                S
                      KCal/Mol        Cal/Mol-Kelvin    Cal/Mol-Kelvin
 Total                  153.432             52.840            123.254
 Electronic               0.000              0.000              0.000
 Translational            0.889              2.981             42.509
 Rotational               0.889              2.981             33.111
 Vibrational            151.655             46.879             47.634
 Vibration     1          0.594              1.983              5.643
 Vibration     2          0.594              1.981              5.313
 Vibration     3          0.599              1.965              3.970
 Vibration     4          0.600              1.963              3.891
 Vibration     5          0.603              1.951              3.518
 Vibration     6          0.621              1.894              2.573
 Vibration     7          0.625              1.882              2.459
 Vibration     8          0.633              1.854              2.232
 Vibration     9          0.652              1.797              1.888
 Vibration    10          0.659              1.774              1.780
 Vibration    11          0.670              1.741              1.645
 Vibration    12          0.681              1.709              1.528
 Vibration    13          0.686              1.693              1.477
 Vibration    14          0.696              1.663              1.385
 Vibration    15          0.750              1.513              1.039
 Vibration    16          0.779              1.437              0.907
 Vibration    17          0.784              1.423              0.886
 Vibration    18          0.823              1.326              0.749
 Vibration    19          0.890              1.172              0.576
 Vibration    20          0.965              1.019              0.439

 Optimization completed.
    -- Stationary point found.
 Normal termination of Gaussian 16 at Fri Feb 19 15:11:30 2021.
