 Gaussian 16, Revision A.03,
 Gaussian 16:  ES64L-G16RevA.03 25-Dec-2016

 ----------------------------------------------------------------------
 # wB97XD def2tzvp, opt=(ts, noeigen, calcfc, maxcycles=70, maxstep=3),
  freq=noraman, scrf=(iefpcm, solvent=water)
 ----------------------------------------------------------------------

 ------------------------
 0_iteration/TS-660-0.out
 ------------------------
 Symbolic Z-matrix:
 Charge =  0 Multiplicity = 1

 SCF Done:  E(RwB97XD) =  -3015.27444107     A.U. after   14 cycles
 SCF Done:  E(RwB97XD) =  -3015.27443564     A.U. after   10 cycles
 SCF Done:  E(RwB97XD) =  -3015.27443724     A.U. after   10 cycles
 SCF Done:  E(RwB97XD) =  -3015.27444686     A.U. after   10 cycles
 SCF Done:  E(RwB97XD) =  -3015.27448127     A.U. after   10 cycles
 SCF Done:  E(RwB97XD) =  -3015.27460207     A.U. after   11 cycles
 SCF Done:  E(RwB97XD) =  -3015.27482802     A.U. after   11 cycles
 SCF Done:  E(RwB97XD) =  -3015.27513957     A.U. after   11 cycles
 SCF Done:  E(RwB97XD) =  -3015.27548287     A.U. after   11 cycles
 SCF Done:  E(RwB97XD) =  -3015.27587990     A.U. after   11 cycles
 SCF Done:  E(RwB97XD) =  -3015.27818052     A.U. after   10 cycles
 SCF Done:  E(RwB97XD) =  -3015.27818323     A.U. after    9 cycles
 SCF Done:  E(RwB97XD) =  -3015.27817776     A.U. after   11 cycles
 SCF Done:  E(RwB97XD) =  -3015.27818305     A.U. after   11 cycles
 SCF Done:  E(RwB97XD) =  -3015.27818338     A.U. after    7 cycles
 SCF Done:  E(RwB97XD) =  -3015.27817499     A.U. after   10 cycles
 SCF Done:  E(RwB97XD) =  -3015.27818355     A.U. after   10 cycles
 SCF Done:  E(RwB97XD) =  -3015.27818326     A.U. after    9 cycles
 SCF Done:  E(RwB97XD) =  -3015.27818342     A.U. after    7 cycles
 Optimization completed.
    -- Stationary point found.
 Normal termination of Gaussian 16 at Tue Apr 13 04:01:59 2021.

 ---------------------------------------------------------------------
 #N Geom=AllCheck Guess=TCheck SCRF=Check GenChk RwB97XD/def2TZVP Freq
 ---------------------------------------------------------------------

 Structure from the checkpoint file:  "/beegfs/scratch/user/q/tla25/Gau-337665.chk"
 ------------------------
 0_iteration/TS-660-0.out
 ------------------------
 Charge =  0 Multiplicity = 1

                         Standard orientation:
 ---------------------------------------------------------------------
 Center     Atomic      Atomic             Coordinates (Angstroms)
 Number     Number       Type             X           Y           Z
 ---------------------------------------------------------------------
      1          6           0        0.443352   -0.558517    0.522877
      2          6           0        1.837331   -0.606108    0.188410
      3          8           0        2.689286   -1.244285    0.793818
      4          6           0       -0.409741    0.176090   -0.274868
      5          6           0        0.415207    2.566540    0.831527
      6          1           0        0.214689    3.451378    1.434241
      7          1           0        1.029781    1.870080    1.403199
      8          1           0        0.953011    2.850855   -0.070143
      9          7           0       -0.816887    1.883016    0.458687
     10          1           0       -1.407596    1.711662    1.264454
     11          1           0       -1.358964    2.404540   -0.220712
     12         35           0       -2.248336   -0.436316   -0.495554
     13          1           0       -0.046651    0.553408   -1.218009
     14          6           0       -0.021115   -1.281521    1.757060
     15          1           0       -0.425813   -2.275102    1.537307
     16          1           0        0.808487   -1.412824    2.450559
     17          1           0       -0.804866   -0.724846    2.276644
     18          8           0        2.178885    0.130397   -0.904605
     19          6           0        3.542143    0.087932   -1.294286
     20          1           0        3.620720    0.727002   -2.170748
     21          1           0        4.189934    0.465786   -0.502474
     22          1           0        3.848819   -0.927389   -1.548758
 ---------------------------------------------------------------------

 SCF Done:  E(RwB97XD) =  -3015.27818342     A.U. after    1 cycles

 The electronic state is 1-A.
 Alpha  occ. eigenvalues -- -483.12806 -62.67674 -56.46772 -56.46441 -56.46429
 Alpha  occ. eigenvalues --  -19.27726 -19.20862 -14.49079 -10.39190 -10.37819
 Alpha  occ. eigenvalues --  -10.32453 -10.31725 -10.26899 -10.26201  -8.81794
 Alpha  occ. eigenvalues --   -6.63899  -6.62848  -6.62804  -2.74293  -2.73997
 Alpha  occ. eigenvalues --   -2.73962  -2.73112  -2.73111  -1.19023  -1.09406
 Alpha  occ. eigenvalues --   -1.04447  -0.92975  -0.86720  -0.81390  -0.79054
 Alpha  occ. eigenvalues --   -0.77091  -0.69564  -0.64312  -0.62832  -0.59383
 Alpha  occ. eigenvalues --   -0.57509  -0.56462  -0.55615  -0.53855  -0.51272
 Alpha  occ. eigenvalues --   -0.49693  -0.48884  -0.48086  -0.46266  -0.45482
 Alpha  occ. eigenvalues --   -0.44864  -0.44627  -0.43013  -0.37775  -0.37445
 Alpha  occ. eigenvalues --   -0.36987  -0.34779  -0.27073
 Alpha virt. eigenvalues --    0.05474   0.06938   0.09979   0.12649   0.13994
 Alpha virt. eigenvalues --    0.15174   0.15756   0.16591   0.17581   0.17896
 Alpha virt. eigenvalues --    0.19627   0.20250   0.20498   0.20652   0.21772

 Mulliken charges:
               1
     1  C   -0.243127
     2  C    0.425376
     3  O   -0.515523
     4  C   -0.037015
     5  C   -0.293554
     6  H    0.160687
     7  H    0.155056
     8  H    0.157225
     9  N   -0.313839
    10  H    0.285534
    11  H    0.292670
    12  Br  -0.128588
    13  H    0.195142
    14  C   -0.386184
    15  H    0.124108
    16  H    0.128886
    17  H    0.122450
    18  O   -0.319474
    19  C   -0.192741
    20  H    0.135177
    21  H    0.123449
    22  H    0.124286
 Sum of Mulliken charges =  -0.00000

 Dipole moment (field-independent basis, Debye):
    X=             -3.4341    Y=              8.4232    Z=             -0.7144  Tot=              9.1243
 Quadrupole moment (field-independent basis, Debye-Ang):
   XX=            -80.4659   YY=            -65.7562   ZZ=            -71.9827
   XY=              3.2474   XZ=             -9.7379   YZ=              4.8025

  Exact polarizability: 193.505 -13.225 152.778   7.633  -6.105 127.662
 Approx polarizability: 146.236  -9.816 124.198   7.251  -6.039 109.670

 ******    1 imaginary frequencies (negative Signs) ******

                      1                      2                      3
                      A                      A                      A
 Frequencies --   -386.8651                45.3458                53.6284
 Red. masses --      6.1066                 1.2853                 3.3005
 Frc consts  --      0.5385                 0.0016                 0.0056
 IR Inten    --    808.4092                 0.8584                 1.4447

                      4                      5                      6
                      A                      A                      A
 Frequencies --     73.6504                84.3145               116.1395
 Red. masses --      2.4523                 2.0602                 3.1075
 Frc consts  --      0.0078                 0.0086                 0.0247
 IR Inten    --      0.1924                 6.7601                 6.4360

                      7                      8                      9
                      A                      A                      A
 Frequencies --    134.5939               148.9319               165.3620
 Red. masses --      3.7423                 1.5214                 2.2903
 Frc consts  --      0.0399                 0.0199                 0.0369
 IR Inten    --      5.1465                 4.0517                 4.7889

                     10                     11                     12
                      A                      A                      A
 Frequencies --    182.3579               188.9989               246.2398
 Red. masses --      4.7551                 1.2585                 2.9135
 Frc consts  --      0.0932                 0.0265                 0.1041
 IR Inten    --      6.1664                 7.7384                 3.2550

                     13                     14                     15
                      A                      A                      A
 Frequencies --    286.6435               315.8310               361.2515
 Red. masses --      3.7708                 3.6867                 4.1155
 Frc consts  --      0.1825                 0.2167                 0.3164
 IR Inten    --     19.5746                15.3032                21.8915

                     16                     17                     18
                      A                      A                      A
 Frequencies --    466.8214               479.1783               624.2605
 Red. masses --      3.0004                 5.7032                 1.9836
 Frc consts  --      0.3852                 0.7715                 0.4555
 IR Inten    --     69.6068                20.1890                19.2439

                     19                     20                     21
                      A                      A                      A
 Frequencies --    691.9691               753.5773               786.5320
 Red. masses --      4.4690                 2.6008                 7.4064
 Frc consts  --      1.2608                 0.8702                 2.6996
 IR Inten    --    223.0743                36.4368                42.5926

                     22                     23                     24
                      A                      A                      A
 Frequencies --    842.4649               972.9889              1007.9953
 Red. masses --      4.1005                 2.2403                 1.1234
 Frc consts  --      1.7147                 1.2496                 0.6725
 IR Inten    --     73.2649               125.2046                17.2579

                     25                     26                     27
                      A                      A                      A
 Frequencies --   1029.5616              1052.7897              1065.0634
 Red. masses --      1.1164                 2.3288                 1.3987
 Frc consts  --      0.6972                 1.5208                 0.9348
 IR Inten    --     79.2079                62.1963                19.2080

                     28                     29                     30
                      A                      A                      A
 Frequencies --   1081.7786              1142.2885              1148.2671
 Red. masses --      4.9502                 1.3286                 2.2882
 Frc consts  --      3.4131                 1.0214                 1.7776
 IR Inten    --     40.9983               148.3709               272.5705

                     31                     32                     33
                      A                      A                      A
 Frequencies --   1181.9038              1212.9992              1221.7534
 Red. masses --      1.2797                 1.5587                 1.3939
 Frc consts  --      1.0532                 1.3512                 1.2258
 IR Inten    --      2.3581               164.4222                29.9619

                     34                     35                     36
                      A                      A                      A
 Frequencies --   1262.3164              1342.6916              1369.2657
 Red. masses --      1.6227                 1.3238                 2.5374
 Frc consts  --      1.5235                 1.4061                 2.8029
 IR Inten    --    281.7642                 1.8730               511.0657

                     37                     38                     39
                      A                      A                      A
 Frequencies --   1415.4235              1450.8844              1471.4509
 Red. masses --      1.3476                 1.5886                 1.4040
 Frc consts  --      1.5906                 1.9703                 1.7910
 IR Inten    --     52.7571               210.8852               152.5292

                     40                     41                     42
                      A                      A                      A
 Frequencies --   1475.6318              1480.1812              1484.0247
 Red. masses --      1.0562                 1.0487                 1.3511
 Frc consts  --      1.3550                 1.3538                 1.7531
 IR Inten    --     16.5999                10.0541                49.0839

                     43                     44                     45
                      A                      A                      A
 Frequencies --   1491.1966              1497.9033              1504.0703
 Red. masses --      1.0390                 1.0867                 1.0744
 Frc consts  --      1.3612                 1.4365                 1.4321
 IR Inten    --     26.9737                 3.4028                57.5440

                     46                     47                     48
                      A                      A                      A
 Frequencies --   1508.9334              1643.8969              1686.2633
 Red. masses --      1.3722                 1.0903                10.9318
 Frc consts  --      1.8408                 1.7359                18.3143
 IR Inten    --    285.4840                64.2562              1140.9420

                     49                     50                     51
                      A                      A                      A
 Frequencies --   3026.2253              3057.4592              3069.3272
 Red. masses --      1.0445                 1.0310                 1.0332
 Frc consts  --      5.6356                 5.6787                 5.7346
 IR Inten    --     77.6087                68.6442                31.7284

                     52                     53                     54
                      A                      A                      A
 Frequencies --   3081.7531              3130.3776              3138.8724
 Red. masses --      1.0960                 1.1065                 1.0975
 Frc consts  --      6.1328                 6.3883                 6.3708
 IR Inten    --     43.0226                43.9834                21.9315

                     55                     56                     57
                      A                      A                      A
 Frequencies --   3147.2819              3165.7501              3171.4467
 Red. masses --      1.1044                 1.1048                 1.1057
 Frc consts  --      6.4452                 6.5238                 6.5527
 IR Inten    --      7.9275                27.6403                12.3505

                     58                     59                     60
                      A                      A                      A
 Frequencies --   3249.9913              3523.1448              3607.5634
 Red. masses --      1.0916                 1.0505                 1.0971
 Frc consts  --      6.7935                 7.6828                 8.4122
 IR Inten    --      2.9294                51.1172                49.2141

 - Thermochemistry -
 -------------------
 Temperature   298.150 Kelvin.  Pressure   1.00000 Atm.
 Atom     1 has atomic number  6 and mass  12.00000

 Molecular mass:   209.00514 amu.
 Principal axes and moments of inertia in atomic units:
                           1         2         3
     Eigenvalues --  1360.783953534.034233876.61727
           X            0.99934  -0.01036  -0.03486
           Y            0.00969   0.99977  -0.01917
           Z            0.03505   0.01882   0.99921
 This molecule is an asymmetric top.
 Rotational symmetry number  1.
 Warning -- assumption of classical behavior for rotation
           may cause significant error
 Rotational temperatures (Kelvin)      0.06365     0.02451     0.02234
 Rotational constants (GHZ):           1.32625     0.51067     0.46555
    1 imaginary frequencies ignored.
 Zero-point vibrational energy     476226.2 (Joules/Mol)
                                  113.82080 (Kcal/Mol)
 Warning -- explicit consideration of  16 degrees of freedom as
           vibrations may cause significant error
 Vibrational temperatures:     65.24    77.16   105.97   121.31   167.10
          (Kelvin)            193.65   214.28   237.92   262.37   271.93
                              354.28   412.42   454.41   519.76   671.65
                              689.43   898.17   995.59  1084.23  1131.64
                             1212.12  1399.91  1450.28  1481.31  1514.73
                             1532.39  1556.44  1643.50  1652.10  1700.50
                             1745.24  1757.83  1816.19  1931.83  1970.07
                             2036.48  2087.50  2117.09  2123.11  2129.65
                             2135.18  2145.50  2155.15  2164.02  2171.02
                             2365.20  2426.16  4354.06  4399.00  4416.08
                             4433.96  4503.92  4516.14  4528.24  4554.81
                             4563.00  4676.01  5069.02  5190.48

 Zero-point correction=                           0.181385 (Hartree/Particle)
 Thermal correction to Energy=                    0.194294
 Thermal correction to Enthalpy=                  0.195239
 Thermal correction to Gibbs Free Energy=         0.140140
 Sum of electronic and zero-point Energies=          -3015.096798
 Sum of electronic and thermal Energies=             -3015.083889
 Sum of electronic and thermal Enthalpies=           -3015.082945
 Sum of electronic and thermal Free Energies=        -3015.138044

                     E (Thermal)             CV                S
                      KCal/Mol        Cal/Mol-Kelvin    Cal/Mol-Kelvin
 Total                  121.922             42.755            115.965
 Electronic               0.000              0.000              0.000
 Translational            0.889              2.981             41.915
 Rotational               0.889              2.981             31.300
 Vibrational            120.144             36.794             42.750
 Vibration     1          0.595              1.979              5.011
 Vibration     2          0.596              1.976              4.679
 Vibration     3          0.599              1.966              4.053
 Vibration     4          0.601              1.960              3.788
 Vibration     5          0.608              1.936              3.164
 Vibration     6          0.613              1.919              2.879
 Vibration     7          0.618              1.904              2.686
 Vibration     8          0.624              1.885              2.488
 Vibration     9          0.630              1.864              2.304
 Vibration    10          0.633              1.855              2.238
 Vibration    11          0.661              1.769              1.757
 Vibration    12          0.684              1.699              1.494
 Vibration    13          0.703              1.643              1.332
 Vibration    14          0.735              1.552              1.117
 Vibration    15          0.824              1.324              0.747
 Vibration    16          0.836              1.296              0.712

 Optimization completed.
    -- Stationary point found.
 Normal termination of Gaussian 16 at Tue Apr 13 04:09:03 2021.
