 Gaussian 16, Revision A.03,
 Gaussian 16:  ES64L-G16RevA.03 25-Dec-2016

 ----------------------------------------------------------------------
 # wB97XD def2tzvp, opt=(ts, noeigen, calcfc, maxcycles=70, maxstep=1),
  freq=noraman, scrf=(iefpcm, solvent=water)
 ----------------------------------------------------------------------

 ------------------------
 0_iteration/TS-641-0.out
 ------------------------
 Symbolic Z-matrix:
 Charge =  0 Multiplicity = 1

 SCF Done:  E(RwB97XD) =  -3092.45404197     A.U. after   15 cycles
 SCF Done:  E(RwB97XD) =  -3092.45393391     A.U. after   10 cycles
 SCF Done:  E(RwB97XD) =  -3092.45383052     A.U. after   10 cycles
 SCF Done:  E(RwB97XD) =  -3092.45373145     A.U. after   10 cycles
 SCF Done:  E(RwB97XD) =  -3092.45363696     A.U. after   10 cycles
 SCF Done:  E(RwB97XD) =  -3092.45354791     A.U. after   10 cycles
 SCF Done:  E(RwB97XD) =  -3092.45346400     A.U. after   10 cycles
 SCF Done:  E(RwB97XD) =  -3092.45338500     A.U. after   10 cycles
 SCF Done:  E(RwB97XD) =  -3092.45331070     A.U. after   10 cycles
 SCF Done:  E(RwB97XD) =  -3092.45324098     A.U. after   10 cycles
 SCF Done:  E(RwB97XD) =  -3092.45317512     A.U. after   10 cycles
 SCF Done:  E(RwB97XD) =  -3092.45320233     A.U. after   10 cycles
 SCF Done:  E(RwB97XD) =  -3092.45322565     A.U. after   10 cycles
 SCF Done:  E(RwB97XD) =  -3092.45324384     A.U. after   10 cycles
 SCF Done:  E(RwB97XD) =  -3092.45325820     A.U. after   10 cycles
 SCF Done:  E(RwB97XD) =  -3092.45326572     A.U. after   10 cycles
 SCF Done:  E(RwB97XD) =  -3092.45326961     A.U. after   10 cycles
 SCF Done:  E(RwB97XD) =  -3092.45327006     A.U. after    8 cycles
 SCF Done:  E(RwB97XD) =  -3092.45327015     A.U. after    7 cycles
 Optimization completed.
    -- Stationary point found.
 Normal termination of Gaussian 16 at Fri Feb 19 00:46:48 2021.

 ---------------------------------------------------------------------
 #N Geom=AllCheck Guess=TCheck SCRF=Check GenChk RwB97XD/def2TZVP Freq
 ---------------------------------------------------------------------

 Structure from the checkpoint file:  "/beegfs/scratch/user/q/tla25/Gau-86228.chk"
 ------------------------
 0_iteration/TS-641-0.out
 ------------------------
 Charge =  0 Multiplicity = 1

                         Standard orientation:
 ---------------------------------------------------------------------
 Center     Atomic      Atomic             Coordinates (Angstroms)
 Number     Number       Type             X           Y           Z
 ---------------------------------------------------------------------
      1          6           0        0.081813    1.086534   -0.239340
      2          6           0        0.154375    2.501995   -0.446219
      3          8           0        1.156174    3.208233   -0.392848
      4          6           0       -1.194149    0.558976   -0.322229
      5          6           0       -3.575372    0.575486    1.335833
      6          1           0       -3.823812    1.505714    0.826756
      7          1           0       -3.955960   -0.260997    0.751435
      8          1           0       -4.053526    0.570960    2.315867
      9          7           0       -2.122774    0.460252    1.438131
     10          1           0       -1.717307    1.239243    1.943903
     11          1           0       -1.852804   -0.396822    1.906822
     12         35           0       -1.468411   -1.258808   -0.876213
     13          1           0       -1.976590    1.189436   -0.722809
     14          6           0        1.290547    0.297209    0.077696
     15          6           0        2.432259    0.402609   -0.719238
     16          6           0        3.569856   -0.337726   -0.439078
     17          6           0        3.592391   -1.204674    0.645290
     18          6           0        2.467847   -1.317887    1.448864
     19          6           0        1.333215   -0.570335    1.169333
     20          1           0        2.421810    1.069920   -1.571067
     21          1           0        4.441518   -0.242235   -1.074869
     22          1           0        4.479997   -1.785345    0.862582
     23          1           0        2.473161   -1.985741    2.301344
     24          1           0        0.472486   -0.660480    1.819699
     25          1           0       -0.821249    2.973894   -0.681814
 ---------------------------------------------------------------------

 SCF Done:  E(RwB97XD) =  -3092.45327015     A.U. after    1 cycles

 The electronic state is 1-A.
 Alpha  occ. eigenvalues -- -483.13740 -62.68590 -56.47704 -56.47355 -56.47338
 Alpha  occ. eigenvalues --  -19.21723 -14.48272 -10.39078 -10.35404 -10.31984
 Alpha  occ. eigenvalues --  -10.30042 -10.28814 -10.28755 -10.28720 -10.28607
 Alpha  occ. eigenvalues --  -10.28498 -10.27785  -8.82703  -6.64855  -6.63740
 Alpha  occ. eigenvalues --   -6.63680  -2.75245  -2.74930  -2.74883  -2.73981
 Alpha  occ. eigenvalues --   -2.73980  -1.12064  -1.03747  -0.96898  -0.93709
 Alpha  occ. eigenvalues --   -0.87757  -0.84812  -0.83396  -0.79021  -0.72449
 Alpha  occ. eigenvalues --   -0.70750  -0.69696  -0.64921  -0.63130  -0.59955
 Alpha  occ. eigenvalues --   -0.58237  -0.56015  -0.54567  -0.54357  -0.53161
 Alpha  occ. eigenvalues --   -0.52570  -0.50618  -0.49507  -0.48414  -0.47940
 Alpha  occ. eigenvalues --   -0.47280  -0.46013  -0.44890  -0.42963  -0.42526
 Alpha  occ. eigenvalues --   -0.38279  -0.37404  -0.34247  -0.33727  -0.32659
 Alpha  occ. eigenvalues --   -0.28098
 Alpha virt. eigenvalues --    0.02860   0.04877   0.05576   0.06605   0.10001
 Alpha virt. eigenvalues --    0.12909   0.13532   0.14391   0.15048   0.16078
 Alpha virt. eigenvalues --    0.16958   0.17781   0.18262   0.19102   0.19666

 Mulliken charges:
               1
     1  C   -0.069779
     2  C    0.118212
     3  O   -0.475732
     4  C   -0.074611
     5  C   -0.280798
     6  H    0.153952
     7  H    0.151409
     8  H    0.155847
     9  N   -0.350795
    10  H    0.281340
    11  H    0.280270
    12  Br  -0.071529
    13  H    0.187237
    14  C    0.158933
    15  C   -0.251952
    16  C   -0.135936
    17  C   -0.155771
    18  C   -0.147520
    19  C   -0.226822
    20  H    0.139534
    21  H    0.139925
    22  H    0.141743
    23  H    0.139504
    24  H    0.132086
    25  H    0.061253
 Sum of Mulliken charges =  -0.00000

 Dipole moment (field-independent basis, Debye):
    X=             -8.2760    Y=             -3.3937    Z=              4.6003  Tot=             10.0585
 Quadrupole moment (field-independent basis, Debye-Ang):
   XX=            -75.6243   YY=           -106.4106   ZZ=            -81.5205
   XY=            -16.6183   XZ=             -9.2265   YZ=             -0.4994

  Exact polarizability: 262.733   7.627 216.255 -21.165 -22.827 179.192
 Approx polarizability: 197.557   6.580 176.811 -15.098 -17.936 154.323

 ******    1 imaginary frequencies (negative Signs) ******

                      1                      2                      3
                      A                      A                      A
 Frequencies --   -358.5958                29.9774                51.6056
 Red. masses --      6.1353                 3.8303                 2.2831
 Frc consts  --      0.4648                 0.0020                 0.0036
 IR Inten    --    954.5293                 0.7692                 2.4321

                      4                      5                      6
                      A                      A                      A
 Frequencies --     57.6006                73.5265               103.1507
 Red. masses --      5.5702                 6.8612                 4.0664
 Frc consts  --      0.0109                 0.0219                 0.0255
 IR Inten    --      5.1589                 3.5918                 3.3297

                      7                      8                      9
                      A                      A                      A
 Frequencies --    145.0069               162.1264               196.5890
 Red. masses --      2.2006                 4.7506                 1.8409
 Frc consts  --      0.0273                 0.0736                 0.0419
 IR Inten    --      3.3764                14.7715                 4.9649

                     10                     11                     12
                      A                      A                      A
 Frequencies --    211.4469               253.1448               273.8380
 Red. masses --      3.8570                 2.9445                 3.0594
 Frc consts  --      0.1016                 0.1112                 0.1352
 IR Inten    --      7.6026                14.6019                40.7413

                     13                     14                     15
                      A                      A                      A
 Frequencies --    319.1731               349.7468               419.8350
 Red. masses --      4.8555                 5.6485                 2.8546
 Frc consts  --      0.2914                 0.4071                 0.2965
 IR Inten    --     41.6492                19.9841                 0.4587

                     16                     17                     18
                      A                      A                      A
 Frequencies --    470.2532               494.5429               594.1354
 Red. masses --      5.0899                 4.9076                 3.2546
 Frc consts  --      0.6632                 0.7072                 0.6769
 IR Inten    --     22.3284                22.1544                70.2612

                     19                     20                     21
                      A                      A                      A
 Frequencies --    612.3036               639.9658               711.2689
 Red. masses --      1.5247                 5.9865                 4.5911
 Frc consts  --      0.3368                 1.4446                 1.3685
 IR Inten    --     17.5482                 4.8250                21.4149

                     22                     23                     24
                      A                      A                      A
 Frequencies --    723.8707               736.8986               790.7520
 Red. masses --      1.5230                 4.5695                 3.8565
 Frc consts  --      0.4702                 1.4619                 1.4208
 IR Inten    --    119.1490               150.3527               147.0556

                     25                     26                     27
                      A                      A                      A
 Frequencies --    811.0059               870.7870               947.8775
 Red. masses --      2.4351                 1.2532                 1.4776
 Frc consts  --      0.9437                 0.5599                 0.7822
 IR Inten    --     31.3291                 1.0879                 5.8968

                     28                     29                     30
                      A                      A                      A
 Frequencies --    997.8523              1006.1258              1014.1030
 Red. masses --      1.1239                 1.3137                 1.1601
 Frc consts  --      0.6593                 0.7835                 0.7029
 IR Inten    --     18.6203                 1.8092                98.1513

                     31                     32                     33
                      A                      A                      A
 Frequencies --   1022.5976              1023.5926              1029.0545
 Red. masses --      1.3302                 2.3767                 2.5048
 Frc consts  --      0.8196                 1.4672                 1.5628
 IR Inten    --      2.1844                17.4745                32.2536

                     34                     35                     36
                      A                      A                      A
 Frequencies --   1061.0535              1069.1951              1113.4023
 Red. masses --      2.3863                 4.7766                 1.6039
 Frc consts  --      1.5829                 3.2172                 1.1715
 IR Inten    --      9.4670               114.1226                12.2315

                     37                     38                     39
                      A                      A                      A
 Frequencies --   1115.2191              1149.1364              1182.3206
 Red. masses --      1.1222                 3.2165                 1.1290
 Frc consts  --      0.8223                 2.5025                 0.9299
 IR Inten    --     83.5657                25.8560                 1.4086

                     40                     41                     42
                      A                      A                      A
 Frequencies --   1206.0475              1212.1496              1219.4696
 Red. masses --      1.4517                 1.1459                 1.3861
 Frc consts  --      1.2441                 0.9920                 1.2145
 IR Inten    --    104.0481                12.3067                46.0460

                     43                     44                     45
                      A                      A                      A
 Frequencies --   1311.8681              1344.3479              1352.4244
 Red. masses --      3.7812                 1.3388                 1.9921
 Frc consts  --      3.8340                 1.4256                 2.1467
 IR Inten    --     88.6992                17.3397               420.5044

                     46                     47                     48
                      A                      A                      A
 Frequencies --   1374.7857              1433.9494              1461.8816
 Red. masses --      1.6191                 1.9532                 1.1785
 Frc consts  --      1.8030                 2.3662                 1.4839
 IR Inten    --    353.5674                94.1885                 6.6386

                     49                     50                     51
                      A                      A                      A
 Frequencies --   1481.8228              1491.2388              1503.4544
 Red. masses --      2.1289                 1.0409                 2.3108
 Frc consts  --      2.7542                 1.3638                 3.0775
 IR Inten    --     85.5723                13.9776               158.6457

                     52                     53                     54
                      A                      A                      A
 Frequencies --   1508.1877              1554.5678              1644.3569
 Red. masses --      1.0541                 2.7762                 1.6274
 Frc consts  --      1.4127                 3.9530                 2.5926
 IR Inten    --      6.8952               102.0214                40.1970

                     55                     56                     57
                      A                      A                      A
 Frequencies --   1648.0564              1669.6024              1688.1846
 Red. masses --      2.0778                 6.4042                 7.4761
 Frc consts  --      3.3250                10.5182                12.5535
 IR Inten    --     22.5880               256.5733               791.4078

                     58                     59                     60
                      A                      A                      A
 Frequencies --   2901.9508              3065.0042              3142.5763
 Red. masses --      1.0809                 1.0332                 1.1050
 Frc consts  --      5.3631                 5.7187                 6.4299
 IR Inten    --    184.7947                51.5878                15.3958

                     61                     62                     63
                      A                      A                      A
 Frequencies --   3159.5460              3191.5530              3198.4916
 Red. masses --      1.1058                 1.0854                 1.0884
 Frc consts  --      6.5039                 6.5139                 6.5601
 IR Inten    --     14.6614                 3.8494                 3.3258

                     64                     65                     66
                      A                      A                      A
 Frequencies --   3208.6802              3209.3402              3215.9250
 Red. masses --      1.0912                 1.0918                 1.0944
 Frc consts  --      6.6194                 6.6255                 6.6689
 IR Inten    --      2.4052                38.2043                44.0679

                     67                     68                     69
                      A                      A                      A
 Frequencies --   3222.3539              3521.2551              3609.6893
 Red. masses --      1.0982                 1.0502                 1.0969
 Frc consts  --      6.7183                 7.6721                 8.4209
 IR Inten    --      6.7312                26.8300                41.6074

 - Thermochemistry -
 -------------------
 Temperature   298.150 Kelvin.  Pressure   1.00000 Atm.
 Atom     1 has atomic number  6 and mass  12.00000

 Molecular mass:   241.01023 amu.
 Principal axes and moments of inertia in atomic units:
                           1         2         3
     Eigenvalues --  2338.837564395.998955319.71422
           X            0.99677  -0.07358  -0.03232
           Y            0.07163   0.99576  -0.05771
           Z            0.03643   0.05521   0.99781
 This molecule is an asymmetric top.
 Rotational symmetry number  1.
 Warning -- assumption of classical behavior for rotation
           may cause significant error
 Rotational temperatures (Kelvin)      0.03703     0.01970     0.01628
 Rotational constants (GHZ):           0.77164     0.41054     0.33926
    1 imaginary frequencies ignored.
 Zero-point vibrational energy     529867.0 (Joules/Mol)
                                  126.64125 (Kcal/Mol)
 Warning -- explicit consideration of  18 degrees of freedom as
           vibrations may cause significant error
 Vibrational temperatures:     43.13    74.25    82.87   105.79   148.41
          (Kelvin)            208.63   233.26   282.85   304.22   364.22
                              393.99   459.22   503.21   604.05   676.59
                              711.54   854.83   880.97   920.77  1023.36
                             1041.49  1060.23  1137.72  1166.86  1252.87
                             1363.78  1435.69  1447.59  1459.07  1471.29
                             1472.72  1480.58  1526.62  1538.33  1601.94
                             1604.55  1653.35  1701.10  1735.23  1744.01
                             1754.54  1887.49  1934.22  1945.84  1978.01
                             2063.13  2103.32  2132.01  2145.56  2163.14
                             2169.95  2236.68  2365.86  2371.19  2402.19
                             2428.92  4175.26  4409.86  4521.47  4545.88
                             4591.93  4601.92  4616.58  4617.52  4627.00
                             4636.25  5066.30  5193.54

 Zero-point correction=                           0.201816 (Hartree/Particle)
 Thermal correction to Energy=                    0.215045
 Thermal correction to Enthalpy=                  0.215990
 Thermal correction to Gibbs Free Energy=         0.159541
 Sum of electronic and zero-point Energies=          -3092.251454
 Sum of electronic and thermal Energies=             -3092.238225
 Sum of electronic and thermal Enthalpies=           -3092.237281
 Sum of electronic and thermal Free Energies=        -3092.293729

                     E (Thermal)             CV                S
                      KCal/Mol        Cal/Mol-Kelvin    Cal/Mol-Kelvin
 Total                  134.943             47.195            118.806
 Electronic               0.000              0.000              0.000
 Translational            0.889              2.981             42.340
 Rotational               0.889              2.981             32.370
 Vibrational            133.166             41.233             44.096
 Vibration     1          0.594              1.984              5.831
 Vibration     2          0.596              1.977              4.755
 Vibration     3          0.596              1.974              4.538
 Vibration     4          0.599              1.966              4.057
 Vibration     5          0.605              1.947              3.394
 Vibration     6          0.616              1.908              2.737
 Vibration     7          0.622              1.889              2.525
 Vibration     8          0.636              1.845              2.165
 Vibration     9          0.643              1.823              2.031
 Vibration    10          0.664              1.757              1.709
 Vibration    11          0.676              1.722              1.572
 Vibration    12          0.705              1.637              1.314
 Vibration    13          0.727              1.576              1.167
 Vibration    14          0.783              1.427              0.893
 Vibration    15          0.827              1.316              0.737
 Vibration    16          0.850              1.262              0.672
 Vibration    17          0.952              1.044              0.460
 Vibration    18          0.972              1.006              0.429

 Optimization completed.
    -- Stationary point found.
 Normal termination of Gaussian 16 at Fri Feb 19 01:24:12 2021.
