 Gaussian 16, Revision A.03,
 Gaussian 16:  ES64L-G16RevA.03 25-Dec-2016

 ----------------------------------------------------------------------
 # wB97XD def2tzvp, opt=(ts, noeigen, calcfc, maxcycles=70, maxstep=8),
  freq=noraman, scrf=(iefpcm, solvent=water)
 ----------------------------------------------------------------------

 ------------------------
 1_iteration/TS-693-1.out
 ------------------------
 Symbolic Z-matrix:
 Charge =  0 Multiplicity = 1

 SCF Done:  E(RwB97XD) =  -2995.40605522     A.U. after   15 cycles
 SCF Done:  E(RwB97XD) =  -2995.40635020     A.U. after   13 cycles
 SCF Done:  E(RwB97XD) =  -2995.40655991     A.U. after   13 cycles
 SCF Done:  E(RwB97XD) =  -2995.40668080     A.U. after   12 cycles
 SCF Done:  E(RwB97XD) =  -2995.40669078     A.U. after   11 cycles
 SCF Done:  E(RwB97XD) =  -2995.40671430     A.U. after   10 cycles
 SCF Done:  E(RwB97XD) =  -2995.40671120     A.U. after   10 cycles
 SCF Done:  E(RwB97XD) =  -2995.40671730     A.U. after   10 cycles
 SCF Done:  E(RwB97XD) =  -2995.40671558     A.U. after    9 cycles
 SCF Done:  E(RwB97XD) =  -2995.40671629     A.U. after    8 cycles
 Optimization completed.
    -- Stationary point found.
 Normal termination of Gaussian 16 at Fri Feb 19 10:44:26 2021.

 ---------------------------------------------------------------------
 #N Geom=AllCheck Guess=TCheck SCRF=Check GenChk RwB97XD/def2TZVP Freq
 ---------------------------------------------------------------------

 Structure from the checkpoint file:  "/beegfs/scratch/user/q/tla25/Gau-16152.chk"
 ------------------------
 1_iteration/TS-693-1.out
 ------------------------
 Charge =  0 Multiplicity = 1

                         Standard orientation:
 ---------------------------------------------------------------------
 Center     Atomic      Atomic             Coordinates (Angstroms)
 Number     Number       Type             X           Y           Z
 ---------------------------------------------------------------------
      1          6           0       -0.483654   -0.351614   -0.714882
      2          6           0       -1.922083   -0.408522   -0.613935
      3          8           0       -2.626183   -0.497693   -1.633546
      4          6           0        0.461120    0.089849    0.203387
      5          6           0       -0.085117    2.736142   -0.233481
      6          1           0       -0.947322    2.252718   -0.694392
      7          1           0       -0.320511    3.005600    0.792876
      8          1           0        0.168052    3.634363   -0.793602
      9          7           0        1.022407    1.782244   -0.247255
     10          1           0        1.794142    2.084154    0.339769
     11          1           0        1.380982    1.660707   -1.188428
     12         35           0        2.258254   -0.770948   -0.063057
     13          6           0        0.213856    0.256844    1.678827
     14          1           0       -0.650357    0.898432    1.849409
     15          1           0        0.030727   -0.716740    2.134717
     16          1           0        1.074340    0.697303    2.178105
     17          1           0       -0.134696   -0.528993   -1.724414
     18          7           0       -2.542580   -0.370199    0.610870
     19          6           0       -3.971787   -0.563507    0.711110
     20          1           0       -2.007785   -0.646576    1.412082
     21          1           0       -4.498800    0.190176    0.127117
     22          1           0       -4.288814   -1.548583    0.355484
     23          1           0       -4.262192   -0.457279    1.755170
 ---------------------------------------------------------------------

 SCF Done:  E(RwB97XD) =  -2995.40671629     A.U. after    1 cycles

 The electronic state is 1-A.
 Alpha  occ. eigenvalues -- -483.12051 -62.66925 -56.46013 -56.45695 -56.45686
 Alpha  occ. eigenvalues --  -19.18952 -14.50320 -14.43750 -10.40063 -10.36887
 Alpha  occ. eigenvalues --  -10.32187 -10.30177 -10.29548 -10.24568  -8.81039
 Alpha  occ. eigenvalues --   -6.63107  -6.62104  -6.62075  -2.73498  -2.73224
 Alpha  occ. eigenvalues --   -2.73201  -2.72389  -2.72389  -1.11588  -1.05767
 Alpha  occ. eigenvalues --   -1.00261  -0.93056  -0.84701  -0.81992  -0.79663
 Alpha  occ. eigenvalues --   -0.77898  -0.68060  -0.65584  -0.64286  -0.59173
 Alpha  occ. eigenvalues --   -0.57396  -0.56951  -0.55108  -0.53496  -0.51608
 Alpha  occ. eigenvalues --   -0.50470  -0.49771  -0.48655  -0.47531  -0.45727
 Alpha  occ. eigenvalues --   -0.44973  -0.44055  -0.43072  -0.37264  -0.37065
 Alpha  occ. eigenvalues --   -0.33695  -0.32462  -0.26882
 Alpha virt. eigenvalues --    0.04328   0.07582   0.09892   0.12275   0.13841
 Alpha virt. eigenvalues --    0.14380   0.15242   0.16269   0.17077   0.18668
 Alpha virt. eigenvalues --    0.18887   0.19409   0.20280   0.20874   0.21374

 Mulliken charges:
               1
     1  C   -0.478977
     2  C    0.345917
     3  O   -0.572291
     4  C    0.182789
     5  C   -0.311421
     6  H    0.159819
     7  H    0.166215
     8  H    0.166628
     9  N   -0.257380
    10  H    0.295816
    11  H    0.289140
    12  Br  -0.185248
    13  C   -0.468976
    14  H    0.167444
    15  H    0.174638
    16  H    0.162852
    17  H    0.119075
    18  N   -0.330025
    19  C   -0.257643
    20  H    0.253887
    21  H    0.126790
    22  H    0.116653
    23  H    0.134297
 Sum of Mulliken charges =  -0.00000

 Dipole moment (field-independent basis, Debye):
    X=              4.4812    Y=              7.2095    Z=              6.0455  Tot=             10.4214
 Quadrupole moment (field-independent basis, Debye-Ang):
   XX=            -84.4910   YY=            -63.9500   ZZ=            -76.6506
   XY=              5.5079   XZ=            -15.4204   YZ=             -4.8805

  Exact polarizability: 207.359   4.510 148.665   7.345   4.594 142.150
 Approx polarizability: 152.315   1.641 121.446   6.705   4.034 122.985

 ******    1 imaginary frequencies (negative Signs) ******

                      1                      2                      3
                      A                      A                      A
 Frequencies --   -390.5509                46.8706                58.2961
 Red. masses --      4.8789                 4.2326                 3.5100
 Frc consts  --      0.4385                 0.0055                 0.0070
 IR Inten    --    637.1873                11.0693                 3.4431

                      4                      5                      6
                      A                      A                      A
 Frequencies --     80.6228               142.3845               151.3187
 Red. masses --      2.0150                 2.9462                 2.5326
 Frc consts  --      0.0077                 0.0352                 0.0342
 IR Inten    --      7.2615                10.1129                 3.0394

                      7                      8                      9
                      A                      A                      A
 Frequencies --    161.6354               181.0067               201.2051
 Red. masses --      1.3843                 4.4271                 1.1510
 Frc consts  --      0.0213                 0.0855                 0.0275
 IR Inten    --      5.4505                 8.3943                 2.2314

                     10                     11                     12
                      A                      A                      A
 Frequencies --    229.7931               273.6472               285.5019
 Red. masses --      5.8522                 2.8517                 3.2889
 Frc consts  --      0.1821                 0.1258                 0.1580
 IR Inten    --     28.4387                 7.9557                47.2619

                     13                     14                     15
                      A                      A                      A
 Frequencies --    294.1934               342.8472               360.4277
 Red. masses --      3.2034                 1.2987                 2.1250
 Frc consts  --      0.1634                 0.0899                 0.1626
 IR Inten    --     13.4097                 9.1601                40.3527

                     16                     17                     18
                      A                      A                      A
 Frequencies --    401.5712               464.1521               532.4445
 Red. masses --      3.8883                 1.2639                 3.2775
 Frc consts  --      0.3694                 0.1604                 0.5475
 IR Inten    --     39.9022               102.2290                58.1389

                     19                     20                     21
                      A                      A                      A
 Frequencies --    613.4345               690.8538               721.9846
 Red. masses --      2.9938                 1.8681                 2.1546
 Frc consts  --      0.6638                 0.5253                 0.6617
 IR Inten    --    251.2859                20.3269               141.8715

                     22                     23                     24
                      A                      A                      A
 Frequencies --    754.5909               806.1688               869.7854
 Red. masses --      1.8022                 3.5219                 3.1828
 Frc consts  --      0.6046                 1.3486                 1.4187
 IR Inten    --     32.0750               101.2155                88.6699

                     25                     26                     27
                      A                      A                      A
 Frequencies --    970.8832              1014.8109              1054.6072
 Red. masses --      2.2568                 1.1523                 1.3362
 Frc consts  --      1.2534                 0.6992                 0.8756
 IR Inten    --     52.6169                29.6641                23.1542

                     28                     29                     30
                      A                      A                      A
 Frequencies --   1071.9914              1082.1497              1103.8684
 Red. masses --      3.3798                 1.3360                 1.6237
 Frc consts  --      2.2884                 0.9218                 1.1657
 IR Inten    --     18.5755                71.2860               167.8326

                     31                     32                     33
                      A                      A                      A
 Frequencies --   1144.2320              1158.3178              1185.0422
 Red. masses --      1.5839                 1.7338                 2.1628
 Frc consts  --      1.2218                 1.3706                 1.7895
 IR Inten    --      7.1303                12.0714                71.8765

                     34                     35                     36
                      A                      A                      A
 Frequencies --   1247.6375              1306.1928              1331.9445
 Red. masses --      1.3568                 1.9272                 1.5162
 Frc consts  --      1.2444                 1.9372                 1.5848
 IR Inten    --     47.4236               619.6421                52.4015

                     37                     38                     39
                      A                      A                      A
 Frequencies --   1356.4960              1419.6369              1441.4852
 Red. masses --      1.5171                 1.2821                 1.4066
 Frc consts  --      1.6447                 1.5224                 1.7221
 IR Inten    --     54.6548                38.3740               233.6673

                     40                     41                     42
                      A                      A                      A
 Frequencies --   1452.6758              1470.7966              1478.1226
 Red. masses --      1.2489                 1.8188                 1.1444
 Frc consts  --      1.5527                 2.3181                 1.4732
 IR Inten    --     41.3449               472.6956                59.1644

                     43                     44                     45
                      A                      A                      A
 Frequencies --   1491.2827              1493.9494              1504.0039
 Red. masses --      1.0475                 1.0743                 1.0877
 Frc consts  --      1.3726                 1.4127                 1.4497
 IR Inten    --     30.5053                13.9407                 5.1842

                     46                     47                     48
                      A                      A                      A
 Frequencies --   1505.7876              1516.4893              1542.2080
 Red. masses --      1.1220                 1.1462                 1.6310
 Frc consts  --      1.4989                 1.5530                 2.2856
 IR Inten    --     75.4763                28.9332               429.8598

                     49                     50                     51
                      A                      A                      A
 Frequencies --   1629.4697              1638.1684              3036.0594
 Red. masses --      4.2765                 1.1705                 1.0445
 Frc consts  --      6.6900                 1.8507                 5.6727
 IR Inten    --    965.2051                62.2493               102.3302

                     52                     53                     54
                      A                      A                      A
 Frequencies --   3070.3948              3073.3104              3111.1831
 Red. masses --      1.0364                 1.0342                 1.0915
 Frc consts  --      5.7564                 5.7552                 6.2250
 IR Inten    --      6.5999                32.3216                45.8390

                     55                     56                     57
                      A                      A                      A
 Frequencies --   3148.6117              3151.1777              3154.6212
 Red. masses --      1.1026                 1.1041                 1.1034
 Frc consts  --      6.4404                 6.4593                 6.4695
 IR Inten    --      9.0929                26.9054                 4.3599

                     58                     59                     60
                      A                      A                      A
 Frequencies --   3160.1440              3180.1913              3193.3248
 Red. masses --      1.1030                 1.1061                 1.0866
 Frc consts  --      6.4899                 6.5909                 6.5282
 IR Inten    --      9.6761                10.4751                 6.8410

                     61                     62                     63
                      A                      A                      A
 Frequencies --   3507.3481              3590.9627              3697.4677
 Red. masses --      1.0510                 1.0969                 1.0768
 Frc consts  --      7.6176                 8.3337                 8.6739
 IR Inten    --     51.4663                54.7013                36.6213

 - Thermochemistry -
 -------------------
 Temperature   298.150 Kelvin.  Pressure   1.00000 Atm.
 Atom     1 has atomic number  6 and mass  12.00000

 Molecular mass:   208.02112 amu.
 Principal axes and moments of inertia in atomic units:
                           1         2         3
     Eigenvalues --  1276.742783739.945324126.45461
           X            0.99922   0.03648  -0.01531
           Y           -0.03692   0.99888  -0.02949
           Z            0.01422   0.03003   0.99945
 This molecule is an asymmetric top.
 Rotational symmetry number  1.
 Warning -- assumption of classical behavior for rotation
           may cause significant error
 Rotational temperatures (Kelvin)      0.06784     0.02316     0.02099
 Rotational constants (GHZ):           1.41355     0.48256     0.43736
    1 imaginary frequencies ignored.
 Zero-point vibrational energy     510517.0 (Joules/Mol)
                                  122.01650 (Kcal/Mol)
 Warning -- explicit consideration of  18 degrees of freedom as
           vibrations may cause significant error
 Vibrational temperatures:     67.44    83.88   116.00   204.86   217.71
          (Kelvin)            232.56   260.43   289.49   330.62   393.72
                              410.77   423.28   493.28   518.58   577.77
                              667.81   766.07   882.60   993.98  1038.77
                             1085.69  1159.90  1251.43  1396.88  1460.09
                             1517.34  1542.36  1556.97  1588.22  1646.29
                             1666.56  1705.01  1795.07  1879.32  1916.37
                             1951.70  2042.54  2073.98  2090.08  2116.15
                             2126.69  2145.62  2149.46  2163.93  2166.49
                             2181.89  2218.89  2344.44  2356.96  4368.21
                             4417.61  4421.81  4476.30  4530.15  4533.84
                             4538.80  4546.74  4575.59  4594.48  5046.29
                             5166.59  5319.83

 Zero-point correction=                           0.194446 (Hartree/Particle)
 Thermal correction to Energy=                    0.207051
 Thermal correction to Enthalpy=                  0.207995
 Thermal correction to Gibbs Free Energy=         0.154538
 Sum of electronic and zero-point Energies=          -2995.212271
 Sum of electronic and thermal Energies=             -2995.199666
 Sum of electronic and thermal Enthalpies=           -2995.198722
 Sum of electronic and thermal Free Energies=        -2995.252178

                     E (Thermal)             CV                S
                      KCal/Mol        Cal/Mol-Kelvin    Cal/Mol-Kelvin
 Total                  129.926             44.065            112.509
 Electronic               0.000              0.000              0.000
 Translational            0.889              2.981             41.901
 Rotational               0.889              2.981             31.355
 Vibrational            128.149             38.103             39.253
 Vibration     1          0.595              1.979              4.945
 Vibration     2          0.596              1.974              4.514
 Vibration     3          0.600              1.962              3.876
 Vibration     4          0.616              1.911              2.772
 Vibration     5          0.619              1.901              2.656
 Vibration     6          0.622              1.889              2.531
 Vibration     7          0.630              1.866              2.318
 Vibration     8          0.638              1.838              2.122
 Vibration     9          0.652              1.796              1.881
 Vibration    10          0.676              1.722              1.573
 Vibration    11          0.683              1.701              1.500
 Vibration    12          0.689              1.685              1.450
 Vibration    13          0.722              1.590              1.199
 Vibration    14          0.735              1.554              1.120
 Vibration    15          0.767              1.467              0.957
 Vibration    16          0.822              1.330              0.754
 Vibration    17          0.887              1.178              0.582
 Vibration    18          0.973              1.003              0.427

 Optimization completed.
    -- Stationary point found.
 Normal termination of Gaussian 16 at Fri Feb 19 11:05:31 2021.
