 Gaussian 16, Revision A.03,
 Gaussian 16:  ES64L-G16RevA.03 25-Dec-2016

 ----------------------------------------------------------------------
 # wB97XD def2tzvp, opt=(ts, noeigen, calcfc, maxcycles=70, maxstep=1),
  freq=noraman, scrf=(iefpcm, solvent=water)
 ----------------------------------------------------------------------

 ------------------------
 0_iteration/TS-652-0.out
 ------------------------
 Symbolic Z-matrix:
 Charge =  0 Multiplicity = 1

 SCF Done:  E(RwB97XD) =  -2975.96014590     A.U. after   14 cycles
 SCF Done:  E(RwB97XD) =  -2975.96012584     A.U. after   10 cycles
 SCF Done:  E(RwB97XD) =  -2975.96010992     A.U. after   10 cycles
 SCF Done:  E(RwB97XD) =  -2975.96009826     A.U. after   10 cycles
 SCF Done:  E(RwB97XD) =  -2975.96009144     A.U. after   10 cycles
 SCF Done:  E(RwB97XD) =  -2975.96009166     A.U. after   10 cycles
 SCF Done:  E(RwB97XD) =  -2975.96010801     A.U. after   10 cycles
 SCF Done:  E(RwB97XD) =  -2975.96012790     A.U. after   10 cycles
 SCF Done:  E(RwB97XD) =  -2975.96015641     A.U. after   10 cycles
 SCF Done:  E(RwB97XD) =  -2975.96019605     A.U. after   10 cycles
 SCF Done:  E(RwB97XD) =  -2975.96175417     A.U. after    9 cycles
 SCF Done:  E(RwB97XD) =  -2975.96179563     A.U. after    9 cycles
 SCF Done:  E(RwB97XD) =  -2975.96183059     A.U. after    9 cycles
 SCF Done:  E(RwB97XD) =  -2975.96185880     A.U. after    9 cycles
 SCF Done:  E(RwB97XD) =  -2975.96187931     A.U. after    9 cycles
 SCF Done:  E(RwB97XD) =  -2975.96189319     A.U. after    9 cycles
 SCF Done:  E(RwB97XD) =  -2975.96190029     A.U. after    9 cycles
 SCF Done:  E(RwB97XD) =  -2975.96190076     A.U. after    8 cycles
 SCF Done:  E(RwB97XD) =  -2975.96190077     A.U. after    6 cycles
 Optimization completed.
    -- Stationary point found.
 Normal termination of Gaussian 16 at Thu Feb 18 17:43:59 2021.

 ---------------------------------------------------------------------
 #N Geom=AllCheck Guess=TCheck SCRF=Check GenChk RwB97XD/def2TZVP Freq
 ---------------------------------------------------------------------

 Structure from the checkpoint file:  "/beegfs/scratch/user/q/tla25/Gau-27630.chk"
 ------------------------
 0_iteration/TS-652-0.out
 ------------------------
 Charge =  0 Multiplicity = 1

                         Standard orientation:
 ---------------------------------------------------------------------
 Center     Atomic      Atomic             Coordinates (Angstroms)
 Number     Number       Type             X           Y           Z
 ---------------------------------------------------------------------
      1          6           0        0.740625   -0.538431    0.298654
      2          6           0        2.003997   -0.029473   -0.127679
      3          8           0        2.189745    0.878133   -0.931001
      4          6           0       -0.398717    0.013649   -0.249405
      5          6           0       -1.898950    2.487488   -0.007151
      6          1           0       -1.999305    3.449393    0.496433
      7          1           0       -1.617536    2.658531   -1.045586
      8          1           0       -2.854573    1.968114    0.020211
      9          7           0       -0.881833    1.651210    0.626236
     10          1           0        0.021480    2.111289    0.647480
     11          1           0       -1.126731    1.398914    1.577173
     12         35           0       -2.036307   -0.971946   -0.069130
     13          1           0       -0.342773    0.497812   -1.215606
     14          1           0        0.693901   -1.262641    1.097465
     15          8           0        3.044684   -0.666395    0.463966
     16          6           0        4.344436   -0.218017    0.105471
     17          1           0        5.038483   -0.827149    0.679537
     18          1           0        4.527038   -0.354409   -0.961003
     19          1           0        4.479801    0.834574    0.356740
 ---------------------------------------------------------------------

 SCF Done:  E(RwB97XD) =  -2975.96190077     A.U. after    1 cycles

 The electronic state is 1-A.
 Alpha  occ. eigenvalues -- -483.13435 -62.68299 -56.47408 -56.47063 -56.47049
 Alpha  occ. eigenvalues --  -19.28017 -19.21194 -14.48632 -10.39503 -10.38447
 Alpha  occ. eigenvalues --  -10.32517 -10.31946 -10.25565  -8.82425  -6.64565
 Alpha  occ. eigenvalues --   -6.63461  -6.63415  -2.74958  -2.74641  -2.74606
 Alpha  occ. eigenvalues --   -2.73713  -2.73712  -1.19245  -1.09728  -1.04046
 Alpha  occ. eigenvalues --   -0.92985  -0.85789  -0.80957  -0.78805  -0.70614
 Alpha  occ. eigenvalues --   -0.64277  -0.63254  -0.60020  -0.57148  -0.56513
 Alpha  occ. eigenvalues --   -0.55648  -0.54006  -0.51395  -0.49626  -0.48369
 Alpha  occ. eigenvalues --   -0.47855  -0.46117  -0.45058  -0.43241  -0.38089
 Alpha  occ. eigenvalues --   -0.37965  -0.37311  -0.35251  -0.28220
 Alpha virt. eigenvalues --    0.05105   0.06893   0.10649   0.13582   0.14296
 Alpha virt. eigenvalues --    0.15816   0.15877   0.17041   0.17645   0.18865
 Alpha virt. eigenvalues --    0.19328   0.19809   0.20427   0.21001   0.23362

 Mulliken charges:
               1
     1  C   -0.454037
     2  C    0.433495
     3  O   -0.523111
     4  C    0.007556
     5  C   -0.271588
     6  H    0.155028
     7  H    0.151443
     8  H    0.150969
     9  N   -0.330783
    10  H    0.284105
    11  H    0.282620
    12  Br  -0.094204
    13  H    0.175835
    14  H    0.142452
    15  O   -0.311370
    16  C   -0.184403
    17  H    0.137159
    18  H    0.125014
    19  H    0.123818
 Sum of Mulliken charges =  -0.00000

 Dipole moment (field-independent basis, Debye):
    X=             -3.4830    Y=              4.3885    Z=              2.8707  Tot=              6.2953
 Quadrupole moment (field-independent basis, Debye-Ang):
   XX=            -62.9528   YY=            -61.0867   ZZ=            -66.7829
   XY=             -8.1447   XZ=              1.7847   YZ=              4.7334

  Exact polarizability: 185.592  -9.262 134.044  -2.892  -3.293 104.013
 Approx polarizability: 131.433  -3.075 110.923  -2.051  -5.219  93.264

 ******    1 imaginary frequencies (negative Signs) ******

                      1                      2                      3
                      A                      A                      A
 Frequencies --   -366.0938                46.5044                66.1869
 Red. masses --      6.5820                 4.2525                 3.4455
 Frc consts  --      0.5197                 0.0054                 0.0089
 IR Inten    --    924.1086                 3.2531                 5.2167

                      4                      5                      6
                      A                      A                      A
 Frequencies --     73.4488               113.9022               136.8317
 Red. masses --      2.2887                 2.8323                 2.5143
 Frc consts  --      0.0073                 0.0217                 0.0277
 IR Inten    --      5.6333                10.9650                 2.0590

                      7                      8                      9
                      A                      A                      A
 Frequencies --    152.7230               171.9723               182.3966
 Red. masses --      1.6295                 1.4089                 2.4992
 Frc consts  --      0.0224                 0.0245                 0.0490
 IR Inten    --      0.8064                 6.5517                 5.3211

                     10                     11                     12
                      A                      A                      A
 Frequencies --    239.3549               279.0243               319.5189
 Red. masses --      6.7502                 3.0908                 4.1213
 Frc consts  --      0.2279                 0.1418                 0.2479
 IR Inten    --      1.7260                 9.5549                56.0551

                     13                     14                     15
                      A                      A                      A
 Frequencies --    406.4025               511.7941               624.8935
 Red. masses --      4.3329                 3.6563                 2.0231
 Frc consts  --      0.4216                 0.5643                 0.4655
 IR Inten    --     71.2181                37.9980                19.4427

                     16                     17                     18
                      A                      A                      A
 Frequencies --    677.9315               702.5552               775.7158
 Red. masses --      1.2639                 2.8062                 3.0346
 Frc consts  --      0.3422                 0.8161                 1.0759
 IR Inten    --    108.3777                62.2249               167.2800

                     19                     20                     21
                      A                      A                      A
 Frequencies --    797.7907               962.1321              1006.3298
 Red. masses --      9.7640                 4.0809                 1.0993
 Frc consts  --      3.6615                 2.2258                 0.6559
 IR Inten    --     91.6393                19.2441                15.5804

                     22                     23                     24
                      A                      A                      A
 Frequencies --   1037.6118              1071.7545              1086.7931
 Red. masses --      1.1455                 4.4296                 4.3493
 Frc consts  --      0.7266                 2.9978                 3.0267
 IR Inten    --     62.4822               191.7404               124.7247

                     25                     26                     27
                      A                      A                      A
 Frequencies --   1163.7648              1176.4219              1181.2811
 Red. masses --      1.2070                 1.5578                 1.2887
 Frc consts  --      0.9632                 1.2702                 1.0595
 IR Inten    --     33.6135               681.3650                22.0171

                     28                     29                     30
                      A                      A                      A
 Frequencies --   1216.1164              1221.5564              1253.3260
 Red. masses --      1.5139                 1.4093                 1.3312
 Frc consts  --      1.3192                 1.2390                 1.2321
 IR Inten    --     36.0038                17.1605               135.3358

                     31                     32                     33
                      A                      A                      A
 Frequencies --   1312.0843              1344.2483              1455.7994
 Red. masses --      3.3078                 1.3217                 1.3942
 Frc consts  --      3.3551                 1.4071                 1.7409
 IR Inten    --    112.3688                 7.7800               310.3242

                     34                     35                     36
                      A                      A                      A
 Frequencies --   1468.9984              1481.4059              1487.0779
 Red. masses --      1.3975                 1.0479                 1.3963
 Frc consts  --      1.7768                 1.3550                 1.8193
 IR Inten    --    217.5484                16.9257               625.4368

                     37                     38                     39
                      A                      A                      A
 Frequencies --   1491.3664              1500.1158              1504.9597
 Red. masses --      1.0409                 1.2369                 1.0915
 Frc consts  --      1.3641                 1.6399                 1.4566
 IR Inten    --     18.3893               242.3760                41.8910

                     40                     41                     42
                      A                      A                      A
 Frequencies --   1640.1884              1685.5126              3059.0616
 Red. masses --      1.0989                 9.4502                 1.0310
 Frc consts  --      1.7417                15.8181                 5.6846
 IR Inten    --     50.6082               633.4624                64.3028

                     43                     44                     45
                      A                      A                      A
 Frequencies --   3067.6881              3132.7312              3144.5473
 Red. masses --      1.0339                 1.1066                 1.1049
 Frc consts  --      5.7326                 6.3984                 6.4373
 IR Inten    --     43.0596                42.1980                15.9230

                     46                     47                     48
                      A                      A                      A
 Frequencies --   3168.2183              3168.5758              3202.3838
 Red. masses --      1.1051                 1.1050                 1.0920
 Frc consts  --      6.5356                 6.5361                 6.5984
 IR Inten    --     12.1326                27.9087                 3.9622

                     49                     50                     51
                      A                      A                      A
 Frequencies --   3237.8945              3519.1446              3604.2641
 Red. masses --      1.0907                 1.0508                 1.0971
 Frc consts  --      6.7371                 7.6671                 8.3971
 IR Inten    --      0.9315                24.8851                50.3492

 - Thermochemistry -
 -------------------
 Temperature   298.150 Kelvin.  Pressure   1.00000 Atm.
 Atom     1 has atomic number  6 and mass  12.00000

 Molecular mass:   194.98949 amu.
 Principal axes and moments of inertia in atomic units:
                           1         2         3
     Eigenvalues --   976.539303589.629404324.74072
           X            0.99875  -0.04990  -0.00031
           Y            0.04990   0.99875   0.00120
           Z            0.00025  -0.00122   1.00000
 This molecule is an asymmetric top.
 Rotational symmetry number  1.
 Warning -- assumption of classical behavior for rotation
           may cause significant error
 Rotational temperatures (Kelvin)      0.08869     0.02413     0.02003
 Rotational constants (GHZ):           1.84810     0.50277     0.41731
    1 imaginary frequencies ignored.
 Zero-point vibrational energy     402736.6 (Joules/Mol)
                                   96.25636 (Kcal/Mol)
 Warning -- explicit consideration of  13 degrees of freedom as
           vibrations may cause significant error
 Vibrational temperatures:     66.91    95.23   105.68   163.88   196.87
          (Kelvin)            219.73   247.43   262.43   344.38   401.45
                              459.72   584.72   736.36   899.08   975.39
                             1010.82  1116.08  1147.84  1384.29  1447.88
                             1492.89  1542.02  1563.65  1674.40  1692.61
                             1699.60  1749.72  1757.55  1803.26  1887.80
                             1934.07  2094.57  2113.56  2131.41  2139.57
                             2145.74  2158.33  2165.30  2359.87  2425.08
                             4401.31  4413.72  4507.30  4524.30  4558.36
                             4558.87  4607.52  4658.61  5063.26  5185.73

 Zero-point correction=                           0.153394 (Hartree/Particle)
 Thermal correction to Energy=                    0.164601
 Thermal correction to Enthalpy=                  0.165545
 Thermal correction to Gibbs Free Energy=         0.114224
 Sum of electronic and zero-point Energies=          -2975.808507
 Sum of electronic and thermal Energies=             -2975.797300
 Sum of electronic and thermal Enthalpies=           -2975.796356
 Sum of electronic and thermal Free Energies=        -2975.847677

                     E (Thermal)             CV                S
                      KCal/Mol        Cal/Mol-Kelvin    Cal/Mol-Kelvin
 Total                  103.289             37.064            108.015
 Electronic               0.000              0.000              0.000
 Translational            0.889              2.981             41.709
 Rotational               0.889              2.981             31.095
 Vibrational            101.511             31.103             35.212
 Vibration     1          0.595              1.979              4.961
 Vibration     2          0.598              1.970              4.264
 Vibration     3          0.599              1.967              4.059
 Vibration     4          0.607              1.938              3.201
 Vibration     5          0.614              1.917              2.848
 Vibration     6          0.619              1.900              2.638
 Vibration     7          0.626              1.877              2.414
 Vibration     8          0.630              1.864              2.304
 Vibration     9          0.657              1.780              1.808
 Vibration    10          0.679              1.712              1.540
 Vibration    11          0.705              1.636              1.313
 Vibration    12          0.771              1.456              0.939
 Vibration    13          0.867              1.224              0.629

 Optimization completed.
    -- Stationary point found.
 Normal termination of Gaussian 16 at Thu Feb 18 17:52:23 2021.
