 Gaussian 16, Revision C.01,
 Gaussian 16:  ES64L-G16RevC.01  3-Jul-2019

 ----------------------------------------------------------------------
 # opt=(calcfc,ts,noeigen,maxcycles=100,maxstep=10) freq=noraman wb97xd
  scrf=(iefpcm,solvent=water) def2tzvp
 ----------------------------------------------------------------------

 ----------
 TS-622.out
 ----------
 Symbolic Z-matrix:
 Charge =  0 Multiplicity = 1

 SCF Done:  E(RwB97XD) =  -3265.75539670     A.U. after   16 cycles
 SCF Done:  E(RwB97XD) =  -3265.75539669     A.U. after    6 cycles
 Optimization completed.
    -- Stationary point found.
 Normal termination of Gaussian 16 at Tue Jun  7 00:13:09 2022.

 ---------------------------------------------------------------------
 #N Geom=AllCheck Guess=TCheck SCRF=Check GenChk RwB97XD/def2TZVP Freq
 ---------------------------------------------------------------------

 Structure from the checkpoint file:  "/local/jobs/107537/Gau-2621168.chk"
 ----------
 TS-622.out
 ----------
 Charge =  0 Multiplicity = 1

                         Standard orientation:
 ---------------------------------------------------------------------
 Center     Atomic      Atomic             Coordinates (Angstroms)
 Number     Number       Type             X           Y           Z
 ---------------------------------------------------------------------
      1          6           0       -0.326885   -1.426226    0.178831
      2          6           0        1.087139   -1.885262    0.094476
      3          8           0        1.529905   -2.669674    0.938395
      4          6           0       -0.647836   -0.118092    0.203642
      5          6           0       -1.063348   -0.238940    3.021123
      6          1           0       -0.335957    0.486050    3.377165
      7          1           0       -1.787145   -0.436988    3.811159
      8          1           0       -0.542562   -1.166177    2.769248
      9          7           0       -1.711021    0.264091    1.818106
     10          1           0       -2.607204   -0.173751    1.648923
     11          1           0       -1.851794    1.266850    1.829470
     12         35           0       -2.426213    0.371686   -0.987861
     13          6           0        0.318332    1.009078    0.224457
     14          6           0        0.235009    2.122576   -0.607016
     15          6           0        1.197848    3.119382   -0.556597
     16          6           0        2.258555    3.027414    0.329823
     17          6           0        2.347984    1.928681    1.172563
     18          6           0        1.386047    0.935418    1.125470
     19          1           0       -0.581798    2.208724   -1.307658
     20          1           0        1.115136    3.971337   -1.219292
     21          1           0        3.008801    3.806875    0.367435
     22          1           0        3.168701    1.843193    1.873173
     23          1           0        1.472808    0.083080    1.785177
     24          6           0       -1.357524   -2.511436    0.324168
     25          1           0       -2.020728   -2.351084    1.178684
     26          1           0       -1.991141   -2.571044   -0.565371
     27          1           0       -0.872825   -3.475376    0.467971
     28          7           0        1.865710   -1.451447   -0.925647
     29          6           0        1.389397   -0.805097   -2.129127
     30          6           0        3.284175   -1.738625   -0.905688
     31          1           0        0.303958   -0.810422   -2.162113
     32          1           0        1.738093    0.229549   -2.182020
     33          1           0        1.770266   -1.344031   -3.000246
     34          1           0        3.602021   -1.944427    0.112223
     35          1           0        3.525890   -2.602985   -1.531508
     36          1           0        3.827516   -0.872746   -1.288403
 ---------------------------------------------------------------------

 SCF Done:  E(RwB97XD) =  -3265.75539669     A.U. after    1 cycles

 The electronic state is 1-A.
 Alpha  occ. eigenvalues -- -483.09464 -62.64325 -56.43368 -56.43123 -56.43114
 Alpha  occ. eigenvalues --  -19.20607 -14.48377 -14.46205 -10.38557 -10.38322
 Alpha  occ. eigenvalues --  -10.31597 -10.31403 -10.30714 -10.30477 -10.29771
 Alpha  occ. eigenvalues --  -10.29523 -10.29498 -10.29388 -10.29327 -10.27591
 Alpha  occ. eigenvalues --  -10.27377  -8.78413  -6.60319  -6.59561  -6.59532
 Alpha  occ. eigenvalues --   -2.70724  -2.70533  -2.70509  -2.69896  -2.69895
 Alpha  occ. eigenvalues --   -1.13528  -1.03905  -1.03423  -0.97730  -0.92186
 Alpha  occ. eigenvalues --   -0.86365  -0.85802  -0.83489  -0.81699  -0.79791
 Alpha  occ. eigenvalues --   -0.78810  -0.77727  -0.71361  -0.70658  -0.67089
 Alpha  occ. eigenvalues --   -0.64034  -0.62492  -0.61368  -0.57697  -0.57525
 Alpha  occ. eigenvalues --   -0.56802  -0.56006  -0.55323  -0.54780  -0.53008
 Alpha  occ. eigenvalues --   -0.51582  -0.51243  -0.50377  -0.48933  -0.48673
 Alpha  occ. eigenvalues --   -0.48377  -0.47891  -0.47355  -0.46832  -0.46213
 Alpha  occ. eigenvalues --   -0.45091  -0.44526  -0.43738  -0.42122  -0.41382
 Alpha  occ. eigenvalues --   -0.35695  -0.35393  -0.34532  -0.34257  -0.33885
 Alpha  occ. eigenvalues --   -0.31756  -0.26964
 Alpha virt. eigenvalues --    0.00500   0.04578   0.04862   0.08109   0.10039
 Alpha virt. eigenvalues --    0.11852   0.13230   0.13673   0.14000   0.14317
 Alpha virt. eigenvalues --    0.15740   0.16442   0.16576   0.17312   0.18008

 Mulliken charges:
               1
     1  C   -0.032678
     2  C    0.234577
     3  O   -0.509687
     4  C    0.147135
     5  C   -0.301847
     6  H    0.162123
     7  H    0.162723
     8  H    0.149212
     9  N   -0.336278
    10  H    0.285446
    11  H    0.290279
    12  Br  -0.377118
    13  C    0.114307
    14  C   -0.227721
    15  C   -0.124777
    16  C   -0.136961
    17  C   -0.161483
    18  C   -0.271656
    19  H    0.143966
    20  H    0.143954
    21  H    0.146315
    22  H    0.144759
    23  H    0.186622
    24  C   -0.420337
    25  H    0.120131
    26  H    0.133957
    27  H    0.137195
    28  N   -0.072534
    29  C   -0.311173
    30  C   -0.291360
    31  H    0.152547
    32  H    0.150285
    33  H    0.146643
    34  H    0.144751
    35  H    0.140808
    36  H    0.137874
 Sum of Mulliken charges =  -0.00000

 Dipole moment (field-independent basis, Debye):
    X=              0.5657    Y=              4.6051    Z=              2.5718  Tot=              5.3048
 Quadrupole moment (field-independent basis, Debye-Ang):
   XX=           -112.1263   YY=           -122.0451   ZZ=           -104.6937
   XY=              9.7401   XZ=            -16.3396   YZ=              7.7815

  Exact polarizability:     304.578       2.783     288.074      24.176     -26.128     269.037
 Approx polarizability:     235.452      -0.611     232.108      20.121     -24.120     221.281

 ******    1 imaginary frequencies (negative Signs) ******

                      1                      2                      3
                      A                      A                      A
 Frequencies --   -442.5533                33.4696                45.7623
 Red. masses --      6.3525                 2.5402                 3.8345
 Frc consts  --      0.7330                 0.0017                 0.0047
 IR Inten    --    552.6137                 4.7023                 0.7862

                      4                      5                      6
                      A                      A                      A
 Frequencies --     58.1988                66.3017                78.5544
 Red. masses --      1.5881                 2.6883                 1.7748
 Frc consts  --      0.0032                 0.0070                 0.0065
 IR Inten    --      7.1199                 2.5104                10.1651

                      7                      8                      9
                      A                      A                      A
 Frequencies --     83.3014                93.1016               103.6317
 Red. masses --      2.1577                 3.1882                 3.1968
 Frc consts  --      0.0088                 0.0163                 0.0202
 IR Inten    --      9.6975                13.2691                11.2265

                     10                     11                     12
                      A                      A                      A
 Frequencies --    131.6313               156.1749               164.9459
 Red. masses --      3.6210                 3.1829                 3.2028
 Frc consts  --      0.0370                 0.0457                 0.0513
 IR Inten    --      1.7230                12.0405                 1.9947

                     13                     14                     15
                      A                      A                      A
 Frequencies --    187.2347               191.7888               214.5241
 Red. masses --      4.5686                 1.6907                 1.8893
 Frc consts  --      0.0944                 0.0366                 0.0512
 IR Inten    --     74.4298                 5.3059                12.6009

                     16                     17                     18
                      A                      A                      A
 Frequencies --    228.9760               243.1935               247.9661
 Red. masses --      1.5986                 2.1657                 3.8746
 Frc consts  --      0.0494                 0.0755                 0.1404
 IR Inten    --      2.2609                 6.9486                10.1020

                     19                     20                     21
                      A                      A                      A
 Frequencies --    290.4695               307.8891               309.1544
 Red. masses --      2.2930                 3.1514                 3.1151
 Frc consts  --      0.1140                 0.1760                 0.1754
 IR Inten    --      9.8375                 5.8924                14.8075

                     22                     23                     24
                      A                      A                      A
 Frequencies --    346.4423               381.0135               417.3226
 Red. masses --      4.0934                 4.3096                 2.9473
 Frc consts  --      0.2895                 0.3686                 0.3024
 IR Inten    --     17.7001                14.6515                 1.7385

                     25                     26                     27
                      A                      A                      A
 Frequencies --    425.5817               471.8367               533.8584
 Red. masses --      2.9020                 3.5693                 3.6607
 Frc consts  --      0.3097                 0.4682                 0.6147
 IR Inten    --      1.2551                23.7620                78.4729

                     28                     29                     30
                      A                      A                      A
 Frequencies --    568.8720               592.1287               619.7955
 Red. masses --      3.1540                 2.1495                 4.2135
 Frc consts  --      0.6014                 0.4440                 0.9537
 IR Inten    --    311.6439               126.0194                91.8999

                     31                     32                     33
                      A                      A                      A
 Frequencies --    638.6971               671.7733               721.8185
 Red. masses --      6.1479                 3.1937                 1.6803
 Frc consts  --      1.4776                 0.8492                 0.5158
 IR Inten    --     14.0439                16.3018                69.3471

                     34                     35                     36
                      A                      A                      A
 Frequencies --    732.1496               794.0396               807.3884
 Red. masses --      4.5034                 5.0422                 2.4707
 Frc consts  --      1.4223                 1.8731                 0.9489
 IR Inten    --    154.5400                19.8430                16.1645

                     37                     38                     39
                      A                      A                      A
 Frequencies --    867.2454               876.1629               963.0458
 Red. masses --      3.3246                 1.2491                 2.0805
 Frc consts  --      1.4732                 0.5650                 1.1369
 IR Inten    --    117.7760                 0.5508                 7.1900

                     40                     41                     42
                      A                      A                      A
 Frequencies --    974.2829              1009.8127              1014.9362
 Red. masses --      1.9381                 1.0731                 1.1763
 Frc consts  --      1.0839                 0.6447                 0.7139
 IR Inten    --      1.0119                 8.3338               163.4142

                     43                     44                     45
                      A                      A                      A
 Frequencies --   1019.3550              1025.4299              1036.4797
 Red. masses --      1.3888                 5.5871                 1.3249
 Frc consts  --      0.8503                 3.4614                 0.8386
 IR Inten    --      0.4240                 1.0634                 1.4851

                     46                     47                     48
                      A                      A                      A
 Frequencies --   1038.8236              1056.9271              1067.0093
 Red. masses --      1.8255                 1.4476                 2.0085
 Frc consts  --      1.1607                 0.9528                 1.3473
 IR Inten    --     64.5944                21.7251                14.0291

                     49                     50                     51
                      A                      A                      A
 Frequencies --   1081.9977              1086.3105              1116.9847
 Red. masses --      4.1907                 1.3645                 1.6772
 Frc consts  --      2.8906                 0.9487                 1.2329
 IR Inten    --     34.4518                12.5281                63.6118

                     52                     53                     54
                      A                      A                      A
 Frequencies --   1125.9637              1132.9788              1177.7482
 Red. masses --      1.8280                 1.2331                 1.3917
 Frc consts  --      1.3654                 0.9326                 1.1373
 IR Inten    --     67.6851                 0.9624                 7.7486

                     55                     56                     57
                      A                      A                      A
 Frequencies --   1185.1613              1190.6997              1213.4860
 Red. masses --      1.1236                 1.4234                 1.1421
 Frc consts  --      0.9299                 1.1890                 0.9909
 IR Inten    --      0.2540                23.0822                 9.0833

                     58                     59                     60
                      A                      A                      A
 Frequencies --   1230.9997              1259.4469              1315.1001
 Red. masses --      3.7487                 4.0000                 5.4367
 Frc consts  --      3.3470                 3.7383                 5.5400
 IR Inten    --     23.4479               279.0658               116.3465

                     61                     62                     63
                      A                      A                      A
 Frequencies --   1318.3077              1324.1070              1358.8686
 Red. masses --      4.2248                 1.3549                 1.4699
 Frc consts  --      4.3260                 1.3996                 1.5992
 IR Inten    --      4.4155                 0.8870                 7.2261

                     64                     65                     66
                      A                      A                      A
 Frequencies --   1408.5654              1434.0893              1444.1714
 Red. masses --      1.2400                 1.7628                 1.2716
 Frc consts  --      1.4496                 2.1360                 1.5625
 IR Inten    --      0.8699               215.9427                61.8358

                     67                     68                     69
                      A                      A                      A
 Frequencies --   1454.3794              1470.0664              1476.5267
 Red. masses --      1.1686                 1.1484                 1.0745
 Frc consts  --      1.4563                 1.4622                 1.3802
 IR Inten    --     21.2032                36.9938                49.8435

                     70                     71                     72
                      A                      A                      A
 Frequencies --   1485.1458              1487.1417              1489.1220
 Red. masses --      1.1355                 2.1445                 1.0475
 Frc consts  --      1.4756                 2.7944                 1.3685
 IR Inten    --     27.2443                31.2535                44.9055

                     73                     74                     75
                      A                      A                      A
 Frequencies --   1492.1444              1496.8554              1505.7150
 Red. masses --      1.0592                 1.0398                 1.0556
 Frc consts  --      1.3894                 1.3727                 1.4100
 IR Inten    --     18.3604                24.9973                 8.2888

                     76                     77                     78
                      A                      A                      A
 Frequencies --   1506.3648              1534.1042              1543.2833
 Red. masses --      1.0444                 2.1891                 1.5402
 Frc consts  --      1.3963                 3.0355                 2.1614
 IR Inten    --     13.5167                48.3799               276.8112

                     79                     80                     81
                      A                      A                      A
 Frequencies --   1613.7715              1642.5057              1647.9306
 Red. masses --      7.8289                 1.1121                 5.4146
 Frc consts  --     12.0125                 1.7677                 8.6635
 IR Inten    --    417.8011                63.3716               104.3795

                     82                     83                     84
                      A                      A                      A
 Frequencies --   1654.0666              1672.8069              3035.3831
 Red. masses --      8.2182                 6.0504                 1.0394
 Frc consts  --     13.2475                 9.9754                 5.6421
 IR Inten    --    643.9866                 4.5788                74.5941

                     85                     86                     87
                      A                      A                      A
 Frequencies --   3037.8648              3042.1783              3054.3426
 Red. masses --      1.0401                 1.0397                 1.0384
 Frc consts  --      5.6555                 5.6695                 5.7074
 IR Inten    --     48.4535               115.8308                41.7023

                     88                     89                     90
                      A                      A                      A
 Frequencies --   3085.6413              3095.8507              3104.5863
 Red. masses --      1.1008                 1.1029                 1.1002
 Frc consts  --      6.1751                 6.2282                 6.2478
 IR Inten    --     45.4390                78.4594                15.1318

                     91                     92                     93
                      A                      A                      A
 Frequencies --   3131.1139              3148.9617              3173.6414
 Red. masses --      1.1004                 1.0975                 1.1037
 Frc consts  --      6.3564                 6.4120                 6.5495
 IR Inten    --     10.5128                18.1056                13.6243

                     94                     95                     96
                      A                      A                      A
 Frequencies --   3178.5543              3179.1692              3199.8943
 Red. masses --      1.0987                 1.0987                 1.0863
 Frc consts  --      6.5400                 6.5426                 6.5535
 IR Inten    --      4.1847                12.0903                 0.0175

                     97                     98                     99
                      A                      A                      A
 Frequencies --   3209.2355              3220.3127              3229.1549
 Red. masses --      1.0902                 1.0944                 1.0960
 Frc consts  --      6.6155                 6.6867                 6.7334
 IR Inten    --     14.1919                20.2897                 9.6000

                    100                    101                    102
                      A                      A                      A
 Frequencies --   3240.7369              3539.5928              3624.2101
 Red. masses --      1.0931                 1.0508                 1.0971
 Frc consts  --      6.7641                 7.7570                 8.4903
 IR Inten    --      4.1819                45.3433                53.8922

 - Thermochemistry -
 -------------------
 Temperature   298.150 Kelvin.  Pressure   1.00000 Atm.
 Atom     1 has atomic number  6 and mass  12.00000

 Molecular mass:   298.06807 amu.
 Principal axes and moments of inertia in atomic units:
                           1         2         3
     Eigenvalues --  4312.832445360.850376551.36903
           X            0.99486   0.06462  -0.07795
           Y           -0.06371   0.99787   0.01402
           Z            0.07869  -0.00898   0.99686
 This molecule is an asymmetric top.
 Rotational symmetry number  1.
 Warning -- assumption of classical behavior for rotation
           may cause significant error
 Rotational temperatures (Kelvin)      0.02008     0.01616     0.01322
 Rotational constants (GHZ):           0.41846     0.33665     0.27548
    1 imaginary frequencies ignored.
 Zero-point vibrational energy     795611.4 (Joules/Mol)
                                  190.15569 (Kcal/Mol)
 Warning -- explicit consideration of  29 degrees of freedom as
           vibrations may cause significant error
 Vibrational temperatures:     48.16    65.84    83.74    95.39   113.02
          (Kelvin)            119.85   133.95   149.10   189.39   224.70
                              237.32   269.39   275.94   308.65   329.45
                              349.90   356.77   417.92   442.98   444.80
                              498.45   548.19   600.43   612.32   678.87
                              768.10   818.48   851.94   891.75   918.94
                              966.53  1038.54  1053.40  1142.45  1161.65
                             1247.77  1260.60  1385.61  1401.78  1452.90
                             1460.27  1466.62  1475.36  1491.26  1494.64
                             1520.68  1535.19  1556.75  1562.96  1607.09
                             1620.01  1630.10  1694.52  1705.18  1713.15
                             1745.94  1771.13  1812.06  1892.14  1896.75
                             1905.09  1955.11  2026.61  2063.33  2077.84
                             2092.53  2115.10  2124.39  2136.79  2139.67
                             2142.51  2146.86  2153.64  2166.39  2167.32
                             2207.23  2220.44  2321.86  2363.20  2371.00
                             2379.83  2406.80  4367.24  4370.81  4377.02
                             4394.52  4439.55  4454.24  4466.81  4504.97
                             4530.65  4566.16  4573.23  4574.12  4603.93
                             4617.37  4633.31  4646.03  4662.70  5092.68
                             5214.43

 Zero-point correction=                           0.303032 (Hartree/Particle)
 Thermal correction to Energy=                    0.322239
 Thermal correction to Enthalpy=                  0.323183
 Thermal correction to Gibbs Free Energy=         0.254296
 Sum of electronic and zero-point Energies=          -3265.452364
 Sum of electronic and thermal Energies=             -3265.433158
 Sum of electronic and thermal Enthalpies=           -3265.432214
 Sum of electronic and thermal Free Energies=        -3265.501101

                     E (Thermal)             CV                S
                      KCal/Mol        Cal/Mol-Kelvin    Cal/Mol-Kelvin
 Total                  202.208             68.697            144.985
 Electronic               0.000              0.000              0.000
 Translational            0.889              2.981             42.973
 Rotational               0.889              2.981             33.382
 Vibrational            200.431             62.736             68.630
 Vibration     1          0.594              1.983              5.612
 Vibration     2          0.595              1.979              4.993
 Vibration     3          0.596              1.974              4.517
 Vibration     4          0.598              1.970              4.260
 Vibration     5          0.600              1.964              3.927
 Vibration     6          0.600              1.961              3.812
 Vibration     7          0.602              1.954              3.594
 Vibration     8          0.605              1.946              3.385
 Vibration     9          0.612              1.922              2.922
 Vibration    10          0.620              1.896              2.596
 Vibration    11          0.623              1.886              2.492
 Vibration    12          0.632              1.857              2.255
 Vibration    13          0.634              1.851              2.210
 Vibration    14          0.644              1.819              2.005
 Vibration    15          0.652              1.797              1.887
 Vibration    16          0.659              1.774              1.779
 Vibration    17          0.662              1.766              1.745
 Vibration    18          0.686              1.691              1.471
 Vibration    19          0.698              1.659              1.374
 Vibration    20          0.699              1.656              1.367
 Vibration    21          0.724              1.583              1.182
 Vibration    22          0.751              1.511              1.035
 Vibration    23          0.780              1.433              0.901
 Vibration    24          0.787              1.415              0.873
 Vibration    25          0.829              1.313              0.732
 Vibration    26          0.889              1.175              0.579
 Vibration    27          0.925              1.099              0.506
 Vibration    28          0.950              1.049              0.463
 Vibration    29          0.980              0.990              0.417

 Optimization completed.
    -- Stationary point found.
 Normal termination of Gaussian 16 at Tue Jun  7 01:23:47 2022.
