 Gaussian 16, Revision A.03,
 Gaussian 16:  ES64L-G16RevA.03 25-Dec-2016

 ----------------------------------------------------------------------
 # wB97XD def2tzvp, opt=(ts, noeigen, calcfc, maxcycles=70, maxstep=8),
  freq=noraman, scrf=(iefpcm, solvent=water)
 ----------------------------------------------------------------------

 ------------------------
 1_iteration/TS-684-1.out
 ------------------------
 Symbolic Z-matrix:
 Charge =  0 Multiplicity = 1

 SCF Done:  E(RwB97XD) =  -3246.32891689     A.U. after   15 cycles
 SCF Done:  E(RwB97XD) =  -3246.32946173     A.U. after   12 cycles
 SCF Done:  E(RwB97XD) =  -3246.32990976     A.U. after   12 cycles
 SCF Done:  E(RwB97XD) =  -3246.33018992     A.U. after   12 cycles
 SCF Done:  E(RwB97XD) =  -3246.33029686     A.U. after   12 cycles
 SCF Done:  E(RwB97XD) =  -3246.33032987     A.U. after   10 cycles
 SCF Done:  E(RwB97XD) =  -3246.33025855     A.U. after   12 cycles
 SCF Done:  E(RwB97XD) =  -3246.33033888     A.U. after   11 cycles
 SCF Done:  E(RwB97XD) =  -3246.33034077     A.U. after    9 cycles
 SCF Done:  E(RwB97XD) =  -3246.33034163     A.U. after    9 cycles
 SCF Done:  E(RwB97XD) =  -3246.33034164     A.U. after    8 cycles
 SCF Done:  E(RwB97XD) =  -3246.33034160     A.U. after    7 cycles
 SCF Done:  E(RwB97XD) =  -3246.33034159     A.U. after    6 cycles
 Optimization completed.
    -- Stationary point found.
 Normal termination of Gaussian 16 at Fri Feb 19 18:19:51 2021.

 ---------------------------------------------------------------------
 #N Geom=AllCheck Guess=TCheck SCRF=Check GenChk RwB97XD/def2TZVP Freq
 ---------------------------------------------------------------------

 Structure from the checkpoint file:  "/beegfs/scratch/user/q/tla25/Gau-25310.chk"
 ------------------------
 1_iteration/TS-684-1.out
 ------------------------
 Charge =  0 Multiplicity = 1

                         Standard orientation:
 ---------------------------------------------------------------------
 Center     Atomic      Atomic             Coordinates (Angstroms)
 Number     Number       Type             X           Y           Z
 ---------------------------------------------------------------------
      1          6           0        0.095807    0.632996   -0.188823
      2          6           0        0.655343    1.941999   -0.397669
      3          8           0        0.073434    3.003491   -0.577485
      4          6           0       -1.286244    0.444248   -0.133569
      5          6           0       -1.419448    1.297992    2.524757
      6          1           0       -0.436356    1.639860    2.194425
      7          1           0       -2.135012    2.108350    2.411244
      8          1           0       -1.364149    1.010274    3.573720
      9          7           0       -1.815076    0.174469    1.682867
     10          1           0       -1.330320   -0.676103    1.947199
     11          1           0       -2.810617   -0.012740    1.729602
     12         35           0       -1.916284   -1.329558   -0.760003
     13          6           0       -2.287182    1.491171   -0.533559
     14          1           0       -2.106794    2.413622    0.010770
     15          1           0       -2.173504    1.709347   -1.595061
     16          1           0       -3.302858    1.143944   -0.354972
     17          6           0        1.028774   -0.510951    0.040217
     18          6           0        1.570703   -1.217809   -1.032751
     19          6           0        2.426666   -2.288051   -0.828249
     20          6           0        2.760018   -2.677955    0.462756
     21          6           0        2.237693   -1.981733    1.541466
     22          6           0        1.384957   -0.906253    1.327831
     23          1           0        1.309344   -0.920572   -2.041304
     24          1           0        2.834056   -2.822196   -1.677931
     25          1           0        3.426230   -3.516012    0.624837
     26          1           0        2.497670   -2.269672    2.552633
     27          1           0        1.009704   -0.352874    2.181082
     28          8           0        2.015762    1.907654   -0.392014
     29          6           0        2.676478    3.143785   -0.612275
     30          1           0        3.740400    2.920730   -0.579533
     31          1           0        2.416171    3.562925   -1.584969
     32          1           0        2.426549    3.868555    0.163488
 ---------------------------------------------------------------------

 SCF Done:  E(RwB97XD) =  -3246.33034159     A.U. after    1 cycles

 The electronic state is 1-A.
 Alpha  occ. eigenvalues -- -483.12453 -62.67305 -56.46405 -56.46077 -56.46060
 Alpha  occ. eigenvalues --  -19.27726 -19.20873 -14.49301 -10.40027 -10.39630
 Alpha  occ. eigenvalues --  -10.32387 -10.32001 -10.29726 -10.28775 -10.28702
 Alpha  occ. eigenvalues --  -10.28635 -10.28603 -10.28502 -10.28341 -10.26745
 Alpha  occ. eigenvalues --   -8.81406  -6.63503  -6.62468  -6.62414  -2.73894
 Alpha  occ. eigenvalues --   -2.73612  -2.73569  -2.72730  -2.72730  -1.19143
 Alpha  occ. eigenvalues --   -1.09519  -1.04856  -0.96732  -0.93584  -0.87547
 Alpha  occ. eigenvalues --   -0.84726  -0.84150  -0.82349  -0.79345  -0.78562
 Alpha  occ. eigenvalues --   -0.70161  -0.69576  -0.68445  -0.63864  -0.62832
 Alpha  occ. eigenvalues --   -0.61492  -0.58658  -0.56977  -0.56652  -0.56029
 Alpha  occ. eigenvalues --   -0.54868  -0.54035  -0.53790  -0.52295  -0.50625
 Alpha  occ. eigenvalues --   -0.50383  -0.49826  -0.48459  -0.47906  -0.46902
 Alpha  occ. eigenvalues --   -0.46149  -0.44861  -0.43572  -0.43443  -0.42235
 Alpha  occ. eigenvalues --   -0.41997  -0.37811  -0.37372  -0.37039  -0.35323
 Alpha  occ. eigenvalues --   -0.33392  -0.32025  -0.27946
 Alpha virt. eigenvalues --    0.04483   0.05338   0.05431   0.06559   0.09990
 Alpha virt. eigenvalues --    0.12723   0.13408   0.14269   0.14593   0.15555
 Alpha virt. eigenvalues --    0.16176   0.16605   0.17218   0.18148   0.18587

 Mulliken charges:
               1
     1  C   -0.348048
     2  C    0.451924
     3  O   -0.511924
     4  C    0.137579
     5  C   -0.329688
     6  H    0.160820
     7  H    0.170338
     8  H    0.168180
     9  N   -0.310494
    10  H    0.285601
    11  H    0.293738
    12  Br  -0.141094
    13  C   -0.350202
    14  H    0.154662
    15  H    0.149789
    16  H    0.146860
    17  C    0.293488
    18  C   -0.254466
    19  C   -0.146581
    20  C   -0.137784
    21  C   -0.176046
    22  C   -0.303003
    23  H    0.136168
    24  H    0.138492
    25  H    0.141646
    26  H    0.138296
    27  H    0.170199
    28  O   -0.305828
    29  C   -0.205124
    30  H    0.135012
    31  H    0.123805
    32  H    0.123683
 Sum of Mulliken charges =  -0.00000

 Dipole moment (field-independent basis, Debye):
    X=             -3.1312    Y=             -1.3348    Z=              5.9009  Tot=              6.8122
 Quadrupole moment (field-independent basis, Debye-Ang):
   XX=            -96.5258   YY=           -115.9916   ZZ=            -93.7224
   XY=             -2.9951   XZ=            -10.2904   YZ=              2.9085

  Exact polarizability: 251.103  -7.372 258.928  -7.744   0.899 237.592
 Approx polarizability: 196.086  -9.211 208.745  -4.701   0.882 201.254

 ******    1 imaginary frequencies (negative Signs) ******

                      1                      2                      3
                      A                      A                      A
 Frequencies --   -367.7892                38.1823                48.6926
 Red. masses --      5.7252                 4.2762                 3.9135
 Frc consts  --      0.4563                 0.0037                 0.0055
 IR Inten    --    681.9266                 2.3047                 1.0787

                      4                      5                      6
                      A                      A                      A
 Frequencies --     62.6932                64.9523                82.7667
 Red. masses --      5.5682                 5.1421                 3.5329
 Frc consts  --      0.0129                 0.0128                 0.0143
 IR Inten    --      6.5184                 1.6810                 0.0513

                      7                      8                      9
                      A                      A                      A
 Frequencies --    113.1661               132.9702               147.7434
 Red. masses --      2.2216                 4.2977                 3.0620
 Frc consts  --      0.0168                 0.0448                 0.0394
 IR Inten    --      7.2380                 1.1748                 4.5367

                     10                     11                     12
                      A                      A                      A
 Frequencies --    165.8718               178.1105               196.8341
 Red. masses --      3.4260                 1.3848                 1.1555
 Frc consts  --      0.0555                 0.0259                 0.0264
 IR Inten    --      2.2473                 2.2811                 2.2151

                     13                     14                     15
                      A                      A                      A
 Frequencies --    209.3767               256.1312               265.6598
 Red. masses --      4.9645                 3.2469                 4.2679
 Frc consts  --      0.1282                 0.1255                 0.1775
 IR Inten    --      9.4996                11.1473                17.4192

                     16                     17                     18
                      A                      A                      A
 Frequencies --    292.4609               294.1680               319.4062
 Red. masses --      1.7465                 2.5639                 3.7129
 Frc consts  --      0.0880                 0.1307                 0.2232
 IR Inten    --     25.0752                 6.8046                16.5975

                     19                     20                     21
                      A                      A                      A
 Frequencies --    360.8384               375.6072               411.6990
 Red. masses --      2.4106                 3.0729                 4.4539
 Frc consts  --      0.1849                 0.2554                 0.4448
 IR Inten    --     17.3881                 4.3014                35.7762

                     22                     23                     24
                      A                      A                      A
 Frequencies --    425.2909               460.1519               539.1145
 Red. masses --      2.8902                 3.8369                 4.0138
 Frc consts  --      0.3080                 0.4787                 0.6873
 IR Inten    --      0.0031                21.2795                 6.2469

                     25                     26                     27
                      A                      A                      A
 Frequencies --    577.1622               632.9863               642.2689
 Red. masses --      4.5462                 2.8553                 4.7444
 Frc consts  --      0.8923                 0.6740                 1.1531
 IR Inten    --     63.0381               135.3686                16.4047

                     28                     29                     30
                      A                      A                      A
 Frequencies --    678.4377               714.1557               730.4470
 Red. masses --      5.4621                 1.8314                 1.5459
 Frc consts  --      1.4813                 0.5503                 0.4860
 IR Inten    --     15.0681               176.4692                70.5866

                     31                     32                     33
                      A                      A                      A
 Frequencies --    789.1327               802.4741               811.3762
 Red. masses --      2.8900                 7.0004                 3.7666
 Frc consts  --      1.0603                 2.6560                 1.4610
 IR Inten    --     27.1216                38.7753                52.5074

                     34                     35                     36
                      A                      A                      A
 Frequencies --    879.3094               952.1693               975.8427
 Red. masses --      1.2461                 1.4651                 4.8029
 Frc consts  --      0.5677                 0.7826                 2.6947
 IR Inten    --      0.0168                 8.4070                38.0429

                     37                     38                     39
                      A                      A                      A
 Frequencies --   1001.1802              1010.6772              1019.5229
 Red. masses --      2.0872                 1.4029                 1.3446
 Frc consts  --      1.2326                 0.8443                 0.8235
 IR Inten    --     55.5116                 1.4408                38.3936

                     40                     41                     42
                      A                      A                      A
 Frequencies --   1026.8637              1028.7382              1045.2114
 Red. masses --      1.8001                 2.5838                 1.1908
 Frc consts  --      1.1183                 1.6111                 0.7665
 IR Inten    --      0.3725                 4.3282                23.2941

                     43                     44                     45
                      A                      A                      A
 Frequencies --   1060.4399              1070.0691              1079.7273
 Red. masses --      1.9597                 1.6476                 3.1291
 Frc consts  --      1.2984                 1.1115                 2.1493
 IR Inten    --     60.9565               110.9077                 3.5291

                     46                     47                     48
                      A                      A                      A
 Frequencies --   1105.7099              1107.8599              1145.7295
 Red. masses --      2.1765                 1.5476                 5.0589
 Frc consts  --      1.5678                 1.1191                 3.9126
 IR Inten    --    205.5778                24.8606                85.3551

                     49                     50                     51
                      A                      A                      A
 Frequencies --   1181.3134              1181.6642              1205.1584
 Red. masses --      1.1519                 1.2598                 1.1210
 Frc consts  --      0.9471                 1.0364                 0.9592
 IR Inten    --      0.1430                 1.9086                 0.6078

                     52                     53                     54
                      A                      A                      A
 Frequencies --   1212.8010              1224.9677              1240.8309
 Red. masses --      1.5313                 1.3891                 5.0375
 Frc consts  --      1.3271                 1.2281                 4.5697
 IR Inten    --    131.3535                33.0642               505.3124

                     55                     56                     57
                      A                      A                      A
 Frequencies --   1306.8659              1329.8230              1336.6702
 Red. masses --      4.4500                 5.3186                 1.3276
 Frc consts  --      4.4779                 5.5416                 1.3975
 IR Inten    --      6.1571               716.5601                21.1109

                     58                     59                     60
                      A                      A                      A
 Frequencies --   1355.0546              1415.6622              1444.1915
 Red. masses --      1.4693                 1.4396                 1.9944
 Frc consts  --      1.5896                 1.6999                 2.4508
 IR Inten    --      1.8501               241.3764               337.8849

                     61                     62                     63
                      A                      A                      A
 Frequencies --   1466.5097              1473.4100              1477.8954
 Red. masses --      1.3291                 1.0797                 1.1617
 Frc consts  --      1.6841                 1.3810                 1.4949
 IR Inten    --     79.9360                10.8330                77.5278

                     64                     65                     66
                      A                      A                      A
 Frequencies --   1481.3186              1486.6114              1488.7617
 Red. masses --      1.0466                 1.9390                 1.2511
 Frc consts  --      1.3531                 2.5247                 1.6338
 IR Inten    --     12.6851                 5.6384                44.4114

                     67                     68                     69
                      A                      A                      A
 Frequencies --   1496.4599              1497.7325              1508.5803
 Red. masses --      1.0491                 1.0878                 1.0347
 Frc consts  --      1.3843                 1.4377                 1.3874
 IR Inten    --     13.4777                24.2795                13.7279

                     70                     71                     72
                      A                      A                      A
 Frequencies --   1545.0224              1645.1181              1645.8116
 Red. masses --      2.4997                 2.5327                 1.4301
 Frc consts  --      3.5156                 4.0386                 2.2824
 IR Inten    --     30.1027                20.4811                52.0709

                     73                     74                     75
                      A                      A                      A
 Frequencies --   1672.4040              1698.8300              3058.0840
 Red. masses --      6.1072                10.4998                 1.0310
 Frc consts  --     10.0642                17.8538                 5.6806
 IR Inten    --     56.0256               795.3253                72.8590

                     76                     77                     78
                      A                      A                      A
 Frequencies --   3062.9620              3084.3272              3131.2341
 Red. masses --      1.0358                 1.0369                 1.1064
 Frc consts  --      5.7255                 5.8115                 6.3912
 IR Inten    --     33.5792                12.7765                43.2940

                     79                     80                     81
                      A                      A                      A
 Frequencies --   3139.4792              3158.4940              3165.4891
 Red. masses --      1.1019                 1.1029                 1.1049
 Frc consts  --      6.3988                 6.4826                 6.5229
 IR Inten    --      8.7914                15.0738                28.4080

                     82                     83                     84
                      A                      A                      A
 Frequencies --   3173.7737              3184.7893              3189.6646
 Red. masses --      1.1053                 1.0871                 1.1008
 Frc consts  --      6.5598                 6.4967                 6.5985
 IR Inten    --     11.7535                12.7768                 2.3646

                     85                     86                     87
                      A                      A                      A
 Frequencies --   3189.9914              3199.8598              3207.4757
 Red. masses --      1.0871                 1.0909                 1.0950
 Frc consts  --      6.5180                 6.5812                 6.6374
 IR Inten    --      1.9904                13.8970                48.3800

                     88                     89                     90
                      A                      A                      A
 Frequencies --   3218.7795              3517.9564              3599.6753
 Red. masses --      1.0988                 1.0512                 1.0966
 Frc consts  --      6.7073                 7.6650                 8.3719
 IR Inten    --     19.3641                44.0819                67.6063

 - Thermochemistry -
 -------------------
 Temperature   298.150 Kelvin.  Pressure   1.00000 Atm.
 Atom     1 has atomic number  6 and mass  12.00000

 Molecular mass:   285.03644 amu.
 Principal axes and moments of inertia in atomic units:
                           1         2         3
     Eigenvalues --  4148.410784625.699236589.32492
           X            0.95395  -0.29718  -0.04067
           Y            0.29690   0.95482  -0.01292
           Z            0.04267   0.00025   0.99909
 This molecule is an asymmetric top.
 Rotational symmetry number  1.
 Warning -- assumption of classical behavior for rotation
           may cause significant error
 Rotational temperatures (Kelvin)      0.02088     0.01872     0.01314
 Rotational constants (GHZ):           0.43504     0.39016     0.27389
    1 imaginary frequencies ignored.
 Zero-point vibrational energy     691626.3 (Joules/Mol)
                                  165.30265 (Kcal/Mol)
 Warning -- explicit consideration of  24 degrees of freedom as
           vibrations may cause significant error
 Vibrational temperatures:     54.94    70.06    90.20    93.45   119.08
          (Kelvin)            162.82   191.31   212.57   238.65   256.26
                              283.20   301.25   368.52   382.23   420.79
                              423.24   459.55   519.17   540.41   592.34
                              611.90   662.06   775.67   830.41   910.73
                              924.08   976.12  1027.51  1050.95  1135.39
                             1154.58  1167.39  1265.13  1369.96  1404.02
                             1440.47  1454.14  1466.87  1477.43  1480.12
                             1503.83  1525.74  1539.59  1553.49  1590.87
                             1593.96  1648.45  1699.65  1700.15  1733.95
                             1744.95  1762.46  1785.28  1880.29  1913.32
                             1923.17  1949.62  2036.82  2077.87  2109.98
                             2119.91  2126.36  2131.29  2138.90  2142.00
                             2153.07  2154.90  2170.51  2222.94  2366.96
                             2367.96  2406.22  2444.24  4399.90  4406.92
                             4437.66  4505.15  4517.01  4544.37  4554.43
                             4566.35  4582.20  4589.22  4589.69  4603.88
                             4614.84  4631.11  5061.55  5179.13

 Zero-point correction=                           0.263427 (Hartree/Particle)
 Thermal correction to Energy=                    0.280336
 Thermal correction to Enthalpy=                  0.281280
 Thermal correction to Gibbs Free Energy=         0.217603
 Sum of electronic and zero-point Energies=          -3246.066915
 Sum of electronic and thermal Energies=             -3246.050006
 Sum of electronic and thermal Enthalpies=           -3246.049061
 Sum of electronic and thermal Free Energies=        -3246.112739

                     E (Thermal)             CV                S
                      KCal/Mol        Cal/Mol-Kelvin    Cal/Mol-Kelvin
 Total                  175.914             61.395            134.021
 Electronic               0.000              0.000              0.000
 Translational            0.889              2.981             42.840
 Rotational               0.889              2.981             33.202
 Vibrational            174.136             55.434             57.978
 Vibration     1          0.594              1.982              5.351
 Vibration     2          0.595              1.978              4.870
 Vibration     3          0.597              1.972              4.371
 Vibration     4          0.597              1.971              4.301
 Vibration     5          0.600              1.961              3.824
 Vibration     6          0.607              1.939              3.214
 Vibration     7          0.613              1.920              2.903
 Vibration     8          0.617              1.905              2.701
 Vibration     9          0.624              1.884              2.482
 Vibration    10          0.629              1.869              2.348
 Vibration    11          0.636              1.844              2.162
 Vibration    12          0.642              1.826              2.049
 Vibration    13          0.666              1.752              1.688
 Vibration    14          0.671              1.736              1.624
 Vibration    15          0.688              1.688              1.460
 Vibration    16          0.689              1.685              1.450
 Vibration    17          0.705              1.636              1.313
 Vibration    18          0.735              1.553              1.118
 Vibration    19          0.746              1.522              1.057
 Vibration    20          0.776              1.445              0.921
 Vibration    21          0.787              1.415              0.874
 Vibration    22          0.818              1.338              0.766
 Vibration    23          0.894              1.164              0.567
 Vibration    24          0.934              1.081              0.491

 Optimization completed.
    -- Stationary point found.
 Normal termination of Gaussian 16 at Fri Feb 19 19:33:03 2021.
