 Gaussian 16, Revision A.03,
 Gaussian 16:  ES64L-G16RevA.03 25-Dec-2016

 ----------------------------------------------------------------------
 # wB97XD def2tzvp, opt=(ts, noeigen, calcfc, maxcycles=70, maxstep=1),
  freq=noraman, scrf=(iefpcm, solvent=water)
 ----------------------------------------------------------------------

 ------------------------
 0_iteration/TS-651-0.out
 ------------------------
 Symbolic Z-matrix:
 Charge =  0 Multiplicity = 1

 SCF Done:  E(RwB97XD) =  -2916.78190755     A.U. after   14 cycles
 SCF Done:  E(RwB97XD) =  -2916.78189469     A.U. after   10 cycles
 SCF Done:  E(RwB97XD) =  -2916.78188745     A.U. after   10 cycles
 SCF Done:  E(RwB97XD) =  -2916.78188928     A.U. after   10 cycles
 SCF Done:  E(RwB97XD) =  -2916.78191037     A.U. after   10 cycles
 SCF Done:  E(RwB97XD) =  -2916.78194437     A.U. after   10 cycles
 SCF Done:  E(RwB97XD) =  -2916.78198991     A.U. after   10 cycles
 SCF Done:  E(RwB97XD) =  -2916.78204162     A.U. after   10 cycles
 SCF Done:  E(RwB97XD) =  -2916.78210400     A.U. after   10 cycles
 SCF Done:  E(RwB97XD) =  -2916.78217949     A.U. after   10 cycles
 SCF Done:  E(RwB97XD) =  -2916.78600325     A.U. after   10 cycles
 SCF Done:  E(RwB97XD) =  -2916.78603338     A.U. after   10 cycles
 SCF Done:  E(RwB97XD) =  -2916.78605456     A.U. after   10 cycles
 SCF Done:  E(RwB97XD) =  -2916.78606982     A.U. after   10 cycles
 SCF Done:  E(RwB97XD) =  -2916.78608049     A.U. after   10 cycles
 SCF Done:  E(RwB97XD) =  -2916.78608330     A.U. after   10 cycles
 SCF Done:  E(RwB97XD) =  -2916.78608343     A.U. after    9 cycles
 SCF Done:  E(RwB97XD) =  -2916.78608331     A.U. after    7 cycles
 SCF Done:  E(RwB97XD) =  -2916.78608343     A.U. after    7 cycles
 Optimization completed.
    -- Stationary point found.
 Normal termination of Gaussian 16 at Thu Feb 18 20:36:00 2021.

 ---------------------------------------------------------------------
 #N Geom=AllCheck Guess=TCheck SCRF=Check GenChk RwB97XD/def2TZVP Freq
 ---------------------------------------------------------------------

 Structure from the checkpoint file:  "/beegfs/scratch/user/q/tla25/Gau-94508.chk"
 ------------------------
 0_iteration/TS-651-0.out
 ------------------------
 Charge =  0 Multiplicity = 1

                         Standard orientation:
 ---------------------------------------------------------------------
 Center     Atomic      Atomic             Coordinates (Angstroms)
 Number     Number       Type             X           Y           Z
 ---------------------------------------------------------------------
      1          6           0        0.823743   -0.577676    0.488522
      2          6           0        2.195451   -0.749124    0.089079
      3          8           0        3.003081   -1.389754    0.776028
      4          6           0       -0.142144    0.050993   -0.267055
      5          6           0        0.817211    2.580523    0.252868
      6          1           0        1.553397    1.971667    0.779758
      7          1           0        1.156266    2.759645   -0.765669
      8          1           0        0.706082    3.534405    0.766092
      9          7           0       -0.440183    1.842677    0.220160
     10          1           0       -0.860352    1.789552    1.141762
     11          1           0       -1.116359    2.263140   -0.408482
     12         35           0       -1.978323   -0.565940   -0.061247
     13          1           0        0.034857    0.257598   -1.314975
     14          1           0        0.567072   -0.989224    1.454805
     15          7           0        2.619165   -0.239555   -1.120224
     16          1           0        2.141495    0.536337   -1.542053
     17          1           0        3.615770   -0.247334   -1.255848
 ---------------------------------------------------------------------

 SCF Done:  E(RwB97XD) =  -2916.78608343     A.U. after    1 cycles

 The electronic state is 1-A.
 Alpha  occ. eigenvalues -- -483.13058 -62.67930 -56.47033 -56.46692 -56.46682
 Alpha  occ. eigenvalues --  -19.19500 -14.49617 -14.43436 -10.38674 -10.37560
 Alpha  occ. eigenvalues --  -10.32157 -10.25236  -8.82055  -6.64180  -6.63092
 Alpha  occ. eigenvalues --   -6.63060  -2.74570  -2.74261  -2.74236  -2.73356
 Alpha  occ. eigenvalues --   -2.73356  -1.11936  -1.05002  -0.98806  -0.92321
 Alpha  occ. eigenvalues --   -0.84009  -0.79494  -0.72050  -0.66028  -0.64013
 Alpha  occ. eigenvalues --   -0.61675  -0.57830  -0.56250  -0.54961  -0.51178
 Alpha  occ. eigenvalues --   -0.49379  -0.48908  -0.47919  -0.45814  -0.45297
 Alpha  occ. eigenvalues --   -0.37878  -0.37323  -0.35189  -0.33309  -0.27926
 Alpha virt. eigenvalues --    0.05279   0.06565   0.10354   0.12602   0.14404
 Alpha virt. eigenvalues --    0.15825   0.16682   0.17584   0.18245   0.18892
 Alpha virt. eigenvalues --    0.20284   0.21238   0.23354   0.24462   0.25130

 Mulliken charges:
               1
     1  C   -0.417141
     2  C    0.319681
     3  O   -0.547585
     4  C   -0.068551
     5  C   -0.327606
     6  H    0.163880
     7  H    0.165448
     8  H    0.164893
     9  N   -0.280702
    10  H    0.286358
    11  H    0.295288
    12  Br  -0.124824
    13  H    0.200348
    14  H    0.131917
    15  N   -0.480308
    16  H    0.256620
    17  H    0.262282
 Sum of Mulliken charges =  -0.00000

 Dipole moment (field-independent basis, Debye):
    X=             -4.4356    Y=             10.6028    Z=             -2.9157  Tot=             11.8573
 Quadrupole moment (field-independent basis, Debye-Ang):
   XX=            -75.3068   YY=            -55.6915   ZZ=            -59.7042
   XY=             10.3713   XZ=            -10.7145   YZ=              2.0067

  Exact polarizability: 164.199 -14.375 128.059   3.248  -7.928 100.791
 Approx polarizability: 123.685 -10.062 102.999   4.000  -8.052  90.028

 ******    1 imaginary frequencies (negative Signs) ******

                      1                      2                      3
                      A                      A                      A
 Frequencies --   -375.7000                71.7094                87.0724
 Red. masses --      5.8660                 5.0393                 2.1686
 Frc consts  --      0.4878                 0.0153                 0.0097
 IR Inten    --    795.4144                 6.4996                 5.1679

                      4                      5                      6
                      A                      A                      A
 Frequencies --    113.4382               169.9156               188.8895
 Red. masses --      4.8826                 4.8537                 5.2419
 Frc consts  --      0.0370                 0.0826                 0.1102
 IR Inten    --      6.8176                 1.8622                 5.8698

                      7                      8                      9
                      A                      A                      A
 Frequencies --    232.0895               258.7342               290.8294
 Red. masses --      1.0838                 5.2484                 3.5214
 Frc consts  --      0.0344                 0.2070                 0.1755
 IR Inten    --      2.1521                20.9300                42.3333

                     10                     11                     12
                      A                      A                      A
 Frequencies --    388.0198               408.3808               487.0707
 Red. masses --      1.5385                 1.4083                 1.2810
 Frc consts  --      0.1365                 0.1384                 0.1791
 IR Inten    --    121.6135               297.0142                27.5330

                     13                     14                     15
                      A                      A                      A
 Frequencies --    494.4861               578.4722               678.7606
 Red. masses --      3.9343                 3.0828                 1.3890
 Frc consts  --      0.5668                 0.6078                 0.3770
 IR Inten    --     10.9042                59.9759                58.0465

                     16                     17                     18
                      A                      A                      A
 Frequencies --    726.6432               733.6352               798.8507
 Red. masses --      3.0085                 1.8561                 4.6705
 Frc consts  --      0.9359                 0.5886                 1.7561
 IR Inten    --    204.8411                29.7772               114.9825

                     19                     20                     21
                      A                      A                      A
 Frequencies --    944.7560              1010.7888              1047.1808
 Red. masses --      3.3430                 1.0995                 1.1140
 Frc consts  --      1.7580                 0.6619                 0.7197
 IR Inten    --      2.1729                29.5494                68.7510

                     22                     23                     24
                      A                      A                      A
 Frequencies --   1080.2271              1096.8057              1161.7610
 Red. masses --      4.5657                 1.6349                 1.1155
 Frc consts  --      3.1390                 1.1588                 0.8871
 IR Inten    --     60.4949               137.4970                53.2144

                     25                     26                     27
                      A                      A                      A
 Frequencies --   1232.5487              1238.4321              1277.4186
 Red. masses --      1.3770                 1.1809                 1.4790
 Frc consts  --      1.2326                 1.0671                 1.4219
 IR Inten    --     40.8011                79.3563               131.7996

                     28                     29                     30
                      A                      A                      A
 Frequencies --   1343.3364              1379.4624              1448.5590
 Red. masses --      1.3189                 4.5501                 1.3870
 Frc consts  --      1.4023                 5.1014                 1.7148
 IR Inten    --     11.6587               480.5852               206.5965

                     31                     32                     33
                      A                      A                      A
 Frequencies --   1479.4799              1500.3794              1509.7369
 Red. masses --      2.3578                 1.0427                 1.0360
 Frc consts  --      3.0407                 1.3830                 1.3913
 IR Inten    --    431.4197                43.8220                16.8762

                     34                     35                     36
                      A                      A                      A
 Frequencies --   1621.0686              1640.7851              1656.3358
 Red. masses --      1.5568                 1.0896                 3.0388
 Frc consts  --      2.4104                 1.7283                 4.9120
 IR Inten    --    521.6150                67.4991               922.3819

                     37                     38                     39
                      A                      A                      A
 Frequencies --   3067.1244              3148.0452              3165.9057
 Red. masses --      1.0332                 1.1039                 1.1063
 Frc consts  --      5.7266                 6.4455                 6.5331
 IR Inten    --     29.1590                 5.4710                15.4908

                     40                     41                     42
                      A                      A                      A
 Frequencies --   3197.5437              3215.4442              3514.2307
 Red. masses --      1.0926                 1.0879                 1.0506
 Frc consts  --      6.5817                 6.6271                 7.6448
 IR Inten    --      3.3888                 3.8130                50.9524

                     43                     44                     45
                      A                      A                      A
 Frequencies --   3599.7690              3618.4232              3731.9082
 Red. masses --      1.0972                 1.0472                 1.1010
 Frc consts  --      8.3768                 8.0780                 9.0342
 IR Inten    --     52.4856                44.2622                43.0613

 - Thermochemistry -
 -------------------
 Temperature   298.150 Kelvin.  Pressure   1.00000 Atm.
 Atom     1 has atomic number  6 and mass  12.00000

 Molecular mass:   179.98982 amu.
 Principal axes and moments of inertia in atomic units:
                           1         2         3
     Eigenvalues --   969.103732467.175903123.48619
           X            0.99989  -0.00775  -0.01297
           Y            0.00780   0.99996   0.00338
           Z            0.01294  -0.00348   0.99991
 This molecule is an asymmetric top.
 Rotational symmetry number  1.
 Warning -- assumption of classical behavior for rotation
           may cause significant error
 Rotational temperatures (Kelvin)      0.08938     0.03511     0.02773
 Rotational constants (GHZ):           1.86228     0.73150     0.57780
    1 imaginary frequencies ignored.
 Zero-point vibrational energy     362674.6 (Joules/Mol)
                                   86.68130 (Kcal/Mol)
 Warning -- explicit consideration of  13 degrees of freedom as
           vibrations may cause significant error
 Vibrational temperatures:    103.17   125.28   163.21   244.47   271.77
          (Kelvin)            333.92   372.26   418.44   558.27   587.57
                              700.79   711.46   832.29   976.59  1045.48
                             1055.54  1149.37  1359.29  1454.30  1506.66
                             1554.21  1578.06  1671.51  1773.36  1781.83
                             1837.92  1932.76  1984.74  2084.15  2128.64
                             2158.71  2172.17  2332.36  2360.72  2383.10
                             4412.91  4529.33  4555.03  4600.55  4626.31
                             5056.19  5179.26  5206.10  5369.38

 Zero-point correction=                           0.138135 (Hartree/Particle)
 Thermal correction to Energy=                    0.147764
 Thermal correction to Enthalpy=                  0.148708
 Thermal correction to Gibbs Free Energy=         0.102082
 Sum of electronic and zero-point Energies=          -2916.647948
 Sum of electronic and thermal Energies=             -2916.638320
 Sum of electronic and thermal Enthalpies=           -2916.637376
 Sum of electronic and thermal Free Energies=        -2916.684001

                     E (Thermal)             CV                S
                      KCal/Mol        Cal/Mol-Kelvin    Cal/Mol-Kelvin
 Total                   92.723             33.594             98.132
 Electronic               0.000              0.000              0.000
 Translational            0.889              2.981             41.470
 Rotational               0.889              2.981             30.391
 Vibrational             90.946             27.633             26.271
 Vibration     1          0.598              1.967              4.106
 Vibration     2          0.601              1.958              3.725
 Vibration     3          0.607              1.938              3.209
 Vibration     4          0.625              1.880              2.436
 Vibration     5          0.633              1.855              2.239
 Vibration     6          0.653              1.792              1.863
 Vibration     7          0.668              1.748              1.670
 Vibration     8          0.687              1.691              1.469
 Vibration     9          0.756              1.496              1.008
 Vibration    10          0.773              1.452              0.932
 Vibration    11          0.843              1.279              0.691
 Vibration    12          0.850              1.262              0.672
 Vibration    13          0.935              1.078              0.488

 Optimization completed.
    -- Stationary point found.
 Normal termination of Gaussian 16 at Thu Feb 18 20:44:06 2021.
