 Gaussian 16, Revision A.03,
 Gaussian 16:  ES64L-G16RevA.03 25-Dec-2016

 ----------------------------------------------------------------------
 # wB97XD def2tzvp, opt=(ts, noeigen, calcfc, maxcycles=70, maxstep=5),
  freq=noraman, scrf=(iefpcm, solvent=water)
 ----------------------------------------------------------------------

 ------------------------
 2_iteration/TS-634-2.out
 ------------------------
 Symbolic Z-matrix:
 Charge =  0 Multiplicity = 1

 SCF Done:  E(RwB97XD) =  -3591.37362427     A.U. after   15 cycles
 SCF Done:  E(RwB97XD) =  -3591.37362426     A.U. after    6 cycles
 Optimization completed.
    -- Stationary point found.
 Normal termination of Gaussian 16 at Sat Feb 20 22:45:50 2021.

 ---------------------------------------------------------------------
 #N Geom=AllCheck Guess=TCheck SCRF=Check GenChk RwB97XD/def2TZVP Freq
 ---------------------------------------------------------------------

 Structure from the checkpoint file:  "/beegfs/scratch/user/q/tla25/Gau-37642.chk"
 ------------------------
 2_iteration/TS-634-2.out
 ------------------------
 Charge =  0 Multiplicity = 1

                         Standard orientation:
 ---------------------------------------------------------------------
 Center     Atomic      Atomic             Coordinates (Angstroms)
 Number     Number       Type             X           Y           Z
 ---------------------------------------------------------------------
      1          6           0        1.166848    0.658421   -0.240748
      2          6           0        0.921972    2.084113   -0.236516
      3          8           0       -0.126971    2.577674    0.172569
      4          6           0        0.219693   -0.293589    0.118580
      5          6           0        0.707072    0.447727    2.837088
      6          1           0        1.183767    0.204267    3.786249
      7          1           0        1.331596    1.160503    2.298764
      8          1           0       -0.262910    0.902352    3.021418
      9          7           0        0.548862   -0.739368    2.004158
     10          1           0        1.429999   -1.233964    1.919342
     11          1           0       -0.125369   -1.398722    2.376432
     12         35           0        0.506877   -2.123415   -0.534418
     13          6           0       -1.244180    0.020306    0.006079
     14          6           0       -1.705997    0.374880   -1.262889
     15          6           0       -3.044303    0.638614   -1.481556
     16          6           0       -3.954016    0.547242   -0.435740
     17          6           0       -3.506509    0.182430    0.821850
     18          6           0       -2.161701   -0.086249    1.041357
     19          1           0       -1.000344    0.449104   -2.080295
     20          1           0       -3.379006    0.917210   -2.472627
     21          1           0       -5.002935    0.754753   -0.603685
     22          1           0       -4.203248    0.102490    1.646322
     23          1           0       -1.860487   -0.365685    2.038967
     24         17           0        2.825154    0.134656   -0.495009
     25          6           0        2.009386    2.995763   -0.762573
     26          1           0        2.393367    2.656621   -1.724923
     27          1           0        1.599548    3.998860   -0.857106
     28          1           0        2.851857    3.018839   -0.068331
 ---------------------------------------------------------------------

 SCF Done:  E(RwB97XD) =  -3591.37362426     A.U. after    1 cycles

 The electronic state is 1-A.
 Alpha  occ. eigenvalues -- -483.13579-101.69360 -62.68414 -56.47537 -56.47179
 Alpha  occ. eigenvalues --  -56.47160 -19.21571 -14.49212 -10.41066 -10.36870
 Alpha  occ. eigenvalues --  -10.32125 -10.31936 -10.31888 -10.29915 -10.29548
 Alpha  occ. eigenvalues --  -10.29457 -10.29379 -10.29320 -10.27509  -9.57903
 Alpha  occ. eigenvalues --   -8.82510  -7.32533  -7.31692  -7.31675  -6.64674
 Alpha  occ. eigenvalues --   -6.63539  -6.63478  -2.75054  -2.74744  -2.74695
 Alpha  occ. eigenvalues --   -2.73777  -2.73777  -1.12676  -1.04757  -0.98780
 Alpha  occ. eigenvalues --   -0.96851  -0.91955  -0.86402  -0.85784  -0.83974
 Alpha  occ. eigenvalues --   -0.81671  -0.79283  -0.73029  -0.71222  -0.68756
 Alpha  occ. eigenvalues --   -0.65019  -0.62112  -0.59004  -0.58016  -0.56866
 Alpha  occ. eigenvalues --   -0.56325  -0.54766  -0.54181  -0.53234  -0.51943
 Alpha  occ. eigenvalues --   -0.51328  -0.49932  -0.49095  -0.48303  -0.46843
 Alpha  occ. eigenvalues --   -0.46676  -0.46007  -0.44141  -0.43805  -0.43277
 Alpha  occ. eigenvalues --   -0.41955  -0.40974  -0.37719  -0.37476  -0.34692
 Alpha  occ. eigenvalues --   -0.34172  -0.31573  -0.28494
 Alpha virt. eigenvalues --    0.01467   0.02730   0.04860   0.07130   0.10232
 Alpha virt. eigenvalues --    0.12463   0.12531   0.13504   0.13949   0.15049
 Alpha virt. eigenvalues --    0.15890   0.16657   0.17776   0.18444   0.18737

 Mulliken charges:
               1
     1  C   -0.230589
     2  C    0.286905
     3  O   -0.473020
     4  C    0.178985
     5  C   -0.277166
     6  H    0.162197
     7  H    0.154251
     8  H    0.153998
     9  N   -0.358586
    10  H    0.284900
    11  H    0.291614
    12  Br  -0.090582
    13  C    0.269750
    14  C   -0.308180
    15  C   -0.120003
    16  C   -0.150707
    17  C   -0.163593
    18  C   -0.223235
    19  H    0.156571
    20  H    0.145471
    21  H    0.146128
    22  H    0.145133
    23  H    0.138001
    24  Cl  -0.147249
    25  C   -0.388602
    26  H    0.142943
    27  H    0.128607
    28  H    0.146059
 Sum of Mulliken charges =  -0.00000

 Dipole moment (field-independent basis, Debye):
    X=             -0.3320    Y=             -3.2109    Z=              5.0823  Tot=              6.0208
 Quadrupole moment (field-independent basis, Debye-Ang):
   XX=           -102.4659   YY=           -117.9724   ZZ=            -89.5997
   XY=              2.9501   XZ=              4.1075   YZ=             -8.2255

  Exact polarizability: 271.780 -10.237 238.170 -12.009 -16.136 231.804
 Approx polarizability: 216.236 -12.189 192.401 -10.186 -10.686 199.255

 ******    1 imaginary frequencies (negative Signs) ******

                      1                      2                      3
                      A                      A                      A
 Frequencies --   -348.0737                35.1435                56.0400
 Red. masses --      5.3568                 3.6199                 6.8893
 Frc consts  --      0.3824                 0.0026                 0.0127
 IR Inten    --    597.9632                 0.5886                 0.0513

                      4                      5                      6
                      A                      A                      A
 Frequencies --     61.4546                80.1457               108.8879
 Red. masses --      3.9334                 5.3741                 3.0298
 Frc consts  --      0.0088                 0.0203                 0.0212
 IR Inten    --      3.1649                 3.7810                 2.9962

                      7                      8                      9
                      A                      A                      A
 Frequencies --    123.7597               144.0262               161.3680
 Red. masses --      3.4458                 2.9243                 2.0832
 Frc consts  --      0.0311                 0.0357                 0.0320
 IR Inten    --      5.3448                 4.3606                 2.2473

                     10                     11                     12
                      A                      A                      A
 Frequencies --    165.1300               174.0133               216.1799
 Red. masses --      1.1154                 4.2435                 6.4898
 Frc consts  --      0.0179                 0.0757                 0.1787
 IR Inten    --      0.7821                 4.0290                 0.9128

                     13                     14                     15
                      A                      A                      A
 Frequencies --    226.9381               261.5717               276.0170
 Red. masses --      2.8373                 5.8598                 5.3028
 Frc consts  --      0.0861                 0.2362                 0.2380
 IR Inten    --      7.5910                 7.0717                 8.9014

                     16                     17                     18
                      A                      A                      A
 Frequencies --    293.3399               320.8297               367.4294
 Red. masses --      3.6796                 4.1417                 6.1070
 Frc consts  --      0.1865                 0.2512                 0.4858
 IR Inten    --     14.5558                19.4737                15.3975

                     19                     20                     21
                      A                      A                      A
 Frequencies --    421.4253               457.8716               506.5967
 Red. masses --      2.8715                 8.3356                 3.8257
 Frc consts  --      0.3005                 1.0296                 0.5785
 IR Inten    --      0.1446                 5.3914                47.7119

                     22                     23                     24
                      A                      A                      A
 Frequencies --    530.6323               562.2693               606.9300
 Red. masses --      3.9780                 2.7812                 2.4578
 Frc consts  --      0.6599                 0.5180                 0.5334
 IR Inten    --     95.9544                33.9137                57.6683

                     25                     26                     27
                      A                      A                      A
 Frequencies --    635.2065               652.1755               682.3087
 Red. masses --      5.7311                 5.2152                 2.1156
 Frc consts  --      1.3624                 1.3069                 0.5803
 IR Inten    --     11.3170                86.5670                35.5319

                     28                     29                     30
                      A                      A                      A
 Frequencies --    718.5634               744.0718               812.7869
 Red. masses --      1.7697                 2.5419                 2.7540
 Frc consts  --      0.5384                 0.8292                 1.0719
 IR Inten    --     45.2305               197.9661                 3.7827

                     31                     32                     33
                      A                      A                      A
 Frequencies --    865.5907               869.1710               949.7899
 Red. masses --      1.3946                 3.7655                 1.4694
 Frc consts  --      0.6157                 1.6760                 0.7810
 IR Inten    --     11.5063                78.5830                 0.8974

                     34                     35                     36
                      A                      A                      A
 Frequencies --    986.5481               993.5795              1009.4383
 Red. masses --      1.4273                 1.6650                 1.3695
 Frc consts  --      0.8185                 0.9684                 0.8222
 IR Inten    --     40.5932                12.1272                 0.6505

                     37                     38                     39
                      A                      A                      A
 Frequencies --   1024.6068              1026.3293              1029.4690
 Red. masses --      5.1666                 2.2986                 1.3203
 Frc consts  --      3.1957                 1.4266                 0.8244
 IR Inten    --      2.1574                34.6257                 1.1081

                     40                     41                     42
                      A                      A                      A
 Frequencies --   1043.6744              1059.3954              1069.3036
 Red. masses --      1.8142                 1.2899                 2.0975
 Frc consts  --      1.1643                 0.8529                 1.4130
 IR Inten    --     17.2403                80.2912                14.5619

                     43                     44                     45
                      A                      A                      A
 Frequencies --   1074.1417              1129.5356              1186.5609
 Red. masses --      4.7680                 1.5919                 1.1797
 Frc consts  --      3.2412                 1.1966                 0.9786
 IR Inten    --     43.6969                 9.9856                 4.8568

                     46                     47                     48
                      A                      A                      A
 Frequencies --   1197.1186              1222.6572              1228.7451
 Red. masses --      3.3739                 1.3230                 1.2058
 Frc consts  --      2.8488                 1.1653                 1.0726
 IR Inten    --    132.6773                13.8229                 6.0640

                     49                     50                     51
                      A                      A                      A
 Frequencies --   1294.9862              1318.4915              1341.1133
 Red. masses --      4.3400                 4.6445                 1.3263
 Frc consts  --      4.2882                 4.7571                 1.4054
 IR Inten    --    316.1484               136.0704                13.4022

                     52                     53                     54
                      A                      A                      A
 Frequencies --   1370.5710              1385.0133              1407.0325
 Red. masses --      1.4133                 1.5699                 3.4294
 Frc consts  --      1.5642                 1.7743                 4.0001
 IR Inten    --      9.0705                40.5136               916.5019

                     55                     56                     57
                      A                      A                      A
 Frequencies --   1456.8591              1465.4106              1469.3116
 Red. masses --      1.0663                 1.2037                 1.0788
 Frc consts  --      1.3334                 1.5229                 1.3722
 IR Inten    --     34.7226                12.6228                29.5452

                     58                     59                     60
                      A                      A                      A
 Frequencies --   1487.5401              1490.4715              1503.1454
 Red. masses --      1.0411                 2.1909                 1.0392
 Frc consts  --      1.3573                 2.8676                 1.3834
 IR Inten    --     19.7084                30.6900                17.4655

                     61                     62                     63
                      A                      A                      A
 Frequencies --   1545.9681              1647.6987              1656.7251
 Red. masses --      2.2807                 1.4884                 2.4018
 Frc consts  --      3.2116                 2.3808                 3.8840
 IR Inten    --     27.8046                80.2884                13.0437

                     64                     65                     66
                      A                      A                      A
 Frequencies --   1675.0941              1681.8391              3063.6176
 Red. masses --      5.5681                10.1611                 1.0368
 Frc consts  --      9.2053                16.9341                 5.7335
 IR Inten    --      2.2652               424.4413                 6.6203

                     67                     68                     69
                      A                      A                      A
 Frequencies --   3073.2098              3135.2044              3148.3388
 Red. masses --      1.0335                 1.0993                 1.1045
 Frc consts  --      5.7510                 6.3665                 6.4502
 IR Inten    --     33.2941                10.8314                 8.3304

                     70                     71                     72
                      A                      A                      A
 Frequencies --   3169.3317              3176.7204              3198.9608
 Red. masses --      1.1043                 1.1050                 1.0862
 Frc consts  --      6.5354                 6.5702                 6.5489
 IR Inten    --     23.7117                12.9837                 0.5999

                     73                     74                     75
                      A                      A                      A
 Frequencies --   3206.9687              3215.6295              3224.5976
 Red. masses --      1.0893                 1.0939                 1.0982
 Frc consts  --      6.6009                 6.6642                 6.7279
 IR Inten    --      4.3627                22.2181                21.3488

                     76                     77                     78
                      A                      A                      A
 Frequencies --   3255.7852              3523.2723              3599.9995
 Red. masses --      1.0911                 1.0514                 1.0956
 Frc consts  --      6.8143                 7.6894                 8.3659
 IR Inten    --     16.4187                51.4140                48.5658

 - Thermochemistry -
 -------------------
 Temperature   298.150 Kelvin.  Pressure   1.00000 Atm.
 Atom     1 has atomic number  6 and mass  12.00000

 Molecular mass:   288.98690 amu.
 Principal axes and moments of inertia in atomic units:
                           1         2         3
     Eigenvalues --  3591.604054796.577056104.23250
           X            0.99768   0.06707   0.01156
           Y           -0.06634   0.99628  -0.05499
           Z           -0.01521   0.05410   0.99842
 This molecule is an asymmetric top.
 Rotational symmetry number  1.
 Warning -- assumption of classical behavior for rotation
           may cause significant error
 Rotational temperatures (Kelvin)      0.02412     0.01806     0.01419
 Rotational constants (GHZ):           0.50249     0.37626     0.29565
    1 imaginary frequencies ignored.
 Zero-point vibrational energy     577543.2 (Joules/Mol)
                                  138.03613 (Kcal/Mol)
 Warning -- explicit consideration of  23 degrees of freedom as
           vibrations may cause significant error
 Vibrational temperatures:     50.56    80.63    88.42   115.31   156.67
          (Kelvin)            178.06   207.22   232.17   237.59   250.37
                              311.03   326.51   376.34   397.13   422.05
                              461.60   528.65   606.34   658.78   728.88
                              763.46   808.98   873.24   913.92   938.34
                              981.69  1033.85  1070.55  1169.42  1245.39
                             1250.54  1366.54  1419.42  1429.54  1452.36
                             1474.18  1476.66  1481.18  1501.61  1524.23
                             1538.49  1545.45  1625.15  1707.20  1722.39
                             1759.13  1767.89  1863.20  1897.02  1929.56
                             1971.95  1992.73  2024.41  2096.10  2108.40
                             2114.01  2140.24  2144.46  2162.69  2224.30
                             2370.67  2383.66  2410.09  2419.79  4407.86
                             4421.66  4510.86  4529.76  4559.96  4570.59
                             4602.59  4614.11  4626.57  4639.48  4684.35
                             5069.20  5179.60

 Zero-point correction=                           0.219975 (Hartree/Particle)
 Thermal correction to Energy=                    0.235788
 Thermal correction to Enthalpy=                  0.236733
 Thermal correction to Gibbs Free Energy=         0.175371
 Sum of electronic and zero-point Energies=          -3591.153650
 Sum of electronic and thermal Energies=             -3591.137836
 Sum of electronic and thermal Enthalpies=           -3591.136892
 Sum of electronic and thermal Free Energies=        -3591.198254

                     E (Thermal)             CV                S
                      KCal/Mol        Cal/Mol-Kelvin    Cal/Mol-Kelvin
 Total                  147.959             56.948            129.147
 Electronic               0.000              0.000              0.000
 Translational            0.889              2.981             42.881
 Rotational               0.889              2.981             33.019
 Vibrational            146.182             50.986             53.247
 Vibration     1          0.594              1.982              5.516
 Vibration     2          0.596              1.975              4.592
 Vibration     3          0.597              1.973              4.410
 Vibration     4          0.600              1.963              3.887
 Vibration     5          0.606              1.942              3.289
 Vibration     6          0.610              1.929              3.041
 Vibration     7          0.616              1.909              2.750
 Vibration     8          0.622              1.890              2.534
 Vibration     9          0.624              1.885              2.490
 Vibration    10          0.627              1.874              2.392
 Vibration    11          0.645              1.816              1.991
 Vibration    12          0.651              1.800              1.903
 Vibration    13          0.669              1.743              1.651
 Vibration    14          0.678              1.718              1.558
 Vibration    15          0.688              1.686              1.455
 Vibration    16          0.706              1.634              1.306
 Vibration    17          0.740              1.539              1.091
 Vibration    18          0.784              1.424              0.887
 Vibration    19          0.816              1.343              0.772
 Vibration    20          0.862              1.235              0.642
 Vibration    21          0.886              1.182              0.586
 Vibration    22          0.918              1.113              0.519
 Vibration    23          0.966              1.017              0.438

 Optimization completed.
    -- Stationary point found.
 Normal termination of Gaussian 16 at Sat Feb 20 23:47:53 2021.
