 Gaussian 16, Revision A.03,
 Gaussian 16:  ES64L-G16RevA.03 25-Dec-2016

 ----------------------------------------------------------------------
 # wB97XD def2tzvp, opt=(ts, noeigen, calcfc, maxcycles=70, maxstep=8),
  freq=noraman, scrf=(iefpcm, solvent=water)
 ----------------------------------------------------------------------

 ------------------------
 1_iteration/TS-601-1.out
 ------------------------
 Symbolic Z-matrix:
 Charge =  0 Multiplicity = 1

 SCF Done:  E(RwB97XD) =  -3323.49995209     A.U. after   15 cycles
 SCF Done:  E(RwB97XD) =  -3323.50002773     A.U. after   12 cycles
 SCF Done:  E(RwB97XD) =  -3323.50004547     A.U. after   12 cycles
 SCF Done:  E(RwB97XD) =  -3323.50004818     A.U. after   10 cycles
 SCF Done:  E(RwB97XD) =  -3323.50004872     A.U. after    8 cycles
 SCF Done:  E(RwB97XD) =  -3323.50004889     A.U. after    7 cycles
 SCF Done:  E(RwB97XD) =  -3323.50004892     A.U. after    7 cycles
 Optimization completed.
    -- Stationary point found.
 Normal termination of Gaussian 16 at Fri Feb 19 18:38:57 2021.

 ---------------------------------------------------------------------
 #N Geom=AllCheck Guess=TCheck SCRF=Check GenChk RwB97XD/def2TZVP Freq
 ---------------------------------------------------------------------

 Structure from the checkpoint file:  "/beegfs/scratch/user/q/tla25/Gau-89634.chk"
 ------------------------
 1_iteration/TS-601-1.out
 ------------------------
 Charge =  0 Multiplicity = 1

                         Standard orientation:
 ---------------------------------------------------------------------
 Center     Atomic      Atomic             Coordinates (Angstroms)
 Number     Number       Type             X           Y           Z
 ---------------------------------------------------------------------
      1          6           0        0.486083    0.831932   -0.163520
      2          6           0        0.101337    2.188402   -0.374750
      3          8           0        0.861152    3.112276   -0.670600
      4          6           0       -0.476010   -0.105355    0.220121
      5          6           0       -0.493287    0.990132    2.843093
      6          1           0       -0.041436    0.947253    3.833117
      7          1           0        0.016838    1.754281    2.254281
      8          1           0       -1.541975    1.260412    2.934488
      9          7           0       -0.363890   -0.284483    2.146821
     10          1           0        0.582354   -0.642077    2.223748
     11          1           0       -0.977980   -1.001624    2.517666
     12         35           0       -0.020864   -1.997792   -0.131950
     13          6           0       -1.931560    0.102060   -0.087901
     14          6           0       -2.965891   -0.032118    0.830859
     15          6           0       -4.286848    0.137747    0.440975
     16          6           0       -4.598088    0.429397   -0.876087
     17          6           0       -3.575376    0.545745   -1.806967
     18          6           0       -2.258600    0.380837   -1.417478
     19          1           0       -2.774924   -0.269975    1.865486
     20          1           0       -5.072953    0.038537    1.178134
     21          1           0       -5.629275    0.560757   -1.177298
     22          1           0       -3.801935    0.765639   -2.842215
     23          1           0       -1.466271    0.466384   -2.149249
     24          6           0        1.936396    0.502195   -0.234807
     25          6           0        2.508597    0.087315   -1.435799
     26          6           0        3.859730   -0.211921   -1.516638
     27          6           0        4.666974   -0.098459   -0.392529
     28          6           0        4.114709    0.324983    0.806770
     29          6           0        2.761659    0.627549    0.880393
     30          1           0        1.879626   -0.006618   -2.313059
     31          1           0        4.284325   -0.535643   -2.458889
     32          1           0        5.721965   -0.334264   -0.453348
     33          1           0        4.737398    0.425396    1.687018
     34          1           0        2.348234    0.981200    1.818230
     35          1           0       -0.974708    2.403568   -0.257222
 ---------------------------------------------------------------------

 SCF Done:  E(RwB97XD) =  -3323.50004892     A.U. after    1 cycles

 The electronic state is 1-A.
 Alpha  occ. eigenvalues -- -483.13248 -62.68075 -56.47190 -56.46845 -56.46829
 Alpha  occ. eigenvalues --  -19.21101 -14.49785 -10.41003 -10.34848 -10.32276
 Alpha  occ. eigenvalues --  -10.32084 -10.30373 -10.29992 -10.29977 -10.29797
 Alpha  occ. eigenvalues --  -10.29738 -10.29682 -10.28975 -10.28913 -10.28897
 Alpha  occ. eigenvalues --  -10.28824 -10.28668 -10.27406  -8.82161  -6.64292
 Alpha  occ. eigenvalues --   -6.63203  -6.63149  -2.74676  -2.74379  -2.74336
 Alpha  occ. eigenvalues --   -2.73455  -2.73454  -1.11344  -1.05305  -0.98605
 Alpha  occ. eigenvalues --   -0.96789  -0.93735  -0.87554  -0.86579  -0.86137
 Alpha  occ. eigenvalues --   -0.84958  -0.82567  -0.79712  -0.74463  -0.71642
 Alpha  occ. eigenvalues --   -0.70434  -0.70333  -0.68979  -0.65562  -0.63590
 Alpha  occ. eigenvalues --   -0.61401  -0.59113  -0.58450  -0.57585  -0.56747
 Alpha  occ. eigenvalues --   -0.54729  -0.54427  -0.54307  -0.53145  -0.52408
 Alpha  occ. eigenvalues --   -0.51650  -0.50804  -0.49481  -0.49049  -0.48572
 Alpha  occ. eigenvalues --   -0.47261  -0.46343  -0.46018  -0.45132  -0.44563
 Alpha  occ. eigenvalues --   -0.43277  -0.42619  -0.42403  -0.38550  -0.37658
 Alpha  occ. eigenvalues --   -0.34675  -0.34453  -0.33653  -0.32928  -0.31914
 Alpha  occ. eigenvalues --   -0.28902
 Alpha virt. eigenvalues --    0.01551   0.02877   0.04707   0.05235   0.05374
 Alpha virt. eigenvalues --    0.07680   0.10035   0.12703   0.13003   0.13600
 Alpha virt. eigenvalues --    0.13786   0.14940   0.15064   0.15619   0.17365

 Mulliken charges:
               1
     1  C   -0.233882
     2  C    0.133721
     3  O   -0.496747
     4  C    0.208750
     5  C   -0.312404
     6  H    0.170545
     7  H    0.163164
     8  H    0.163863
     9  N   -0.332936
    10  H    0.287117
    11  H    0.293382
    12  Br  -0.106342
    13  C    0.185868
    14  C   -0.196105
    15  C   -0.165922
    16  C   -0.142568
    17  C   -0.113751
    18  C   -0.308608
    19  H    0.143538
    20  H    0.147569
    21  H    0.149011
    22  H    0.148373
    23  H    0.169907
    24  C    0.197251
    25  C   -0.252057
    26  C   -0.145026
    27  C   -0.134633
    28  C   -0.170676
    29  C   -0.281854
    30  H    0.143710
    31  H    0.139897
    32  H    0.142987
    33  H    0.140112
    34  H    0.169761
    35  H    0.094987
 Sum of Mulliken charges =  -0.00000

 Dipole moment (field-independent basis, Debye):
    X=             -4.9243    Y=             -5.1574    Z=              6.9776  Tot=              9.9767
 Quadrupole moment (field-independent basis, Debye-Ang):
   XX=           -108.0060   YY=           -150.8835   ZZ=            -99.7213
   XY=            -10.7843   XZ=              0.6827   YZ=              4.2492

  Exact polarizability: 357.025  -7.117 264.537  -7.007 -11.764 305.133
 Approx polarizability: 272.221  -4.613 222.207  -5.813  -9.141 261.526

 ******    1 imaginary frequencies (negative Signs) ******

                      1                      2                      3
                      A                      A                      A
 Frequencies --   -343.7137                25.0526                27.3447
 Red. masses --      5.3159                 3.8893                 4.1296
 Frc consts  --      0.3700                 0.0014                 0.0018
 IR Inten    --    617.5989                 0.0983                 1.3621

                      4                      5                      6
                      A                      A                      A
 Frequencies --     49.6563                60.3198                80.3144
 Red. masses --      4.9587                 5.7058                 7.1096
 Frc consts  --      0.0072                 0.0122                 0.0270
 IR Inten    --      0.6008                 3.8275                 0.7261

                      7                      8                      9
                      A                      A                      A
 Frequencies --     95.9066               118.3948               136.3029
 Red. masses --      4.5520                 2.0661                 2.5501
 Frc consts  --      0.0247                 0.0171                 0.0279
 IR Inten    --      1.9196                 2.1888                 8.6266

                     10                     11                     12
                      A                      A                      A
 Frequencies --    158.1067               178.8788               208.9268
 Red. masses --      5.3480                 2.6297                 4.1671
 Frc consts  --      0.0788                 0.0496                 0.1072
 IR Inten    --      8.4967                 2.5133                 6.7316

                     13                     14                     15
                      A                      A                      A
 Frequencies --    210.8765               246.7004               262.4273
 Red. masses --      4.5665                 4.0377                 4.1789
 Frc consts  --      0.1196                 0.1448                 0.1696
 IR Inten    --      7.9894                10.6664                 6.2938

                     16                     17                     18
                      A                      A                      A
 Frequencies --    276.1391               298.8534               311.5536
 Red. masses --      3.6307                 3.0607                 3.1711
 Frc consts  --      0.1631                 0.1611                 0.1814
 IR Inten    --      3.9849                 5.7242                27.2007

                     19                     20                     21
                      A                      A                      A
 Frequencies --    340.9181               422.8018               423.8667
 Red. masses --      5.3195                 2.8909                 2.8814
 Frc consts  --      0.3643                 0.3045                 0.3050
 IR Inten    --     17.9862                 0.1195                 1.1870

                     22                     23                     24
                      A                      A                      A
 Frequencies --    487.7944               505.2626               523.7378
 Red. masses --      4.7794                 4.4231                 3.8526
 Frc consts  --      0.6700                 0.6653                 0.6226
 IR Inten    --     33.2916                18.5031                20.5264

                     25                     26                     27
                      A                      A                      A
 Frequencies --    536.4950               602.4065               635.5207
 Red. masses --      4.0802                 2.6947                 4.7468
 Frc consts  --      0.6919                 0.5762                 1.1296
 IR Inten    --     40.4556                68.5042                 5.3644

                     28                     29                     30
                      A                      A                      A
 Frequencies --    640.0326               665.9989               687.7720
 Red. masses --      5.5993                 5.7684                 2.6417
 Frc consts  --      1.3514                 1.5075                 0.7362
 IR Inten    --      2.1791                82.0101                59.3586

                     31                     32                     33
                      A                      A                      A
 Frequencies --    719.0539               724.5046               731.0895
 Red. masses --      2.7872                 2.0125                 1.4697
 Frc consts  --      0.8491                 0.6224                 0.4628
 IR Inten    --     24.9373               242.1469               213.5590

                     34                     35                     36
                      A                      A                      A
 Frequencies --    765.6462               797.8637               839.0376
 Red. masses --      2.4605                 2.6991                 3.3351
 Frc consts  --      0.8498                 1.0123                 1.3833
 IR Inten    --     96.0213                 3.7444                62.5159

                     37                     38                     39
                      A                      A                      A
 Frequencies --    870.7276               881.6093               893.2336
 Red. masses --      1.2533                 1.2468                 3.5923
 Frc consts  --      0.5599                 0.5710                 1.6887
 IR Inten    --      1.0588                 0.0997                26.1490

                     40                     41                     42
                      A                      A                      A
 Frequencies --    961.8926               963.2391               997.3456
 Red. masses --      1.4625                 1.5529                 1.1096
 Frc consts  --      0.7972                 0.8489                 0.6503
 IR Inten    --      0.4193                 6.3114                41.9363

                     43                     44                     45
                      A                      A                      A
 Frequencies --   1012.5780              1016.2247              1025.5305
 Red. masses --      1.3836                 1.3643                 5.2710
 Frc consts  --      0.8359                 0.8301                 3.2662
 IR Inten    --      0.5542                 1.5860                 4.1624

                     46                     47                     48
                      A                      A                      A
 Frequencies --   1026.6355              1029.1297              1034.6319
 Red. masses --      5.7036                 1.3148                 1.5808
 Frc consts  --      3.5419                 0.8204                 0.9970
 IR Inten    --      0.6623                 0.3470                 1.0178

                     49                     50                     51
                      A                      A                      A
 Frequencies --   1036.2861              1059.9632              1062.2338
 Red. masses --      1.3887                 2.4186                 1.2062
 Frc consts  --      0.8786                 1.6010                 0.8019
 IR Inten    --      0.2310                 6.8579                99.7430

                     52                     53                     54
                      A                      A                      A
 Frequencies --   1069.1021              1074.2063              1111.5668
 Red. masses --      2.0570                 4.7838                 1.5702
 Frc consts  --      1.3852                 3.2524                 1.1431
 IR Inten    --     17.8355                28.8973                20.0155

                     55                     56                     57
                      A                      A                      A
 Frequencies --   1128.1176              1143.4688              1182.4573
 Red. masses --      1.6434                 2.9157                 1.1338
 Frc consts  --      1.2323                 2.2461                 0.9340
 IR Inten    --      8.0689                 3.3905                 0.0291

                     58                     59                     60
                      A                      A                      A
 Frequencies --   1187.9734              1209.7477              1220.3031
 Red. masses --      1.1287                 1.1335                 1.8559
 Frc consts  --      0.9385                 0.9774                 1.6283
 IR Inten    --      0.2744                 1.8854               159.6455

                     61                     62                     63
                      A                      A                      A
 Frequencies --   1224.0543              1231.8753              1307.2363
 Red. masses --      1.2896                 1.7993                 4.2080
 Frc consts  --      1.1385                 1.6087                 4.2367
 IR Inten    --     43.4781                87.8752               260.3813

                     64                     65                     66
                      A                      A                      A
 Frequencies --   1310.9127              1332.5677              1338.5119
 Red. masses --      4.5910                 3.3965                 1.4627
 Frc consts  --      4.6484                 3.5536                 1.5440
 IR Inten    --    122.7029               376.1600                57.6310

                     67                     68                     69
                      A                      A                      A
 Frequencies --   1360.1476              1367.6629              1423.7737
 Red. masses --      1.4362                 1.3933                 2.1537
 Frc consts  --      1.5655                 1.5355                 2.5723
 IR Inten    --      2.8419                12.3194               121.9344

                     70                     71                     72
                      A                      A                      A
 Frequencies --   1461.8953              1483.4446              1486.9081
 Red. masses --      1.2490                 1.9605                 2.1972
 Frc consts  --      1.5727                 2.5419                 2.8622
 IR Inten    --     32.8985                63.4719                 5.9831

                     73                     74                     75
                      A                      A                      A
 Frequencies --   1490.1598              1492.0651              1509.3626
 Red. masses --      1.1642                 1.8939                 1.0375
 Frc consts  --      1.5231                 2.4842                 1.3926
 IR Inten    --     34.3040                82.7759                10.5860

                     76                     77                     78
                      A                      A                      A
 Frequencies --   1544.1162              1551.5256              1644.0461
 Red. masses --      2.2754                 2.6950                 1.5254
 Frc consts  --      3.1964                 3.8223                 2.4292
 IR Inten    --     31.4784                41.7034               203.7236

                     79                     80                     81
                      A                      A                      A
 Frequencies --   1646.8149              1654.6246              1659.1507
 Red. masses --      5.5017                 2.3943                 7.3346
 Frc consts  --      8.7909                 3.8622                11.8959
 IR Inten    --     11.4841                18.4426               729.6654

                     82                     83                     84
                      A                      A                      A
 Frequencies --   1674.0124              1677.4053              2965.0846
 Red. masses --      5.6672                 5.8438                 1.0826
 Frc consts  --      9.3570                 9.6877                 5.6076
 IR Inten    --      1.1709               166.4904               157.0669

                     85                     86                     87
                      A                      A                      A
 Frequencies --   3070.2358              3144.2994              3179.5424
 Red. masses --      1.0350                 1.1027                 1.1046
 Frc consts  --      5.7481                 6.4235                 6.5793
 IR Inten    --     28.9395                 6.8018                12.5901

                     88                     89                     90
                      A                      A                      A
 Frequencies --   3185.5317              3191.1241              3200.4793
 Red. masses --      1.0876                 1.0872                 1.0908
 Frc consts  --      6.5023                 6.5232                 6.5833
 IR Inten    --     12.6277                 2.3857                11.4095

                     91                     92                     93
                      A                      A                      A
 Frequencies --   3201.7846              3208.9735              3209.9849
 Red. masses --      1.0864                 1.0949                 1.0897
 Frc consts  --      6.5619                 6.6430                 6.6152
 IR Inten    --      0.5225                41.9410                 7.4679

                     94                     95                     96
                      A                      A                      A
 Frequencies --   3218.8906              3219.8569              3226.9164
 Red. masses --      1.0937                 1.0988                 1.0981
 Frc consts  --      6.6768                 6.7117                 6.7373
 IR Inten    --     20.4186                17.0351                17.1318

                     97                     98                     99
                      A                      A                      A
 Frequencies --   3256.7079              3513.7975              3589.3658
 Red. masses --      1.0912                 1.0521                 1.0955
 Frc consts  --      6.8191                 7.6535                 8.3158
 IR Inten    --     16.1297                44.2557                66.5372

 - Thermochemistry -
 -------------------
 Temperature   298.150 Kelvin.  Pressure   1.00000 Atm.
 Atom     1 has atomic number  6 and mass  12.00000

 Molecular mass:   317.04153 amu.
 Principal axes and moments of inertia in atomic units:
                           1         2         3
     Eigenvalues --  3516.067108183.687758810.94573
           X            0.99997  -0.00782  -0.00116
           Y            0.00785   0.99960   0.02712
           Z            0.00094  -0.02713   0.99963
 This molecule is an asymmetric top.
 Rotational symmetry number  1.
 Warning -- assumption of classical behavior for rotation
           may cause significant error
 Rotational temperatures (Kelvin)      0.02463     0.01058     0.00983
 Rotational constants (GHZ):           0.51328     0.22053     0.20483
    1 imaginary frequencies ignored.
 Zero-point vibrational energy     744368.0 (Joules/Mol)
                                  177.90822 (Kcal/Mol)
 Warning -- explicit consideration of  25 degrees of freedom as
           vibrations may cause significant error
 Vibrational temperatures:     36.05    39.34    71.44    86.79   115.55
          (Kelvin)            137.99   170.34   196.11   227.48   257.37
                              300.60   303.40   354.95   377.57   397.30
                              429.98   448.26   490.51   608.32   609.85
                              701.83   726.96   753.54   771.90   866.73
                              914.37   920.86   958.22   989.55  1034.56
                             1042.40  1051.87  1101.59  1147.95  1207.19
                             1252.78  1268.44  1285.16  1383.95  1385.89
                             1434.96  1456.87  1462.12  1475.51  1477.10
                             1480.69  1488.60  1490.98  1525.05  1528.32
                             1538.20  1545.54  1599.30  1623.11  1645.20
                             1701.29  1709.23  1740.56  1755.74  1761.14
                             1772.39  1880.82  1886.11  1917.27  1925.82
                             1956.95  1967.76  2048.49  2103.34  2134.35
                             2139.33  2144.01  2146.75  2171.64  2221.64
                             2232.30  2365.42  2369.40  2380.64  2387.15
                             2408.53  2413.41  4266.10  4417.38  4523.95
                             4574.65  4583.27  4591.32  4604.78  4606.65
                             4617.00  4618.45  4631.27  4632.66  4642.81
                             4685.68  5055.57  5164.30

 Zero-point correction=                           0.283515 (Hartree/Particle)
 Thermal correction to Energy=                    0.301165
 Thermal correction to Enthalpy=                  0.302109
 Thermal correction to Gibbs Free Energy=         0.235673
 Sum of electronic and zero-point Energies=          -3323.216534
 Sum of electronic and thermal Energies=             -3323.198884
 Sum of electronic and thermal Enthalpies=           -3323.197940
 Sum of electronic and thermal Free Energies=        -3323.264376

                     E (Thermal)             CV                S
                      KCal/Mol        Cal/Mol-Kelvin    Cal/Mol-Kelvin
 Total                  188.984             66.103            139.828
 Electronic               0.000              0.000              0.000
 Translational            0.889              2.981             43.157
 Rotational               0.889              2.981             33.894
 Vibrational            187.207             60.141             62.777
 Vibration     1          0.593              1.985              6.187
 Vibration     2          0.593              1.984              6.013
 Vibration     3          0.595              1.978              4.831
 Vibration     4          0.597              1.973              4.447
 Vibration     5          0.600              1.963              3.883
 Vibration     6          0.603              1.952              3.536
 Vibration     7          0.609              1.934              3.126
 Vibration     8          0.614              1.917              2.855
 Vibration     9          0.621              1.894              2.572
 Vibration    10          0.629              1.868              2.340
 Vibration    11          0.642              1.827              2.053
 Vibration    12          0.643              1.824              2.036
 Vibration    13          0.661              1.768              1.754
 Vibration    14          0.670              1.742              1.646
 Vibration    15          0.678              1.718              1.557
 Vibration    16          0.692              1.676              1.423
 Vibration    17          0.700              1.652              1.354
 Vibration    18          0.720              1.594              1.208
 Vibration    19          0.785              1.421              0.883
 Vibration    20          0.786              1.418              0.879
 Vibration    21          0.844              1.277              0.689
 Vibration    22          0.861              1.238              0.645
 Vibration    23          0.879              1.197              0.601
 Vibration    24          0.892              1.169              0.573
 Vibration    25          0.961              1.027              0.446

 Optimization completed.
    -- Stationary point found.
 Normal termination of Gaussian 16 at Fri Feb 19 20:47:19 2021.
