 Gaussian 16, Revision A.03,
 Gaussian 16:  ES64L-G16RevA.03 25-Dec-2016

 ----------------------------------------------------------------------
 # wB97XD def2tzvp, opt=(ts, noeigen, calcfc, maxcycles=70, maxstep=1),
  freq=noraman, scrf=(iefpcm, solvent=water)
 ----------------------------------------------------------------------

 ------------------------
 0_iteration/TS-699-0.out
 ------------------------
 Symbolic Z-matrix:
 Charge =  0 Multiplicity = 1

 SCF Done:  E(RwB97XD) =  -2995.41334870     A.U. after   15 cycles
 SCF Done:  E(RwB97XD) =  -2995.41335135     A.U. after   10 cycles
 SCF Done:  E(RwB97XD) =  -2995.41335467     A.U. after   10 cycles
 SCF Done:  E(RwB97XD) =  -2995.41335281     A.U. after   10 cycles
 SCF Done:  E(RwB97XD) =  -2995.41334687     A.U. after   10 cycles
 SCF Done:  E(RwB97XD) =  -2995.41333757     A.U. after   10 cycles
 SCF Done:  E(RwB97XD) =  -2995.41332628     A.U. after   10 cycles
 SCF Done:  E(RwB97XD) =  -2995.41331230     A.U. after   10 cycles
 SCF Done:  E(RwB97XD) =  -2995.41329524     A.U. after   10 cycles
 SCF Done:  E(RwB97XD) =  -2995.41327583     A.U. after   10 cycles
 SCF Done:  E(RwB97XD) =  -2995.41314849     A.U. after   11 cycles
 SCF Done:  E(RwB97XD) =  -2995.41315602     A.U. after   10 cycles
 SCF Done:  E(RwB97XD) =  -2995.41315483     A.U. after   11 cycles
 SCF Done:  E(RwB97XD) =  -2995.41315150     A.U. after   11 cycles
 SCF Done:  E(RwB97XD) =  -2995.41315067     A.U. after   10 cycles
 SCF Done:  E(RwB97XD) =  -2995.41315112     A.U. after   10 cycles
 SCF Done:  E(RwB97XD) =  -2995.41315160     A.U. after   10 cycles
 SCF Done:  E(RwB97XD) =  -2995.41315164     A.U. after    9 cycles
 SCF Done:  E(RwB97XD) =  -2995.41315159     A.U. after    8 cycles
 Optimization completed.
    -- Stationary point found.
 Normal termination of Gaussian 16 at Fri Feb 19 07:40:29 2021.

 ---------------------------------------------------------------------
 #N Geom=AllCheck Guess=TCheck SCRF=Check GenChk RwB97XD/def2TZVP Freq
 ---------------------------------------------------------------------

 Structure from the checkpoint file:  "/beegfs/scratch/user/q/tla25/Gau-29222.chk"
 ------------------------
 0_iteration/TS-699-0.out
 ------------------------
 Charge =  0 Multiplicity = 1

                         Standard orientation:
 ---------------------------------------------------------------------
 Center     Atomic      Atomic             Coordinates (Angstroms)
 Number     Number       Type             X           Y           Z
 ---------------------------------------------------------------------
      1          6           0       -0.881853   -0.376490   -0.362135
      2          6           0       -2.230850   -0.576473    0.131936
      3          8           0       -2.999315   -1.369581   -0.430912
      4          6           0        0.145188    0.244516    0.323882
      5          6           0       -0.387582    2.645117   -0.960978
      6          1           0       -0.159419    3.294684   -1.804355
      7          1           0       -1.243783    2.013858   -1.210049
      8          1           0       -0.631688    3.255055   -0.094492
      9          7           0        0.734228    1.769051   -0.645280
     10          1           0        1.158468    1.394299   -1.485085
     11          1           0        1.462853    2.239401   -0.119997
     12         35           0        1.943391   -0.712767    0.175362
     13          6           0        0.069514    0.831512    1.707099
     14          1           0       -0.581692    1.705804    1.729812
     15          1           0       -0.309801    0.091126    2.409532
     16          1           0        1.051220    1.154954    2.042943
     17          6           0       -0.609695   -1.011427   -1.704385
     18          1           0        0.198817   -0.508266   -2.237587
     19          1           0       -0.326221   -2.065907   -1.620179
     20          1           0       -1.499672   -0.965782   -2.330376
     21          7           0       -2.697044    0.063574    1.261716
     22          1           0       -3.689292   -0.043146    1.393365
     23          1           0       -2.342564    0.968503    1.508528
 ---------------------------------------------------------------------

 SCF Done:  E(RwB97XD) =  -2995.41315159     A.U. after    1 cycles

 The electronic state is 1-A.
 Alpha  occ. eigenvalues -- -483.11505 -62.66373 -56.45454 -56.45151 -56.45137
 Alpha  occ. eigenvalues --  -19.19450 -14.49487 -14.43235 -10.39648 -10.37461
 Alpha  occ. eigenvalues --  -10.31958 -10.29486 -10.26689 -10.26159  -8.80481
 Alpha  occ. eigenvalues --   -6.62521  -6.61568  -6.61522  -2.72913  -2.72661
 Alpha  occ. eigenvalues --   -2.72625  -2.71853  -2.71852  -1.12049  -1.04978
 Alpha  occ. eigenvalues --   -0.98644  -0.93093  -0.85178  -0.83595  -0.79332
 Alpha  occ. eigenvalues --   -0.75388  -0.69931  -0.63951  -0.63692  -0.59267
 Alpha  occ. eigenvalues --   -0.58141  -0.56978  -0.55435  -0.52179  -0.50704
 Alpha  occ. eigenvalues --   -0.50518  -0.49915  -0.48348  -0.46875  -0.46129
 Alpha  occ. eigenvalues --   -0.44415  -0.43285  -0.42608  -0.36740  -0.36468
 Alpha  occ. eigenvalues --   -0.35079  -0.33134  -0.26784
 Alpha virt. eigenvalues --    0.03783   0.06744   0.09504   0.12024   0.13601
 Alpha virt. eigenvalues --    0.14986   0.15353   0.16002   0.16530   0.18321
 Alpha virt. eigenvalues --    0.18994   0.19947   0.20273   0.21456   0.22157

 Mulliken charges:
               1
     1  C   -0.206484
     2  C    0.296520
     3  O   -0.536047
     4  C    0.090650
     5  C   -0.303009
     6  H    0.163116
     7  H    0.156266
     8  H    0.162423
     9  N   -0.288669
    10  H    0.284238
    11  H    0.294983
    12  Br  -0.210433
    13  C   -0.419707
    14  H    0.145284
    15  H    0.174351
    16  H    0.162914
    17  C   -0.371430
    18  H    0.110047
    19  H    0.120784
    20  H    0.127951
    21  N   -0.457497
    22  H    0.253187
    23  H    0.250562
 Sum of Mulliken charges =  -0.00000

 Dipole moment (field-independent basis, Debye):
    X=              3.9897    Y=             10.8191    Z=              0.9119  Tot=             11.5672
 Quadrupole moment (field-independent basis, Debye-Ang):
   XX=            -88.2111   YY=            -68.1006   ZZ=            -70.2572
   XY=             -8.1226   XZ=             -8.6162   YZ=             -2.4063

  Exact polarizability: 206.345   9.028 160.209   1.806   5.891 140.015
 Approx polarizability: 156.801   7.413 131.635   1.997   5.513 117.861

 ******    1 imaginary frequencies (negative Signs) ******

                      1                      2                      3
                      A                      A                      A
 Frequencies --   -404.0312                42.4162                72.5221
 Red. masses --      5.5735                 3.8189                 2.1299
 Frc consts  --      0.5361                 0.0040                 0.0066
 IR Inten    --    602.1046                10.7450                 1.2554

                      4                      5                      6
                      A                      A                      A
 Frequencies --     80.4209               111.7301               153.6671
 Red. masses --      4.4407                 1.1290                 2.6839
 Frc consts  --      0.0169                 0.0083                 0.0373
 IR Inten    --      8.4517                 3.4064                 1.7853

                      7                      8                      9
                      A                      A                      A
 Frequencies --    165.9240               186.5237               225.1120
 Red. masses --      2.0131                 2.0868                 4.8486
 Frc consts  --      0.0327                 0.0428                 0.1448
 IR Inten    --     21.4133                17.5872                49.8635

                     10                     11                     12
                      A                      A                      A
 Frequencies --    250.2714               283.7578               305.4121
 Red. masses --      3.5305                 2.6476                 1.9255
 Frc consts  --      0.1303                 0.1256                 0.1058
 IR Inten    --     18.6914                 4.6438                15.0202

                     13                     14                     15
                      A                      A                      A
 Frequencies --    326.6432               366.2088               381.3684
 Red. masses --      2.5304                 2.3744                 1.6870
 Frc consts  --      0.1591                 0.1876                 0.1446
 IR Inten    --     18.4495                19.3429                18.1743

                     16                     17                     18
                      A                      A                      A
 Frequencies --    422.2978               443.3524               498.0592
 Red. masses --      2.0715                 1.4604                 1.7248
 Frc consts  --      0.2177                 0.1691                 0.2521
 IR Inten    --     94.7042               214.5700               102.2825

                     19                     20                     21
                      A                      A                      A
 Frequencies --    534.7930               564.7401               621.1056
 Red. masses --      1.9146                 3.0033                 3.5770
 Frc consts  --      0.3226                 0.5643                 0.8130
 IR Inten    --     59.4058                30.5097               248.8892

                     22                     23                     24
                      A                      A                      A
 Frequencies --    689.8168               758.3519               785.3871
 Red. masses --      1.5394                 3.0187                 6.7293
 Frc consts  --      0.4316                 1.0228                 2.4456
 IR Inten    --     35.3636               140.7651                44.6256

                     25                     26                     27
                      A                      A                      A
 Frequencies --    956.2847              1010.5285              1037.9846
 Red. masses --      1.6075                 1.0802                 1.2269
 Frc consts  --      0.8661                 0.6499                 0.7788
 IR Inten    --    181.5684                23.1245                17.3666

                     28                     29                     30
                      A                      A                      A
 Frequencies --   1056.2812              1059.0023              1077.9327
 Red. masses --      1.6699                 1.4068                 1.6667
 Frc consts  --      1.0977                 0.9296                 1.1410
 IR Inten    --    121.1495                58.6695                59.4120

                     31                     32                     33
                      A                      A                      A
 Frequencies --   1083.6441              1087.5059              1138.3248
 Red. masses --      3.6056                 1.8313                 2.5177
 Frc consts  --      2.4946                 1.2760                 1.9222
 IR Inten    --     92.8106                79.8323                50.6173

                     34                     35                     36
                      A                      A                      A
 Frequencies --   1199.9911              1221.0726              1334.3394
 Red. masses --      2.7831                 1.3900                 1.3195
 Frc consts  --      2.3612                 1.2211                 1.3842
 IR Inten    --     53.6105                33.3231                 1.8173

                     37                     38                     39
                      A                      A                      A
 Frequencies --   1392.7039              1413.8173              1417.9184
 Red. masses --      3.8819                 1.3156                 1.2333
 Frc consts  --      4.4362                 1.5494                 1.4609
 IR Inten    --    962.4708                21.6486                 0.8528

                     40                     41                     42
                      A                      A                      A
 Frequencies --   1453.0962              1464.8758              1476.7796
 Red. masses --      1.2422                 1.0854                 1.2813
 Frc consts  --      1.5454                 1.3723                 1.6464
 IR Inten    --     46.3892                72.2909               112.7022

                     43                     44                     45
                      A                      A                      A
 Frequencies --   1488.7867              1497.2478              1500.7995
 Red. masses --      1.0885                 1.0391                 1.0538
 Frc consts  --      1.4215                 1.3724                 1.3985
 IR Inten    --      9.7619                25.7342                45.1209

                     46                     47                     48
                      A                      A                      A
 Frequencies --   1508.9667              1528.4322              1615.5573
 Red. masses --      1.0773                 2.2214                 2.5560
 Frc consts  --      1.4453                 3.0575                 3.9306
 IR Inten    --     69.2224               479.9584               633.6092

                     49                     50                     51
                      A                      A                      A
 Frequencies --   1646.5006              1654.5942              3029.1015
 Red. masses --      1.0883                 1.7294                 1.0477
 Frc consts  --      1.7383                 2.7895                 5.6640
 IR Inten    --     74.6337               462.8695                72.5859

                     52                     53                     54
                      A                      A                      A
 Frequencies --   3059.8364              3074.1204              3094.1743
 Red. masses --      1.0370                 1.0389                 1.0899
 Frc consts  --      5.7204                 5.7847                 6.1482
 IR Inten    --     38.0730                15.2653                50.3709

                     55                     56                     57
                      A                      A                      A
 Frequencies --   3138.4333              3140.7551              3149.2961
 Red. masses --      1.0994                 1.0997                 1.0992
 Frc consts  --      6.3804                 6.3915                 6.4231
 IR Inten    --     31.1749                 4.8367                16.2721

                     58                     59                     60
                      A                      A                      A
 Frequencies --   3172.3222              3172.6200              3529.2053
 Red. masses --      1.1036                 1.1059                 1.0512
 Frc consts  --      6.5437                 6.5584                 7.7145
 IR Inten    --      5.4666                12.7262                50.4172

                     61                     62                     63
                      A                      A                      A
 Frequencies --   3610.3612              3619.4251              3740.3386
 Red. masses --      1.0964                 1.0491                 1.0979
 Frc consts  --      8.4199                 8.0973                 9.0493
 IR Inten    --     51.9747                38.5208                45.5582

 - Thermochemistry -
 -------------------
 Temperature   298.150 Kelvin.  Pressure   1.00000 Atm.
 Atom     1 has atomic number  6 and mass  12.00000

 Molecular mass:   208.02112 amu.
 Principal axes and moments of inertia in atomic units:
                           1         2         3
     Eigenvalues --  1504.154112885.247263284.48641
           X            0.99954   0.02666  -0.01412
           Y           -0.02624   0.99922   0.02937
           Z            0.01490  -0.02899   0.99947
 This molecule is an asymmetric top.
 Rotational symmetry number  1.
 Warning -- assumption of classical behavior for rotation
           may cause significant error
 Rotational temperatures (Kelvin)      0.05758     0.03002     0.02637
 Rotational constants (GHZ):           1.19984     0.62551     0.54947
    1 imaginary frequencies ignored.
 Zero-point vibrational energy     509147.6 (Joules/Mol)
                                  121.68921 (Kcal/Mol)
 Warning -- explicit consideration of  19 degrees of freedom as
           vibrations may cause significant error
 Vibrational temperatures:     61.03   104.34   115.71   160.75   221.09
          (Kelvin)            238.73   268.37   323.89   360.08   408.26
                              439.42   469.97   526.89   548.70   607.59
                              637.89   716.60   769.45   812.54   893.63
                              992.49  1091.10  1130.00  1375.88  1453.93
                             1493.43  1519.75  1523.67  1550.90  1559.12
                             1564.68  1637.80  1726.52  1756.85  1919.82
                             2003.79  2034.17  2040.07  2090.68  2107.63
                             2124.76  2142.03  2154.21  2159.32  2171.07
                             2199.07  2324.43  2368.95  2380.59  4358.20
                             4402.42  4422.97  4451.83  4515.51  4518.85
                             4531.13  4564.26  4564.69  5077.74  5194.50
                             5207.55  5381.51

 Zero-point correction=                           0.193924 (Hartree/Particle)
 Thermal correction to Energy=                    0.206626
 Thermal correction to Enthalpy=                  0.207570
 Thermal correction to Gibbs Free Energy=         0.154256
 Sum of electronic and zero-point Energies=          -2995.219227
 Sum of electronic and thermal Energies=             -2995.206526
 Sum of electronic and thermal Enthalpies=           -2995.205582
 Sum of electronic and thermal Free Energies=        -2995.258895

                     E (Thermal)             CV                S
                      KCal/Mol        Cal/Mol-Kelvin    Cal/Mol-Kelvin
 Total                  129.660             45.123            112.208
 Electronic               0.000              0.000              0.000
 Translational            0.889              2.981             41.901
 Rotational               0.889              2.981             31.034
 Vibrational            127.882             39.162             39.273
 Vibration     1          0.595              1.980              5.143
 Vibration     2          0.599              1.967              4.084
 Vibration     3          0.600              1.962              3.881
 Vibration     4          0.607              1.940              3.239
 Vibration     5          0.619              1.899              2.626
 Vibration     6          0.624              1.884              2.481
 Vibration     7          0.632              1.858              2.262
 Vibration     8          0.650              1.803              1.918
 Vibration     9          0.663              1.762              1.729
 Vibration    10          0.682              1.704              1.511
 Vibration    11          0.696              1.663              1.387
 Vibration    12          0.710              1.622              1.277
 Vibration    13          0.739              1.542              1.096
 Vibration    14          0.751              1.510              1.034
 Vibration    15          0.785              1.422              0.884
 Vibration    16          0.803              1.376              0.816
 Vibration    17          0.854              1.254              0.663
 Vibration    18          0.890              1.173              0.577
 Vibration    19          0.921              1.108              0.514

 Optimization completed.
    -- Stationary point found.
 Normal termination of Gaussian 16 at Fri Feb 19 08:03:32 2021.
