 Gaussian 16, Revision A.03,
 Gaussian 16:  ES64L-G16RevA.03 25-Dec-2016

 ----------------------------------------------------------------------
 # wB97XD def2tzvp, opt=(ts, noeigen, calcfc, maxcycles=70, maxstep=8),
  freq=noraman, scrf=(iefpcm, solvent=water)
 ----------------------------------------------------------------------

 ------------------------
 1_iteration/TS-665-1.out
 ------------------------
 Symbolic Z-matrix:
 Charge =  0 Multiplicity = 1

 SCF Done:  E(RwB97XD) =  -5435.01380554     A.U. after   15 cycles
 SCF Done:  E(RwB97XD) =  -5435.01380552     A.U. after    7 cycles
 Optimization completed.
    -- Stationary point found.
 Normal termination of Gaussian 16 at Fri Feb 19 09:43:26 2021.

 ---------------------------------------------------------------------
 #N Geom=AllCheck Guess=TCheck SCRF=Check GenChk RwB97XD/def2TZVP Freq
 ---------------------------------------------------------------------

 Structure from the checkpoint file:  "/beegfs/scratch/user/q/tla25/Gau-30643.chk"
 ------------------------
 1_iteration/TS-665-1.out
 ------------------------
 Charge =  0 Multiplicity = 1

                         Standard orientation:
 ---------------------------------------------------------------------
 Center     Atomic      Atomic             Coordinates (Angstroms)
 Number     Number       Type             X           Y           Z
 ---------------------------------------------------------------------
      1          6           0        0.822106    0.512390   -0.428629
      2          6           0        1.594500    1.563157   -1.011763
      3          8           0        2.802674    1.721972   -0.934364
      4          6           0       -0.542571    0.523802   -0.573969
      5          6           0       -2.813228    1.892516    0.852920
      6          1           0       -3.167323    2.482535    1.700058
      7          1           0       -2.936714    2.475923   -0.058733
      8          1           0       -3.416914    0.989800    0.776330
      9          7           0       -1.409576    1.518609    0.994886
     10          1           0       -0.809524    2.331533    1.067866
     11          1           0       -1.252553    0.941591    1.813041
     12         35           0       -1.582080   -1.065500   -0.500754
     13          1           0       -0.953678    1.228720   -1.283782
     14         35           0        1.714584   -0.765349    0.645436
     15          1           0        0.979875    2.272393   -1.599279
 ---------------------------------------------------------------------

 SCF Done:  E(RwB97XD) =  -5435.01380552     A.U. after    1 cycles

 The electronic state is 1-A.
 Alpha  occ. eigenvalues -- -483.14433-483.13056 -62.69287 -62.67894 -56.48409
 Alpha  occ. eigenvalues --  -56.48049 -56.48027 -56.47005 -56.46658 -56.46650
 Alpha  occ. eigenvalues --  -19.22901 -14.47543 -10.39790 -10.36702 -10.32536
 Alpha  occ. eigenvalues --  -10.31677  -8.83410  -8.82015  -6.65591  -6.64436
 Alpha  occ. eigenvalues --   -6.64363  -6.64156  -6.63040  -6.63013  -2.75980
 Alpha  occ. eigenvalues --   -2.75652  -2.75595  -2.74661  -2.74660  -2.74552
 Alpha  occ. eigenvalues --   -2.74222  -2.74201  -2.73298  -2.73298  -1.13433
 Alpha  occ. eigenvalues --   -1.03087  -0.96030  -0.89969  -0.84211  -0.78625
 Alpha  occ. eigenvalues --   -0.72830  -0.64689  -0.62462  -0.59158  -0.55873
 Alpha  occ. eigenvalues --   -0.54468  -0.53739  -0.49904  -0.49117  -0.47899
 Alpha  occ. eigenvalues --   -0.47046  -0.45137  -0.40106  -0.38970  -0.37641
 Alpha  occ. eigenvalues --   -0.36744  -0.34213  -0.29373
 Alpha virt. eigenvalues --    0.01453   0.05179   0.08515   0.10709   0.12656
 Alpha virt. eigenvalues --    0.14172   0.15680   0.17126   0.18467   0.19147
 Alpha virt. eigenvalues --    0.19777   0.20441   0.23039   0.23573   0.25430

 Mulliken charges:
               1
     1  C   -0.043559
     2  C    0.076710
     3  O   -0.451719
     4  C   -0.090842
     5  C   -0.264719
     6  H    0.150037
     7  H    0.149162
     8  H    0.147490
     9  N   -0.392384
    10  H    0.278022
    11  H    0.283946
    12  Br  -0.035540
    13  H    0.206244
    14  Br  -0.105835
    15  H    0.092986
 Sum of Mulliken charges =  -0.00000

 Dipole moment (field-independent basis, Debye):
    X=             -9.5988    Y=              3.2419    Z=              2.6381  Tot=             10.4694
 Quadrupole moment (field-independent basis, Debye-Ang):
   XX=            -85.7000   YY=            -67.4293   ZZ=            -69.0641
   XY=            -14.6186   XZ=              0.6749   YZ=              3.6078

  Exact polarizability: 197.285   4.562 140.911 -13.965  -6.902 117.096
 Approx polarizability: 148.756   4.829 117.346  -6.736  -6.159 101.403

 ******    1 imaginary frequencies (negative Signs) ******

                      1                      2                      3
                      A                      A                      A
 Frequencies --   -337.5939                50.0281                80.3489
 Red. masses --      6.4533                 4.1540                 2.5504
 Frc consts  --      0.4333                 0.0061                 0.0097
 IR Inten    --    886.2933                 1.4966                 6.1020

                      4                      5                      6
                      A                      A                      A
 Frequencies --     90.4546               115.5250               159.0794
 Red. masses --      5.3895                15.6593                 1.9022
 Frc consts  --      0.0260                 0.1231                 0.0284
 IR Inten    --      8.7534                 0.1385                 3.7030

                      7                      8                      9
                      A                      A                      A
 Frequencies --    175.3741               184.9487               263.2049
 Red. masses --      3.0604                 3.6081                 2.6016
 Frc consts  --      0.0555                 0.0727                 0.1062
 IR Inten    --     20.5782                 7.4706                 3.2204

                     10                     11                     12
                      A                      A                      A
 Frequencies --    301.2514               340.7509               461.9647
 Red. masses --      3.5440                 5.9984                 5.5601
 Frc consts  --      0.1895                 0.4104                 0.6991
 IR Inten    --      3.4589                 9.3733               174.9761

                     13                     14                     15
                      A                      A                      A
 Frequencies --    530.8725               595.6131               680.6995
 Red. masses --      5.0030                 1.4520                 5.7351
 Frc consts  --      0.8307                 0.3035                 1.5657
 IR Inten    --     18.0238                48.9746                42.9293

                     16                     17                     18
                      A                      A                      A
 Frequencies --    776.1841               992.8209              1001.1426
 Red. masses --      4.0693                 1.0983                 1.0934
 Frc consts  --      1.4444                 0.6379                 0.6457
 IR Inten    --    167.5927                36.4373               116.1253

                     19                     20                     21
                      A                      A                      A
 Frequencies --   1013.0665              1063.9085              1079.5104
 Red. masses --      1.5522                 1.8158                 1.7862
 Frc consts  --      0.9386                 1.2110                 1.2264
 IR Inten    --     25.1843               176.9697                17.3732

                     22                     23                     24
                      A                      A                      A
 Frequencies --   1177.4556              1206.2843              1273.0492
 Red. masses --      2.0444                 1.4273                 1.8939
 Frc consts  --      1.6700                 1.2236                 1.8085
 IR Inten    --    195.5795                11.1326                99.9643

                     25                     26                     27
                      A                      A                      A
 Frequencies --   1342.4945              1408.6649              1462.9015
 Red. masses --      1.3346                 1.7004                 1.2001
 Frc consts  --      1.4172                 1.9880                 1.5132
 IR Inten    --      1.9586               515.7502                45.4663

                     28                     29                     30
                      A                      A                      A
 Frequencies --   1490.0341              1490.9431              1508.3748
 Red. masses --      2.4439                 1.0430                 1.0405
 Frc consts  --      3.1969                 1.3660                 1.3948
 IR Inten    --    629.1610                17.1351                 8.2107

                     31                     32                     33
                      A                      A                      A
 Frequencies --   1645.8546              1704.9977              2930.9812
 Red. masses --      1.0883                 9.4976                 1.0820
 Frc consts  --      1.7369                16.2671                 5.4763
 IR Inten    --     61.1551              1004.0482               119.5066

                     34                     35                     36
                      A                      A                      A
 Frequencies --   3060.1066              3134.8962              3160.9555
 Red. masses --      1.0353                 1.1027                 1.1050
 Frc consts  --      5.7120                 6.3852                 6.5053
 IR Inten    --     58.7557                18.2917                16.0389

                     37                     38                     39
                      A                      A                      A
 Frequencies --   3218.2449              3527.0640              3612.4099
 Red. masses --      1.0909                 1.0503                 1.0965
 Frc consts  --      6.6571                 7.6984                 8.4305
 IR Inten    --      1.2797                25.7393                39.3751

 - Thermochemistry -
 -------------------
 Temperature   298.150 Kelvin.  Pressure   1.00000 Atm.
 Atom     1 has atomic number  6 and mass  12.00000

 Molecular mass:   242.88944 amu.
 Principal axes and moments of inertia in atomic units:
                           1         2         3
     Eigenvalues --  1551.660843125.926933831.18814
           X            0.99742  -0.05565  -0.04543
           Y            0.05676   0.99811   0.02374
           Z            0.04402  -0.02625   0.99869
 This molecule is an asymmetric top.
 Rotational symmetry number  1.
 Warning -- assumption of classical behavior for rotation
           may cause significant error
 Rotational temperatures (Kelvin)      0.05582     0.02771     0.02261
 Rotational constants (GHZ):           1.16310     0.57735     0.47107
    1 imaginary frequencies ignored.
 Zero-point vibrational energy     288972.7 (Joules/Mol)
                                   69.06613 (Kcal/Mol)
 Warning -- explicit consideration of  13 degrees of freedom as
           vibrations may cause significant error
 Vibrational temperatures:     71.98   115.60   130.14   166.21   228.88
          (Kelvin)            252.32   266.10   378.69   433.43   490.26
                              664.66   763.81   856.95   979.37  1116.76
                             1428.45  1440.42  1457.58  1530.73  1553.17
                             1694.10  1735.57  1831.63  1931.55  2026.75
                             2104.79  2143.83  2145.13  2170.21  2368.02
                             2453.11  4217.03  4402.81  4510.42  4547.91
                             4630.34  5074.66  5197.45

 Zero-point correction=                           0.110064 (Hartree/Particle)
 Thermal correction to Energy=                    0.120113
 Thermal correction to Enthalpy=                  0.121057
 Thermal correction to Gibbs Free Energy=         0.071808
 Sum of electronic and zero-point Energies=          -5434.903742
 Sum of electronic and thermal Energies=             -5434.893693
 Sum of electronic and thermal Enthalpies=           -5434.892748
 Sum of electronic and thermal Free Energies=        -5434.941998

                     E (Thermal)             CV                S
                      KCal/Mol        Cal/Mol-Kelvin    Cal/Mol-Kelvin
 Total                   75.372             32.483            103.653
 Electronic               0.000              0.000              0.000
 Translational            0.889              2.981             42.363
 Rotational               0.889              2.981             31.297
 Vibrational             73.595             26.521             29.993
 Vibration     1          0.595              1.978              4.816
 Vibration     2          0.600              1.962              3.882
 Vibration     3          0.602              1.956              3.650
 Vibration     4          0.608              1.937              3.174
 Vibration     5          0.621              1.892              2.561
 Vibration     6          0.627              1.873              2.377
 Vibration     7          0.631              1.860              2.278
 Vibration     8          0.670              1.740              1.640
 Vibration     9          0.693              1.671              1.410
 Vibration    10          0.720              1.594              1.209
 Vibration    11          0.820              1.334              0.760
 Vibration    12          0.886              1.182              0.585
 Vibration    13          0.953              1.041              0.457

 Optimization completed.
    -- Stationary point found.
 Normal termination of Gaussian 16 at Fri Feb 19 09:51:13 2021.
