 Gaussian 16, Revision A.03,
 Gaussian 16:  ES64L-G16RevA.03 25-Dec-2016

 ----------------------------------------------------------------------
 # wB97XD def2tzvp, opt=(ts, noeigen, calcfc, maxcycles=70, maxstep=1),
  freq=noraman, scrf=(iefpcm, solvent=water)
 ----------------------------------------------------------------------

 ------------------------
 0_iteration/TS-669-0.out
 ------------------------
 Symbolic Z-matrix:
 Charge =  0 Multiplicity = 1

 SCF Done:  E(RwB97XD) =  -5529.71087795     A.U. after   15 cycles
 SCF Done:  E(RwB97XD) =  -5529.71082303     A.U. after   10 cycles
 SCF Done:  E(RwB97XD) =  -5529.71077205     A.U. after   10 cycles
 SCF Done:  E(RwB97XD) =  -5529.71072540     A.U. after   10 cycles
 SCF Done:  E(RwB97XD) =  -5529.71068324     A.U. after   10 cycles
 SCF Done:  E(RwB97XD) =  -5529.71064568     A.U. after   10 cycles
 SCF Done:  E(RwB97XD) =  -5529.71061285     A.U. after   10 cycles
 SCF Done:  E(RwB97XD) =  -5529.71058480     A.U. after   10 cycles
 SCF Done:  E(RwB97XD) =  -5529.71056167     A.U. after   10 cycles
 SCF Done:  E(RwB97XD) =  -5529.71054366     A.U. after   10 cycles
 SCF Done:  E(RwB97XD) =  -5529.71110786     A.U. after    9 cycles
 SCF Done:  E(RwB97XD) =  -5529.71111840     A.U. after    9 cycles
 SCF Done:  E(RwB97XD) =  -5529.71112701     A.U. after    9 cycles
 SCF Done:  E(RwB97XD) =  -5529.71113382     A.U. after    9 cycles
 SCF Done:  E(RwB97XD) =  -5529.71113872     A.U. after    9 cycles
 SCF Done:  E(RwB97XD) =  -5529.71114203     A.U. after    9 cycles
 SCF Done:  E(RwB97XD) =  -5529.71114415     A.U. after    9 cycles
 SCF Done:  E(RwB97XD) =  -5529.71114515     A.U. after    9 cycles
 SCF Done:  E(RwB97XD) =  -5529.71114522     A.U. after    7 cycles
 Optimization completed.
    -- Stationary point found.
 Normal termination of Gaussian 16 at Thu Feb 18 16:36:06 2021.

 ---------------------------------------------------------------------
 #N Geom=AllCheck Guess=TCheck SCRF=Check GenChk RwB97XD/def2TZVP Freq
 ---------------------------------------------------------------------

 Structure from the checkpoint file:  "/beegfs/scratch/user/q/tla25/Gau-20540.chk"
 ------------------------
 0_iteration/TS-669-0.out
 ------------------------
 Charge =  0 Multiplicity = 1

                         Standard orientation:
 ---------------------------------------------------------------------
 Center     Atomic      Atomic             Coordinates (Angstroms)
 Number     Number       Type             X           Y           Z
 ---------------------------------------------------------------------
      1          6           0        0.433897    0.013685   -0.213022
      2          6           0        1.719041    0.604408   -0.574533
      3          8           0        1.787183    1.735381   -1.075157
      4          6           0       -0.704818    0.763820   -0.350265
      5          6           0       -0.052354    2.217004    1.933108
      6          1           0        0.729368    1.457418    1.967742
      7          1           0        0.302585    3.055549    1.338592
      8          1           0       -0.272376    2.552088    2.946276
      9          7           0       -1.225998    1.638376    1.292319
     10          1           0       -1.655689    0.925741    1.871241
     11          1           0       -1.930787    2.333379    1.074831
     12         35           0       -2.407268   -0.044569   -0.756715
     13          1           0       -0.571063    1.678215   -0.911233
     14         35           0        0.359424   -1.691478    0.638802
     15          7           0        2.839497   -0.121287   -0.361748
     16          6           0        4.144877    0.370936   -0.732142
     17          1           0        2.760139   -1.045195    0.021681
     18          1           0        4.354940    1.325893   -0.248068
     19          1           0        4.890744   -0.354042   -0.413652
     20          1           0        4.230865    0.510816   -1.812036
 ---------------------------------------------------------------------

 SCF Done:  E(RwB97XD) =  -5529.71114522     A.U. after    1 cycles

 The electronic state is 1-A.
 Alpha  occ. eigenvalues -- -483.13466-483.12966 -62.68328 -62.67793 -56.47439
 Alpha  occ. eigenvalues --  -56.47089 -56.47076 -56.46896 -56.46566 -56.46555
 Alpha  occ. eigenvalues --  -19.20170 -14.48768 -14.44903 -10.38407 -10.38403
 Alpha  occ. eigenvalues --  -10.31685 -10.31033 -10.30801  -8.82450  -8.81906
 Alpha  occ. eigenvalues --   -6.64598  -6.64011  -6.63480  -6.63436  -6.62953
 Alpha  occ. eigenvalues --   -6.62920  -2.74987  -2.74669  -2.74634  -2.74410
 Alpha  occ. eigenvalues --   -2.74103  -2.74074  -2.73730  -2.73730  -2.73220
 Alpha  occ. eigenvalues --   -2.73219  -1.13097  -1.04175  -1.01660  -0.94485
 Alpha  occ. eigenvalues --   -0.89257  -0.82728  -0.80234  -0.78953  -0.69940
 Alpha  occ. eigenvalues --   -0.65776  -0.64043  -0.60007  -0.57300  -0.55777
 Alpha  occ. eigenvalues --   -0.54885  -0.53351  -0.51578  -0.49836  -0.48277
 Alpha  occ. eigenvalues --   -0.47351  -0.47121  -0.45390  -0.45227  -0.40125
 Alpha  occ. eigenvalues --   -0.39210  -0.37340  -0.36713  -0.34047  -0.33589
 Alpha  occ. eigenvalues --   -0.27681
 Alpha virt. eigenvalues --    0.04074   0.06597   0.09207   0.10867   0.12625
 Alpha virt. eigenvalues --    0.14562   0.15260   0.15792   0.16313   0.17843
 Alpha virt. eigenvalues --    0.18593   0.19701   0.21047   0.21176   0.21895

 Mulliken charges:
               1
     1  C   -0.247185
     2  C    0.371987
     3  O   -0.551558
     4  C   -0.028739
     5  C   -0.285898
     6  H    0.154422
     7  H    0.155315
     8  H    0.160157
     9  N   -0.343157
    10  H    0.286011
    11  H    0.293308
    12  Br  -0.091517
    13  H    0.194252
    14  Br  -0.148084
    15  N   -0.322042
    16  C   -0.247049
    17  H    0.252115
    18  H    0.128530
    19  H    0.141430
    20  H    0.127703
 Sum of Mulliken charges =  -0.00000

 Dipole moment (field-independent basis, Debye):
    X=             -1.7701    Y=              1.8331    Z=              5.5698  Tot=              6.1250
 Quadrupole moment (field-independent basis, Debye-Ang):
   XX=            -75.9355   YY=            -83.5191   ZZ=            -83.2325
   XY=            -13.5630   XZ=             -2.0390   YZ=             10.2407

  Exact polarizability: 207.630  -7.048 169.559  -5.556   0.844 141.717
 Approx polarizability: 155.314  -4.063 144.743  -2.846  -3.881 121.458

 ******    1 imaginary frequencies (negative Signs) ******

                      1                      2                      3
                      A                      A                      A
 Frequencies --   -365.1748                43.9320                58.1802
 Red. masses --      6.0173                 4.2226                 1.2071
 Frc consts  --      0.4728                 0.0048                 0.0024
 IR Inten    --    746.1185                17.0377                 0.2595

                      4                      5                      6
                      A                      A                      A
 Frequencies --     62.4013                88.6620               108.1842
 Red. masses --      3.6507                 2.6500                 9.5104
 Frc consts  --      0.0084                 0.0123                 0.0656
 IR Inten    --      6.0103                14.2165                 6.8273

                      7                      8                      9
                      A                      A                      A
 Frequencies --    110.3790               129.6940               142.1014
 Red. masses --      2.8553                 4.1310                 5.0626
 Frc consts  --      0.0205                 0.0409                 0.0602
 IR Inten    --     11.3716                 3.8339                 9.1791

                     10                     11                     12
                      A                      A                      A
 Frequencies --    168.2914               194.9503               273.4395
 Red. masses --      1.2154                 4.2495                 6.5536
 Frc consts  --      0.0203                 0.0952                 0.2887
 IR Inten    --      5.6419                14.4818                15.7657

                     13                     14                     15
                      A                      A                      A
 Frequencies --    279.5243               292.8549               383.8288
 Red. masses --      3.4460                 4.7444                 1.5502
 Frc consts  --      0.1586                 0.2397                 0.1346
 IR Inten    --     15.2349                12.3029                47.9616

                     16                     17                     18
                      A                      A                      A
 Frequencies --    397.2357               456.2816               528.3658
 Red. masses --      3.8625                 3.2839                 2.8909
 Frc consts  --      0.3591                 0.4028                 0.4755
 IR Inten    --     40.0278               117.4851                 7.5119

                     19                     20                     21
                      A                      A                      A
 Frequencies --    679.1269               699.6285               771.3182
 Red. masses --      5.7733                 1.8701                 7.6312
 Frc consts  --      1.5688                 0.5393                 2.6749
 IR Inten    --    152.9756                38.3669                31.0611

                     22                     23                     24
                      A                      A                      A
 Frequencies --    793.6309               981.7720              1002.4575
 Red. masses --      3.9356                 2.5894                 1.1398
 Frc consts  --      1.4605                 1.4705                 0.6748
 IR Inten    --     50.5687                11.6198                45.9267

                     25                     26                     27
                      A                      A                      A
 Frequencies --   1021.7279              1081.8761              1126.5761
 Red. masses --      1.1033                 5.0120                 1.1198
 Frc consts  --      0.6786                 3.4563                 0.8373
 IR Inten    --     75.9061                41.1178                56.4027

                     28                     29                     30
                      A                      A                      A
 Frequencies --   1147.8918              1156.6657              1186.6186
 Red. masses --      4.5741                 1.2878                 1.6443
 Frc consts  --      3.5510                 1.0151                 1.3641
 IR Inten    --      7.5617                 1.4023                14.6209

                     31                     32                     33
                      A                      A                      A
 Frequencies --   1203.8195              1214.2416              1303.5003
 Red. masses --      1.3347                 1.3999                 2.2261
 Frc consts  --      1.1396                 1.2161                 2.2285
 IR Inten    --     53.2984                24.0472               386.5693

                     34                     35                     36
                      A                      A                      A
 Frequencies --   1341.6535              1433.6491              1457.2060
 Red. masses --      1.3249                 2.9885                 1.2110
 Frc consts  --      1.4052                 3.6190                 1.5150
 IR Inten    --      1.3645               755.5935                28.9881

                     37                     38                     39
                      A                      A                      A
 Frequencies --   1469.0222              1474.8529              1490.2024
 Red. masses --      1.5062                 1.0612                 1.0377
 Frc consts  --      1.9151                 1.3601                 1.3577
 IR Inten    --    185.1800                15.3121                22.9228

                     40                     41                     42
                      A                      A                      A
 Frequencies --   1501.5744              1506.3879              1565.3128
 Red. masses --      1.0351                 1.0712                 2.0123
 Frc consts  --      1.3750                 1.4322                 2.9049
 IR Inten    --     30.7452                16.5688               717.9121

                     43                     44                     45
                      A                      A                      A
 Frequencies --   1642.6100              1648.9541              3049.6262
 Red. masses --      1.0978                 7.7795                 1.0366
 Frc consts  --      1.7451                12.4629                 5.6803
 IR Inten    --     63.8099               446.7106                81.1157

                     46                     47                     48
                      A                      A                      A
 Frequencies --   3069.4777              3108.6830              3145.5042
 Red. masses --      1.0334                 1.1033                 1.1047
 Frc consts  --      5.7362                 6.2821                 6.4396
 IR Inten    --     30.7713                42.1187                11.4493

                     49                     50                     51
                      A                      A                      A
 Frequencies --   3160.5373              3172.0913              3226.3831
 Red. masses --      1.1017                 1.1054                 1.0894
 Frc consts  --      6.4836                 6.5531                 6.6811
 IR Inten    --     21.5881                11.4207                 7.9715

                     52                     53                     54
                      A                      A                      A
 Frequencies --   3522.7428              3607.9701              3680.2518
 Red. masses --      1.0505                 1.0968                 1.0778
 Frc consts  --      7.6810                 8.4123                 8.6010
 IR Inten    --     55.6530                50.9030                85.2218

 - Thermochemistry -
 -------------------
 Temperature   298.150 Kelvin.  Pressure   1.00000 Atm.
 Atom     1 has atomic number  6 and mass  12.00000

 Molecular mass:   271.91599 amu.
 Principal axes and moments of inertia in atomic units:
                           1         2         3
     Eigenvalues --  2185.471274192.755644968.86963
           X            0.99908   0.01609  -0.03965
           Y           -0.01126   0.99281   0.11915
           Z            0.04128  -0.11859   0.99208
 This molecule is an asymmetric top.
 Rotational symmetry number  1.
 Warning -- assumption of classical behavior for rotation
           may cause significant error
 Rotational temperatures (Kelvin)      0.03963     0.02066     0.01743
 Rotational constants (GHZ):           0.82579     0.43044     0.36321
    1 imaginary frequencies ignored.
 Zero-point vibrational energy     408906.6 (Joules/Mol)
                                   97.73103 (Kcal/Mol)
 Warning -- explicit consideration of  17 degrees of freedom as
           vibrations may cause significant error
 Vibrational temperatures:     63.21    83.71    89.78   127.56   155.65
          (Kelvin)            158.81   186.60   204.45   242.13   280.49
                              393.42   402.17   421.35   552.24   571.53
                              656.49   760.20   977.11  1006.61  1109.75
                             1141.86  1412.55  1442.31  1470.04  1556.58
                             1620.89  1651.56  1664.18  1707.28  1732.03
                             1747.02  1875.45  1930.34  2062.70  2096.59
                             2113.60  2121.98  2144.07  2160.43  2167.36
                             2252.14  2363.35  2372.48  4387.73  4416.29
                             4472.70  4525.68  4547.31  4563.93  4642.05
                             5068.44  5191.06  5295.06

 Zero-point correction=                           0.155744 (Hartree/Particle)
 Thermal correction to Energy=                    0.168908
 Thermal correction to Enthalpy=                  0.169852
 Thermal correction to Gibbs Free Energy=         0.113180
 Sum of electronic and zero-point Energies=          -5529.555401
 Sum of electronic and thermal Energies=             -5529.542237
 Sum of electronic and thermal Enthalpies=           -5529.541293
 Sum of electronic and thermal Free Energies=        -5529.597965

                     E (Thermal)             CV                S
                      KCal/Mol        Cal/Mol-Kelvin    Cal/Mol-Kelvin
 Total                  105.992             42.752            119.277
 Electronic               0.000              0.000              0.000
 Translational            0.889              2.981             42.700
 Rotational               0.889              2.981             32.188
 Vibrational            104.214             36.791             44.390
 Vibration     1          0.595              1.980              5.073
 Vibration     2          0.596              1.974              4.518
 Vibration     3          0.597              1.972              4.380
 Vibration     4          0.601              1.957              3.689
 Vibration     5          0.606              1.943              3.301
 Vibration     6          0.606              1.941              3.262
 Vibration     7          0.612              1.924              2.951
 Vibration     8          0.616              1.911              2.775
 Vibration     9          0.625              1.881              2.454
 Vibration    10          0.636              1.847              2.180
 Vibration    11          0.676              1.722              1.574
 Vibration    12          0.680              1.711              1.537
 Vibration    13          0.688              1.687              1.457
 Vibration    14          0.753              1.505              1.024
 Vibration    15          0.764              1.476              0.973
 Vibration    16          0.815              1.347              0.777
 Vibration    17          0.883              1.187              0.591

 Optimization completed.
    -- Stationary point found.
 Normal termination of Gaussian 16 at Thu Feb 18 16:54:04 2021.
