 Gaussian 16, Revision A.03,
 Gaussian 16:  ES64L-G16RevA.03 25-Dec-2016

 ----------------------------------------------------------------------
 # wB97XD def2tzvp, opt=(ts, noeigen, calcfc, maxcycles=70, maxstep=1),
  freq=noraman, scrf=(iefpcm, solvent=water)
 ----------------------------------------------------------------------

 ------------------------
 0_iteration/TS-609-0.out
 ------------------------
 Symbolic Z-matrix:
 Charge =  0 Multiplicity = 1

 SCF Done:  E(RwB97XD) =  -3092.44553681     A.U. after   15 cycles
 SCF Done:  E(RwB97XD) =  -3092.44551695     A.U. after   10 cycles
 SCF Done:  E(RwB97XD) =  -3092.44550142     A.U. after   10 cycles
 SCF Done:  E(RwB97XD) =  -3092.44549002     A.U. after   10 cycles
 SCF Done:  E(RwB97XD) =  -3092.44548297     A.U. after   10 cycles
 SCF Done:  E(RwB97XD) =  -3092.44548112     A.U. after   11 cycles
 SCF Done:  E(RwB97XD) =  -3092.44548767     A.U. after   10 cycles
 SCF Done:  E(RwB97XD) =  -3092.44549971     A.U. after   11 cycles
 SCF Done:  E(RwB97XD) =  -3092.44550953     A.U. after   11 cycles
 SCF Done:  E(RwB97XD) =  -3092.44552840     A.U. after   11 cycles
 SCF Done:  E(RwB97XD) =  -3092.44602794     A.U. after   11 cycles
 SCF Done:  E(RwB97XD) =  -3092.44608186     A.U. after   10 cycles
 SCF Done:  E(RwB97XD) =  -3092.44612738     A.U. after   11 cycles
 SCF Done:  E(RwB97XD) =  -3092.44616276     A.U. after   11 cycles
 SCF Done:  E(RwB97XD) =  -3092.44618507     A.U. after   11 cycles
 SCF Done:  E(RwB97XD) =  -3092.44619549     A.U. after   10 cycles
 SCF Done:  E(RwB97XD) =  -3092.44619888     A.U. after   10 cycles
 SCF Done:  E(RwB97XD) =  -3092.44620078     A.U. after   10 cycles
 SCF Done:  E(RwB97XD) =  -3092.44620070     A.U. after    8 cycles
 Optimization completed.
    -- Stationary point found.
 Normal termination of Gaussian 16 at Fri Feb 19 05:06:35 2021.

 ---------------------------------------------------------------------
 #N Geom=AllCheck Guess=TCheck SCRF=Check GenChk RwB97XD/def2TZVP Freq
 ---------------------------------------------------------------------

 Structure from the checkpoint file:  "/beegfs/scratch/user/q/tla25/Gau-64069.chk"
 ------------------------
 0_iteration/TS-609-0.out
 ------------------------
 Charge =  0 Multiplicity = 1

                         Standard orientation:
 ---------------------------------------------------------------------
 Center     Atomic      Atomic             Coordinates (Angstroms)
 Number     Number       Type             X           Y           Z
 ---------------------------------------------------------------------
      1          6           0        0.973027    1.328396   -0.606778
      2          6           0        0.171618    2.414484   -1.030825
      3          8           0        0.604263    3.457978   -1.530467
      4          6           0        0.488813    0.157697   -0.026450
      5          6           0        2.238144    0.759060    2.096387
      6          1           0        2.451040    0.799252    3.163791
      7          1           0        3.034811    0.218112    1.588959
      8          1           0        2.183700    1.772025    1.699946
      9          7           0        0.966602    0.093738    1.840732
     10          1           0        0.983731   -0.881336    2.119341
     11          1           0        0.214441    0.545391    2.347415
     12         35           0        1.568767   -1.425738   -0.515678
     13          6           0       -0.982108   -0.113433    0.069596
     14          6           0       -1.595110   -1.137846   -0.644423
     15          6           0       -2.968469   -1.319202   -0.582002
     16          6           0       -3.751595   -0.484935    0.199464
     17          6           0       -3.151946    0.540968    0.914603
     18          6           0       -1.781468    0.724980    0.849301
     19          1           0       -1.001594   -1.798332   -1.260393
     20          1           0       -3.424538   -2.121093   -1.148023
     21          1           0       -4.822501   -0.632450    0.251901
     22          1           0       -3.750430    1.203772    1.525799
     23          1           0       -1.338944    1.547837    1.397080
     24          1           0        2.038309    1.415589   -0.780875
     25          1           0       -0.920609    2.291037   -0.930833
 ---------------------------------------------------------------------

 SCF Done:  E(RwB97XD) =  -3092.44620070     A.U. after    1 cycles

 The electronic state is 1-A.
 Alpha  occ. eigenvalues -- -483.13128 -62.67978 -56.47087 -56.46744 -56.46733
 Alpha  occ. eigenvalues --  -19.20654 -14.49573 -10.40919 -10.34542 -10.32047
 Alpha  occ. eigenvalues --  -10.32003 -10.30435 -10.30072 -10.29858 -10.29791
 Alpha  occ. eigenvalues --  -10.29729 -10.26125  -8.82081  -6.64203  -6.63120
 Alpha  occ. eigenvalues --   -6.63085  -2.74589  -2.74289  -2.74261  -2.73385
 Alpha  occ. eigenvalues --   -2.73384  -1.10781  -1.05112  -0.98451  -0.93475
 Alpha  occ. eigenvalues --   -0.86947  -0.85995  -0.84151  -0.79540  -0.74293
 Alpha  occ. eigenvalues --   -0.71504  -0.69281  -0.65130  -0.64178  -0.60749
 Alpha  occ. eigenvalues --   -0.57986  -0.57065  -0.56380  -0.55435  -0.53388
 Alpha  occ. eigenvalues --   -0.52117  -0.51523  -0.48760  -0.48308  -0.48156
 Alpha  occ. eigenvalues --   -0.47341  -0.46272  -0.44795  -0.43526  -0.43242
 Alpha  occ. eigenvalues --   -0.38110  -0.37564  -0.34961  -0.34497  -0.31844
 Alpha  occ. eigenvalues --   -0.28671
 Alpha virt. eigenvalues --    0.01279   0.04279   0.04673   0.06643   0.10320
 Alpha virt. eigenvalues --    0.13135   0.13731   0.14138   0.14634   0.16287
 Alpha virt. eigenvalues --    0.16921   0.17342   0.17883   0.18656   0.19524

 Mulliken charges:
               1
     1  C   -0.423351
     2  C    0.144258
     3  O   -0.513302
     4  C    0.263076
     5  C   -0.301986
     6  H    0.164482
     7  H    0.159585
     8  H    0.161832
     9  N   -0.295904
    10  H    0.293153
    11  H    0.275752
    12  Br  -0.133344
    13  C    0.146774
    14  C   -0.220086
    15  C   -0.136325
    16  C   -0.143089
    17  C   -0.135706
    18  C   -0.343525
    19  H    0.155136
    20  H    0.148480
    21  H    0.149517
    22  H    0.149613
    23  H    0.195104
    24  H    0.147467
    25  H    0.092391
 Sum of Mulliken charges =  -0.00000

 Dipole moment (field-independent basis, Debye):
    X=             -1.9438    Y=             -6.2075    Z=              9.0672  Tot=             11.1591
 Quadrupole moment (field-independent basis, Debye-Ang):
   XX=            -77.7836   YY=           -114.6898   ZZ=            -84.0446
   XY=             -3.6360   XZ=              8.0615   YZ=             17.5068

  Exact polarizability: 234.079  -1.848 236.603  -2.115  -2.978 188.057
 Approx polarizability: 182.512  -2.112 191.813  -4.007   2.912 158.573

 ******    1 imaginary frequencies (negative Signs) ******

                      1                      2                      3
                      A                      A                      A
 Frequencies --   -357.2804                46.2093                58.2039
 Red. masses --      5.4064                 2.6086                 3.6844
 Frc consts  --      0.4066                 0.0033                 0.0074
 IR Inten    --    724.9923                 1.1336                 4.7354

                      4                      5                      6
                      A                      A                      A
 Frequencies --     77.9041                94.2571               139.5186
 Red. masses --      5.7993                 5.3062                 4.9069
 Frc consts  --      0.0207                 0.0278                 0.0563
 IR Inten    --      0.4951                 6.2185                 1.6525

                      7                      8                      9
                      A                      A                      A
 Frequencies --    163.3226               173.9375               232.2262
 Red. masses --      6.1556                 1.3491                 2.3443
 Frc consts  --      0.0967                 0.0240                 0.0745
 IR Inten    --      4.2798                 1.6168                 7.9580

                     10                     11                     12
                      A                      A                      A
 Frequencies --    251.7608               269.0225               279.9940
 Red. masses --      2.0836                 6.4783                 3.8030
 Frc consts  --      0.0778                 0.2762                 0.1757
 IR Inten    --      3.7921                15.1835                 3.8057

                     13                     14                     15
                      A                      A                      A
 Frequencies --    311.9387               321.8020               373.4316
 Red. masses --      4.7969                 3.8854                 5.0169
 Frc consts  --      0.2750                 0.2371                 0.4122
 IR Inten    --      6.2893                58.0777                10.2825

                     16                     17                     18
                      A                      A                      A
 Frequencies --    427.5179               494.7944               582.0086
 Red. masses --      2.9769                 4.7353                 3.4853
 Frc consts  --      0.3206                 0.6830                 0.6956
 IR Inten    --      0.3564                40.3596               148.7839

                     19                     20                     21
                      A                      A                      A
 Frequencies --    609.0043               638.0480               653.6210
 Red. masses --      5.1989                 6.2139                 1.7502
 Frc consts  --      1.1361                 1.4905                 0.4406
 IR Inten    --     17.5957                12.0192                27.0204

                     22                     23                     24
                      A                      A                      A
 Frequencies --    730.4579               761.5465               799.3870
 Red. masses --      1.6385                 2.6473                 1.9374
 Frc consts  --      0.5151                 0.9046                 0.7294
 IR Inten    --     76.4239               156.1431                33.9783

                     25                     26                     27
                      A                      A                      A
 Frequencies --    818.2485               855.0725               882.1032
 Red. masses --      1.4910                 3.9383                 1.2481
 Frc consts  --      0.5882                 1.6965                 0.5722
 IR Inten    --    104.5591               285.3033                 1.6405

                     28                     29                     30
                      A                      A                      A
 Frequencies --    971.3745              1006.4072              1019.8592
 Red. masses --      1.3893                 1.1049                 1.4007
 Frc consts  --      0.7724                 0.6594                 0.8584
 IR Inten    --      3.1016                14.7018                12.3929

                     31                     32                     33
                      A                      A                      A
 Frequencies --   1025.9086              1036.0039              1040.1165
 Red. masses --      4.8217                 1.2753                 1.4846
 Frc consts  --      2.9900                 0.8065                 0.9463
 IR Inten    --      2.5445                29.1966                22.0855

                     34                     35                     36
                      A                      A                      A
 Frequencies --   1045.3424              1064.9937              1077.0627
 Red. masses --      1.2465                 2.4388                 4.4105
 Frc consts  --      0.8025                 1.6297                 3.0146
 IR Inten    --     78.6072                21.4104                38.6518

                     37                     38                     39
                      A                      A                      A
 Frequencies --   1126.1057              1160.3117              1188.5726
 Red. masses --      1.5630                 2.7487                 1.1290
 Frc consts  --      1.1678                 2.1804                 0.9398
 IR Inten    --      8.9251               103.3912                 0.3433

                     40                     41                     42
                      A                      A                      A
 Frequencies --   1219.5140              1223.6849              1235.9191
 Red. masses --      1.2324                 2.0503                 1.3623
 Frc consts  --      1.0799                 1.8089                 1.2260
 IR Inten    --     57.9971               352.4636                29.4257

                     43                     44                     45
                      A                      A                      A
 Frequencies --   1319.8169              1339.6157              1341.1577
 Red. masses --      4.3629                 1.8663                 1.3523
 Frc consts  --      4.4777                 1.9733                 1.4332
 IR Inten    --     18.2023                86.2309                 6.0250

                     46                     47                     48
                      A                      A                      A
 Frequencies --   1366.4617              1392.4446              1457.2708
 Red. masses --      1.4555                 1.9951                 1.1873
 Frc consts  --      1.6013                 2.2792                 1.4856
 IR Inten    --     12.4419               665.5594                 3.5811

                     49                     50                     51
                      A                      A                      A
 Frequencies --   1486.6364              1494.8965              1498.2706
 Red. masses --      2.1143                 1.0988                 1.7939
 Frc consts  --      2.7531                 1.4468                 2.3727
 IR Inten    --     52.9065                70.5973               181.8865

                     52                     53                     54
                      A                      A                      A
 Frequencies --   1502.5944              1544.7916              1638.2988
 Red. masses --      1.1550                 2.3412                 1.1123
 Frc consts  --      1.5364                 3.2918                 1.7590
 IR Inten    --     34.4552                31.1907                60.6459

                     55                     56                     57
                      A                      A                      A
 Frequencies --   1650.4614              1657.6839              1674.3886
 Red. masses --      5.1458                 5.9898                 5.8549
 Frc consts  --      8.2587                 9.6976                 9.6713
 IR Inten    --     90.9484              1247.1049                 1.6493

                     58                     59                     60
                      A                      A                      A
 Frequencies --   2966.9605              3074.3943              3157.3121
 Red. masses --      1.0820                 1.0323                 1.1054
 Frc consts  --      5.6117                 5.7490                 6.4923
 IR Inten    --    131.5096                25.6595                 5.4415

                     61                     62                     63
                      A                      A                      A
 Frequencies --   3168.4957              3195.9096              3196.5970
 Red. masses --      1.1058                 1.0882                 1.0880
 Frc consts  --      6.5410                 6.5485                 6.5505
 IR Inten    --      9.1809                 5.6828                 5.2165

                     64                     65                     66
                      A                      A                      A
 Frequencies --   3204.9183              3215.1735              3225.5168
 Red. masses --      1.0884                 1.0926                 1.0968
 Frc consts  --      6.5865                 6.6546                 6.7234
 IR Inten    --      1.8780                19.1078                17.0008

                     67                     68                     69
                      A                      A                      A
 Frequencies --   3235.3458              3521.8163              3605.4511
 Red. masses --      1.0946                 1.0513                 1.0958
 Frc consts  --      6.7505                 7.6826                 8.3928
 IR Inten    --      4.5971                62.6445                54.7673

 - Thermochemistry -
 -------------------
 Temperature   298.150 Kelvin.  Pressure   1.00000 Atm.
 Atom     1 has atomic number  6 and mass  12.00000

 Molecular mass:   241.01023 amu.
 Principal axes and moments of inertia in atomic units:
                           1         2         3
     Eigenvalues --  2701.599153854.439794864.67884
           X            0.99496   0.09388   0.03512
           Y           -0.09465   0.99529   0.02112
           Z           -0.03297  -0.02433   0.99916
 This molecule is an asymmetric top.
 Rotational symmetry number  1.
 Warning -- assumption of classical behavior for rotation
           may cause significant error
 Rotational temperatures (Kelvin)      0.03206     0.02247     0.01780
 Rotational constants (GHZ):           0.66803     0.46822     0.37099
    1 imaginary frequencies ignored.
 Zero-point vibrational energy     530060.5 (Joules/Mol)
                                  126.68750 (Kcal/Mol)
 Warning -- explicit consideration of  18 degrees of freedom as
           vibrations may cause significant error
 Vibrational temperatures:     66.48    83.74   112.09   135.61   200.74
          (Kelvin)            234.98   250.26   334.12   362.23   387.06
                              402.85   448.81   463.00   537.28   615.10
                              711.90   837.38   876.22   918.01   940.41
                             1050.97  1095.70  1150.14  1177.28  1230.26
                             1269.15  1397.59  1448.00  1467.35  1476.05
                             1490.58  1496.50  1504.01  1532.29  1549.65
                             1620.21  1669.43  1710.09  1754.61  1760.61
                             1778.21  1898.92  1927.41  1929.63  1966.03
                             2003.42  2096.69  2138.94  2150.82  2155.68
                             2161.90  2222.61  2357.15  2374.65  2385.04
                             2409.07  4268.79  4423.37  4542.67  4558.76
                             4598.20  4599.19  4611.16  4625.92  4640.80
                             4654.94  5067.11  5187.44

 Zero-point correction=                           0.201889 (Hartree/Particle)
 Thermal correction to Energy=                    0.214888
 Thermal correction to Enthalpy=                  0.215832
 Thermal correction to Gibbs Free Energy=         0.160985
 Sum of electronic and zero-point Energies=          -3092.244311
 Sum of electronic and thermal Energies=             -3092.231312
 Sum of electronic and thermal Enthalpies=           -3092.230368
 Sum of electronic and thermal Free Energies=        -3092.285216

                     E (Thermal)             CV                S
                      KCal/Mol        Cal/Mol-Kelvin    Cal/Mol-Kelvin
 Total                  134.844             47.411            115.436
 Electronic               0.000              0.000              0.000
 Translational            0.889              2.981             42.340
 Rotational               0.889              2.981             32.294
 Vibrational            133.067             41.449             40.803
 Vibration     1          0.595              1.979              4.973
 Vibration     2          0.596              1.974              4.517
 Vibration     3          0.599              1.964              3.943
 Vibration     4          0.603              1.953              3.570
 Vibration     5          0.615              1.914              2.810
 Vibration     6          0.623              1.887              2.511
 Vibration     7          0.627              1.875              2.393
 Vibration     8          0.653              1.792              1.862
 Vibration     9          0.664              1.760              1.718
 Vibration    10          0.673              1.730              1.602
 Vibration    11          0.680              1.711              1.534
 Vibration    12          0.700              1.651              1.352
 Vibration    13          0.707              1.632              1.301
 Vibration    14          0.745              1.527              1.066
 Vibration    15          0.789              1.410              0.867
 Vibration    16          0.850              1.262              0.671
 Vibration    17          0.939              1.070              0.482
 Vibration    18          0.968              1.013              0.434

 Optimization completed.
    -- Stationary point found.
 Normal termination of Gaussian 16 at Fri Feb 19 05:46:37 2021.
