 Gaussian 16, Revision A.03,
 Gaussian 16:  ES64L-G16RevA.03 25-Dec-2016

 ----------------------------------------------------------------------
 # wB97XD def2tzvp, opt=(ts, noeigen, calcfc, maxcycles=70, maxstep=1),
  freq=noraman, scrf=(iefpcm, solvent=water)
 ----------------------------------------------------------------------

 ------------------------
 0_iteration/TS-661-0.out
 ------------------------
 Symbolic Z-matrix:
 Charge =  0 Multiplicity = 1

 SCF Done:  E(RwB97XD) =  -2995.40191234     A.U. after   15 cycles
 SCF Done:  E(RwB97XD) =  -2995.40190042     A.U. after   10 cycles
 SCF Done:  E(RwB97XD) =  -2995.40189715     A.U. after   10 cycles
 SCF Done:  E(RwB97XD) =  -2995.40190848     A.U. after   11 cycles
 SCF Done:  E(RwB97XD) =  -2995.40193564     A.U. after   10 cycles
 SCF Done:  E(RwB97XD) =  -2995.40198452     A.U. after   10 cycles
 SCF Done:  E(RwB97XD) =  -2995.40205325     A.U. after   10 cycles
 SCF Done:  E(RwB97XD) =  -2995.40213609     A.U. after   10 cycles
 SCF Done:  E(RwB97XD) =  -2995.40223221     A.U. after   10 cycles
 SCF Done:  E(RwB97XD) =  -2995.40234228     A.U. after    9 cycles
 SCF Done:  E(RwB97XD) =  -2995.40642974     A.U. after   10 cycles
 SCF Done:  E(RwB97XD) =  -2995.40646404     A.U. after   10 cycles
 SCF Done:  E(RwB97XD) =  -2995.40647958     A.U. after   10 cycles
 SCF Done:  E(RwB97XD) =  -2995.40648249     A.U. after    9 cycles
 SCF Done:  E(RwB97XD) =  -2995.40648147     A.U. after    9 cycles
 SCF Done:  E(RwB97XD) =  -2995.40647970     A.U. after    9 cycles
 SCF Done:  E(RwB97XD) =  -2995.40648211     A.U. after    9 cycles
 SCF Done:  E(RwB97XD) =  -2995.40648168     A.U. after    8 cycles
 SCF Done:  E(RwB97XD) =  -2995.40648188     A.U. after    7 cycles
 Optimization completed.
    -- Stationary point found.
 Normal termination of Gaussian 16 at Thu Feb 18 23:28:08 2021.

 ---------------------------------------------------------------------
 #N Geom=AllCheck Guess=TCheck SCRF=Check GenChk RwB97XD/def2TZVP Freq
 ---------------------------------------------------------------------

 Structure from the checkpoint file:  "/beegfs/scratch/user/q/tla25/Gau-113895.chk"
 ------------------------
 0_iteration/TS-661-0.out
 ------------------------
 Charge =  0 Multiplicity = 1

                         Standard orientation:
 ---------------------------------------------------------------------
 Center     Atomic      Atomic             Coordinates (Angstroms)
 Number     Number       Type             X           Y           Z
 ---------------------------------------------------------------------
      1          6           0        0.465128   -0.458774    0.551952
      2          6           0        1.861502   -0.590991    0.182835
      3          8           0        2.608262   -1.400845    0.750859
      4          6           0       -0.416414    0.216828   -0.259300
      5          6           0        0.196917    2.673732    0.760693
      6          1           0        0.648844    3.061939   -0.150090
      7          1           0       -0.078124    3.505338    1.407026
      8          1           0        0.913483    2.032709    1.277231
      9          7           0       -0.963689    1.860766    0.415297
     10          1           0       -1.517936    1.640241    1.235362
     11          1           0       -1.571062    2.316216   -0.257432
     12         35           0       -2.241978   -0.521901   -0.516174
     13          1           0       -0.088954    0.565251   -1.228830
     14          6           0        0.023275   -1.155644    1.810448
     15          1           0        0.748041   -1.009479    2.613003
     16          1           0       -0.936774   -0.771111    2.159156
     17          1           0       -0.090553   -2.236605    1.675624
     18          7           0        2.368795    0.175564   -0.840100
     19          6           0        3.772005    0.112865   -1.179056
     20          1           0        1.904353    1.035886   -1.061796
     21          1           0        4.054412   -0.903998   -1.450623
     22          1           0        3.950215    0.760611   -2.035879
     23          1           0        4.416964    0.433904   -0.355357
 ---------------------------------------------------------------------

 SCF Done:  E(RwB97XD) =  -2995.40648188     A.U. after    1 cycles

 The electronic state is 1-A.
 Alpha  occ. eigenvalues -- -483.12262 -62.67132 -56.46223 -56.45901 -56.45892
 Alpha  occ. eigenvalues --  -19.19333 -14.49842 -14.43834 -10.37972 -10.36779
 Alpha  occ. eigenvalues --  -10.32174 -10.30244 -10.26678 -10.25633  -8.81250
 Alpha  occ. eigenvalues --   -6.63329  -6.62310  -6.62277  -2.73721  -2.73439
 Alpha  occ. eigenvalues --   -2.73412  -2.72588  -2.72588  -1.11893  -1.05196
 Alpha  occ. eigenvalues --   -1.00404  -0.92121  -0.85755  -0.79833  -0.79532
 Alpha  occ. eigenvalues --   -0.76676  -0.69251  -0.64839  -0.64467  -0.59501
 Alpha  occ. eigenvalues --   -0.57814  -0.55416  -0.54822  -0.52677  -0.50842
 Alpha  occ. eigenvalues --   -0.49264  -0.48539  -0.48427  -0.46687  -0.45160
 Alpha  occ. eigenvalues --   -0.45008  -0.44487  -0.43938  -0.37254  -0.36895
 Alpha  occ. eigenvalues --   -0.33743  -0.32572  -0.26243
 Alpha virt. eigenvalues --    0.05168   0.07397   0.09675   0.12178   0.13562
 Alpha virt. eigenvalues --    0.15127   0.15235   0.16161   0.16655   0.18243
 Alpha virt. eigenvalues --    0.19623   0.19857   0.20673   0.20981   0.21095

 Mulliken charges:
               1
     1  C   -0.184342
     2  C    0.344820
     3  O   -0.552608
     4  C   -0.143617
     5  C   -0.326278
     6  H    0.166932
     7  H    0.165867
     8  H    0.164606
     9  N   -0.262905
    10  H    0.288705
    11  H    0.295705
    12  Br  -0.167891
    13  H    0.194686
    14  C   -0.375315
    15  H    0.120753
    16  H    0.121919
    17  H    0.116885
    18  N   -0.339665
    19  C   -0.253674
    20  H    0.246546
    21  H    0.126811
    22  H    0.135906
    23  H    0.116153
 Sum of Mulliken charges =  -0.00000

 Dipole moment (field-independent basis, Debye):
    X=             -3.9782    Y=             10.8923    Z=             -1.3773  Tot=             11.6776
 Quadrupole moment (field-independent basis, Debye-Ang):
   XX=            -84.5102   YY=            -66.7885   ZZ=            -73.3062
   XY=              5.8245   XZ=            -10.4514   YZ=              3.6380

  Exact polarizability: 204.995 -10.413 159.605   9.174  -7.570 134.453
 Approx polarizability: 151.769  -8.600 130.634   7.934  -7.403 115.084

 ******    1 imaginary frequencies (negative Signs) ******

                      1                      2                      3
                      A                      A                      A
 Frequencies --   -403.8017                61.2014                73.6620
 Red. masses --      6.0205                 3.2727                 3.2583
 Frc consts  --      0.5784                 0.0072                 0.0104
 IR Inten    --    705.8845                 3.7940                 6.1636

                      4                      5                      6
                      A                      A                      A
 Frequencies --     98.7263               110.9908               120.1861
 Red. masses --      1.8739                 1.4723                 2.0798
 Frc consts  --      0.0108                 0.0107                 0.0177
 IR Inten    --      1.4308                 6.1700                 8.2849

                      7                      8                      9
                      A                      A                      A
 Frequencies --    142.2845               151.1196               166.5110
 Red. masses --      1.7435                 2.2083                 3.4265
 Frc consts  --      0.0208                 0.0297                 0.0560
 IR Inten    --      1.5075                15.3882                13.4811

                     10                     11                     12
                      A                      A                      A
 Frequencies --    179.4959               200.6435               245.6060
 Red. masses --      3.7829                 1.1662                 2.7957
 Frc consts  --      0.0718                 0.0277                 0.0994
 IR Inten    --      1.5809                 6.9560                 3.6526

                     13                     14                     15
                      A                      A                      A
 Frequencies --    277.2510               303.3148               348.9459
 Red. masses --      4.5450                 2.5949                 3.5528
 Frc consts  --      0.2058                 0.1407                 0.2549
 IR Inten    --     30.3782                40.8578                18.9428

                     16                     17                     18
                      A                      A                      A
 Frequencies --    402.7682               464.2058               478.0834
 Red. masses --      1.5385                 3.2130                 3.3929
 Frc consts  --      0.1470                 0.4079                 0.4569
 IR Inten    --    121.7538                91.3206                23.9984

                     19                     20                     21
                      A                      A                      A
 Frequencies --    631.6452               671.9849               762.9300
 Red. masses --      2.1334                 4.3316                 2.5427
 Frc consts  --      0.5015                 1.1524                 0.8720
 IR Inten    --     56.0622               336.0954                 8.1356

                     22                     23                     24
                      A                      A                      A
 Frequencies --    784.3830               863.2706               979.2043
 Red. masses --      4.2909                 2.9408                 1.9848
 Frc consts  --      1.5555                 1.2912                 1.1213
 IR Inten    --     32.1087                47.6512               128.8340

                     25                     26                     27
                      A                      A                      A
 Frequencies --   1020.8932              1044.3540              1061.4383
 Red. masses --      1.1187                 1.2179                 1.3973
 Frc consts  --      0.6870                 0.7826                 0.9276
 IR Inten    --     13.6597                40.4778                50.6198

                     28                     29                     30
                      A                      A                      A
 Frequencies --   1067.7724              1083.2321              1137.7447
 Red. masses --      1.9737                 4.6917                 1.1212
 Frc consts  --      1.3258                 3.2436                 0.8551
 IR Inten    --     80.1974                61.5338                57.9143

                     31                     32                     33
                      A                      A                      A
 Frequencies --   1149.3981              1169.7197              1188.5355
 Red. masses --      1.3173                 1.6026                 2.0344
 Frc consts  --      1.0254                 1.2920                 1.6932
 IR Inten    --     10.7820               132.2965                 2.0777

                     34                     35                     36
                      A                      A                      A
 Frequencies --   1231.6873              1283.8654              1343.9348
 Red. masses --      1.3696                 1.6729                 1.3172
 Frc consts  --      1.2242                 1.6246                 1.4017
 IR Inten    --     49.3877               205.0306                 8.2094

                     37                     38                     39
                      A                      A                      A
 Frequencies --   1350.8867              1417.0401              1449.4095
 Red. masses --      2.3764                 1.2954                 1.3866
 Frc consts  --      2.5551                 1.5326                 1.7163
 IR Inten    --    543.1262                 5.9451               118.7884

                     40                     41                     42
                      A                      A                      A
 Frequencies --   1456.1048              1469.0871              1473.4453
 Red. masses --      1.2174                 1.2388                 1.1588
 Frc consts  --      1.5208                 1.5752                 1.4823
 IR Inten    --     27.5188                99.7094                70.5878

                     43                     44                     45
                      A                      A                      A
 Frequencies --   1476.9166              1499.9463              1504.3746
 Red. masses --      1.1090                 1.0394                 1.1381
 Frc consts  --      1.4253                 1.3778                 1.5175
 IR Inten    --     23.9844                41.6638                56.6416

                     46                     47                     48
                      A                      A                      A
 Frequencies --   1506.0891              1513.7783              1541.2222
 Red. masses --      1.0531                 1.5021                 1.9059
 Frc consts  --      1.4074                 2.0280                 2.6674
 IR Inten    --     26.6517               397.1843               353.6776

                     49                     50                     51
                      A                      A                      A
 Frequencies --   1643.3481              1644.4620              3024.3247
 Red. masses --      4.7221                 1.1770                 1.0462
 Frc consts  --      7.5135                 1.8754                 5.6380
 IR Inten    --    886.1715                33.4167                89.2177

                     52                     53                     54
                      A                      A                      A
 Frequencies --   3036.5663              3065.9716              3088.5363
 Red. masses --      1.0438                 1.0344                 1.0898
 Frc consts  --      5.6705                 5.7288                 6.1248
 IR Inten    --    101.6632                31.6239                44.6411

                     55                     56                     57
                      A                      A                      A
 Frequencies --   3109.0091              3122.5930              3148.3934
 Red. masses --      1.0927                 1.1014                 1.1024
 Frc consts  --      6.2228                 6.3271                 6.4380
 IR Inten    --     47.7329                38.1466                 5.2895

                     58                     59                     60
                      A                      A                      A
 Frequencies --   3150.8684              3169.3214              3216.2938
 Red. masses --      1.1036                 1.1066                 1.0917
 Frc consts  --      6.4553                 6.5488                 6.6536
 IR Inten    --     26.9718                14.0904                 2.2810

                     61                     62                     63
                      A                      A                      A
 Frequencies --   3519.3302              3602.7747              3694.0364
 Red. masses --      1.0507                 1.0970                 1.0765
 Frc consts  --      7.6674                 8.3891                 8.6552
 IR Inten    --     52.9783                56.8910                21.4030

 - Thermochemistry -
 -------------------
 Temperature   298.150 Kelvin.  Pressure   1.00000 Atm.
 Atom     1 has atomic number  6 and mass  12.00000

 Molecular mass:   208.02112 amu.
 Principal axes and moments of inertia in atomic units:
                           1         2         3
     Eigenvalues --  1397.187353611.333624026.46315
           X            0.99925  -0.01306  -0.03640
           Y            0.01204   0.99953  -0.02802
           Z            0.03675   0.02756   0.99894
 This molecule is an asymmetric top.
 Rotational symmetry number  1.
 Warning -- assumption of classical behavior for rotation
           may cause significant error
 Rotational temperatures (Kelvin)      0.06199     0.02398     0.02151
 Rotational constants (GHZ):           1.29170     0.49974     0.44822
    1 imaginary frequencies ignored.
 Zero-point vibrational energy     509580.0 (Joules/Mol)
                                  121.79254 (Kcal/Mol)
 Warning -- explicit consideration of  17 degrees of freedom as
           vibrations may cause significant error
 Vibrational temperatures:     88.06   105.98   142.05   159.69   172.92
          (Kelvin)            204.72   217.43   239.57   258.25   288.68
                              353.37   398.90   436.40   502.06   579.49
                              667.89   687.86   908.80   966.84  1097.69
                             1128.55  1242.05  1408.86  1468.84  1502.59
                             1527.17  1536.29  1558.53  1636.96  1653.73
                             1682.97  1710.04  1772.12  1847.20  1933.62
                             1943.62  2038.80  2085.38  2095.01  2113.69
                             2119.96  2124.95  2158.09  2164.46  2166.93
                             2177.99  2217.48  2364.41  2366.01  4351.33
                             4368.94  4411.25  4443.71  4473.17  4492.71
                             4529.84  4533.40  4559.95  4627.53  5063.53
                             5183.59  5314.89

 Zero-point correction=                           0.194089 (Hartree/Particle)
 Thermal correction to Energy=                    0.207133
 Thermal correction to Enthalpy=                  0.208077
 Thermal correction to Gibbs Free Energy=         0.153649
 Sum of electronic and zero-point Energies=          -2995.212393
 Sum of electronic and thermal Energies=             -2995.199349
 Sum of electronic and thermal Enthalpies=           -2995.198405
 Sum of electronic and thermal Free Energies=        -2995.252833

                     E (Thermal)             CV                S
                      KCal/Mol        Cal/Mol-Kelvin    Cal/Mol-Kelvin
 Total                  129.978             44.240            114.553
 Electronic               0.000              0.000              0.000
 Translational            0.889              2.981             41.901
 Rotational               0.889              2.981             31.386
 Vibrational            128.200             38.278             41.265
 Vibration     1          0.597              1.973              4.418
 Vibration     2          0.599              1.966              4.053
 Vibration     3          0.604              1.950              3.479
 Vibration     4          0.607              1.940              3.252
 Vibration     5          0.609              1.932              3.097
 Vibration     6          0.616              1.911              2.773
 Vibration     7          0.619              1.901              2.658
 Vibration     8          0.624              1.884              2.475
 Vibration     9          0.629              1.867              2.334
 Vibration    10          0.638              1.839              2.127
 Vibration    11          0.660              1.770              1.762
 Vibration    12          0.678              1.716              1.551
 Vibration    13          0.695              1.667              1.399
 Vibration    14          0.726              1.577              1.171
 Vibration    15          0.768              1.464              0.953
 Vibration    16          0.822              1.329              0.754
 Vibration    17          0.835              1.299              0.715

 Optimization completed.
    -- Stationary point found.
 Normal termination of Gaussian 16 at Thu Feb 18 23:49:02 2021.
