 Gaussian 16, Revision A.03,
 Gaussian 16:  ES64L-G16RevA.03 25-Dec-2016

 ----------------------------------------------------------------------
 # wB97XD def2tzvp, opt=(ts, noeigen, calcfc, maxcycles=70, maxstep=8),
  freq=noraman, scrf=(iefpcm, solvent=water)
 ----------------------------------------------------------------------

 ------------------------
 1_iteration/TS-698-1.out
 ------------------------
 Symbolic Z-matrix:
 Charge =  0 Multiplicity = 1

 SCF Done:  E(RwB97XD) =  -2979.34543095     A.U. after   15 cycles
 SCF Done:  E(RwB97XD) =  -2979.34655043     A.U. after   13 cycles
 SCF Done:  E(RwB97XD) =  -2979.34668227     A.U. after   13 cycles
 SCF Done:  E(RwB97XD) =  -2979.34689504     A.U. after   12 cycles
 SCF Done:  E(RwB97XD) =  -2979.34687197     A.U. after   13 cycles
 SCF Done:  E(RwB97XD) =  -2979.34694412     A.U. after   12 cycles
 SCF Done:  E(RwB97XD) =  -2979.34693788     A.U. after   12 cycles
 SCF Done:  E(RwB97XD) =  -2979.34676686     A.U. after   13 cycles
 SCF Done:  E(RwB97XD) =  -2979.34693697     A.U. after   12 cycles
 SCF Done:  E(RwB97XD) =  -2979.34695854     A.U. after   12 cycles
 SCF Done:  E(RwB97XD) =  -2979.34697168     A.U. after   11 cycles
 SCF Done:  E(RwB97XD) =  -2979.34697294     A.U. after    9 cycles
 SCF Done:  E(RwB97XD) =  -2979.34695595     A.U. after   12 cycles
 SCF Done:  E(RwB97XD) =  -2979.34697294     A.U. after   12 cycles
 SCF Done:  E(RwB97XD) =  -2979.34697310     A.U. after   10 cycles
 SCF Done:  E(RwB97XD) =  -2979.34697325     A.U. after   10 cycles
 Optimization completed.
    -- Stationary point found.
 Normal termination of Gaussian 16 at Fri Feb 19 11:48:02 2021.

 ---------------------------------------------------------------------
 #N Geom=AllCheck Guess=TCheck SCRF=Check GenChk RwB97XD/def2TZVP Freq
 ---------------------------------------------------------------------

 Structure from the checkpoint file:  "/beegfs/scratch/user/q/tla25/Gau-101846.chk"
 ------------------------
 1_iteration/TS-698-1.out
 ------------------------
 Charge =  0 Multiplicity = 1

                         Standard orientation:
 ---------------------------------------------------------------------
 Center     Atomic      Atomic             Coordinates (Angstroms)
 Number     Number       Type             X           Y           Z
 ---------------------------------------------------------------------
      1          6           0        1.092281   -0.357451    0.314030
      2          6           0        2.452516   -0.038367   -0.015456
      3          8           0        3.377412   -0.674796    0.516656
      4          6           0       -0.043022    0.259608   -0.212185
      5          6           0       -1.996053    2.127577    1.016629
      6          1           0       -2.320463    2.561694    1.962815
      7          1           0       -1.786170    2.929212    0.312797
      8          1           0       -2.791732    1.498673    0.621260
      9          7           0       -0.792877    1.313253    1.198305
     10          1           0        0.008784    1.882465    1.449129
     11          1           0       -0.921207    0.635736    1.941528
     12         35           0       -1.611483   -0.967254   -0.459067
     13          6           0       -0.089285    1.261967   -1.330168
     14          1           0        0.526639    2.130189   -1.109165
     15          1           0        0.260205    0.803025   -2.253861
     16          1           0       -1.108759    1.599989   -1.496268
     17          6           0        0.945994   -1.429202    1.370732
     18          1           0       -0.069630   -1.491818    1.759809
     19          1           0        1.204950   -2.421014    0.987227
     20          1           0        1.617070   -1.232598    2.208037
     21          6           0        2.864013    1.044825   -0.997292
     22          1           0        2.573212    2.036027   -0.646579
     23          1           0        3.948202    1.014797   -1.081903
     24          1           0        2.432985    0.899372   -1.986621
 ---------------------------------------------------------------------

 SCF Done:  E(RwB97XD) =  -2979.34697325     A.U. after    1 cycles

 The electronic state is 1-A.
 Alpha  occ. eigenvalues -- -483.12128 -62.66988 -56.46082 -56.45763 -56.45746
 Alpha  occ. eigenvalues --  -19.19666 -14.49324 -10.40187 -10.34798 -10.32118
 Alpha  occ. eigenvalues --  -10.29242 -10.26998 -10.26553 -10.26109  -8.81094
 Alpha  occ. eigenvalues --   -6.63171  -6.62168  -6.62112  -2.73562  -2.73292
 Alpha  occ. eigenvalues --   -2.73249  -2.72436  -2.72435  -1.10386  -1.04718
 Alpha  occ. eigenvalues --   -0.93849  -0.85691  -0.83925  -0.81823  -0.79562
 Alpha  occ. eigenvalues --   -0.74547  -0.67934  -0.63721  -0.59813  -0.56901
 Alpha  occ. eigenvalues --   -0.56249  -0.54796  -0.54214  -0.51817  -0.50105
 Alpha  occ. eigenvalues --   -0.49284  -0.48900  -0.48573  -0.47708  -0.45461
 Alpha  occ. eigenvalues --   -0.44049  -0.43354  -0.42547  -0.41627  -0.37145
 Alpha  occ. eigenvalues --   -0.36644  -0.31552  -0.26829
 Alpha virt. eigenvalues --    0.04068   0.05405   0.09328   0.12933   0.13078
 Alpha virt. eigenvalues --    0.13830   0.15207   0.16354   0.17320   0.17942
 Alpha virt. eigenvalues --    0.18839   0.19067   0.19836   0.21021   0.21588

 Mulliken charges:
               1
     1  C   -0.102537
     2  C    0.217416
     3  O   -0.525772
     4  C    0.062465
     5  C   -0.300932
     6  H    0.162292
     7  H    0.166203
     8  H    0.155474
     9  N   -0.290388
    10  H    0.284579
    11  H    0.286308
    12  Br  -0.167473
    13  C   -0.428117
    14  H    0.155431
    15  H    0.170688
    16  H    0.173779
    17  C   -0.393287
    18  H    0.120340
    19  H    0.118717
    20  H    0.122293
    21  C   -0.384952
    22  H    0.140277
    23  H    0.123826
    24  H    0.133370
 Sum of Mulliken charges =  -0.00000

 Dipole moment (field-independent basis, Debye):
    X=             -7.3639    Y=              7.9868    Z=              1.2269  Tot=             10.9325
 Quadrupole moment (field-independent basis, Debye-Ang):
   XX=            -98.1838   YY=            -68.7409   ZZ=            -68.9001
   XY=              2.9602   XZ=             -9.8800   YZ=              4.1038

  Exact polarizability: 229.526 -10.521 161.115   1.844  -1.326 140.996
 Approx polarizability: 170.010  -6.526 132.238   3.465   0.073 119.422

 ******    1 imaginary frequencies (negative Signs) ******

                      1                      2                      3
                      A                      A                      A
 Frequencies --   -379.3448                42.9250                63.1224
 Red. masses --      6.4709                 2.7482                 2.1405
 Frc consts  --      0.5486                 0.0030                 0.0050
 IR Inten    --    877.9903                 5.0046                 2.5768

                      4                      5                      6
                      A                      A                      A
 Frequencies --     77.3594               128.5214               142.6836
 Red. masses --      3.4725                 1.5371                 2.7886
 Frc consts  --      0.0122                 0.0150                 0.0334
 IR Inten    --      2.5622                 6.5056                 1.4279

                      7                      8                      9
                      A                      A                      A
 Frequencies --    175.2923               201.6903               228.7713
 Red. masses --      1.3200                 2.7355                 2.1941
 Frc consts  --      0.0239                 0.0656                 0.0677
 IR Inten    --      1.3675                17.8553                12.8028

                     10                     11                     12
                      A                      A                      A
 Frequencies --    241.5488               257.4553               266.6671
 Red. masses --      1.4092                 3.7191                 2.1132
 Frc consts  --      0.0484                 0.1452                 0.0885
 IR Inten    --      1.7958                14.2032                19.9577

                     13                     14                     15
                      A                      A                      A
 Frequencies --    312.3126               357.9904               367.6721
 Red. masses --      1.8103                 3.0644                 3.1874
 Frc consts  --      0.1040                 0.2314                 0.2539
 IR Inten    --      1.0236                11.6437                 2.6371

                     16                     17                     18
                      A                      A                      A
 Frequencies --    381.0643               433.3071               474.0334
 Red. masses --      1.4895                 2.8958                 3.7744
 Frc consts  --      0.1274                 0.3203                 0.4997
 IR Inten    --      5.5001                50.8115               114.7925

                     19                     20                     21
                      A                      A                      A
 Frequencies --    556.1737               603.8655               632.3936
 Red. masses --      3.2403                 3.4768                 2.6202
 Frc consts  --      0.5906                 0.7470                 0.6174
 IR Inten    --      6.0968               158.1848                39.5258

                     22                     23                     24
                      A                      A                      A
 Frequencies --    692.0944               739.7755               933.3950
 Red. masses --      1.6097                 2.4605                 1.8409
 Frc consts  --      0.4543                 0.7934                 0.9450
 IR Inten    --     24.9371               207.2761               120.2526

                     25                     26                     27
                      A                      A                      A
 Frequencies --    973.8156              1017.3521              1029.7913
 Red. masses --      1.7726                 1.1570                 1.5449
 Frc consts  --      0.9904                 0.7055                 0.9653
 IR Inten    --    327.8460                21.3399                 3.6130

                     28                     29                     30
                      A                      A                      A
 Frequencies --   1051.0791              1053.2993              1062.9044
 Red. masses --      2.0498                 1.4114                 1.4749
 Frc consts  --      1.3342                 0.9226                 0.9817
 IR Inten    --     48.2221                77.2444                33.8002

                     31                     32                     33
                      A                      A                      A
 Frequencies --   1071.9735              1084.3042              1134.1227
 Red. masses --      1.7092                 1.9092                 2.2018
 Frc consts  --      1.1572                 1.3225                 1.6686
 IR Inten    --     26.3442               119.3794               156.6163

                     34                     35                     36
                      A                      A                      A
 Frequencies --   1145.7262              1244.1322              1345.3845
 Red. masses --      2.5932                 1.3546                 1.2972
 Frc consts  --      2.0056                 1.2354                 1.3835
 IR Inten    --      6.2674                46.9830                 1.5623

                     37                     38                     39
                      A                      A                      A
 Frequencies --   1359.0789              1401.8612              1412.2738
 Red. masses --      1.9577                 2.1301                 1.2665
 Frc consts  --      2.1305                 2.4664                 1.4883
 IR Inten    --    478.1282               377.8902                17.5426

                     40                     41                     42
                      A                      A                      A
 Frequencies --   1417.4687              1446.2141              1457.3764
 Red. masses --      1.2810                 1.8618                 1.1648
 Frc consts  --      1.5164                 2.2942                 1.4576
 IR Inten    --    181.7502               385.3368                70.3170

                     43                     44                     45
                      A                      A                      A
 Frequencies --   1465.4132              1475.3731              1478.8109
 Red. masses --      1.1514                 1.0577                 1.1345
 Frc consts  --      1.4568                 1.3565                 1.4618
 IR Inten    --     41.0988                 2.4191                49.6632

                     46                     47                     48
                      A                      A                      A
 Frequencies --   1491.4720              1499.5289              1500.2910
 Red. masses --      1.0421                 1.0446                 1.0572
 Frc consts  --      1.3658                 1.3839                 1.4021
 IR Inten    --     31.1199                23.5544                 6.2643

                     49                     50                     51
                      A                      A                      A
 Frequencies --   1507.9677              1515.2698              1614.7832
 Red. masses --      1.3228                 1.1003                 7.0951
 Frc consts  --      1.7723                 1.4885                10.9003
 IR Inten    --    451.8105                72.3547               612.6433

                     52                     53                     54
                      A                      A                      A
 Frequencies --   1641.5961              3037.2649              3069.4797
 Red. masses --      1.0932                 1.0443                 1.0374
 Frc consts  --      1.7357                 5.6759                 5.7586
 IR Inten    --     35.1186                71.5212                10.3625

                     55                     56                     57
                      A                      A                      A
 Frequencies --   3072.6240              3089.0092              3097.1781
 Red. masses --      1.0344                 1.0366                 1.0930
 Frc consts  --      5.7541                 5.8278                 6.1773
 IR Inten    --     39.6492                 9.8259                44.1160

                     58                     59                     60
                      A                      A                      A
 Frequencies --   3136.0834              3146.2053              3151.5862
 Red. masses --      1.1004                 1.0998                 1.1034
 Frc consts  --      6.3763                 6.4139                 6.4574
 IR Inten    --     31.4279                19.3371                10.0106

                     61                     62                     63
                      A                      A                      A
 Frequencies --   3163.8275              3167.2404              3176.2941
 Red. masses --      1.1035                 1.1017                 1.1053
 Frc consts  --      6.5079                 6.5114                 6.5700
 IR Inten    --     35.0505                 5.4579                14.9105

                     64                     65                     66
                      A                      A                      A
 Frequencies --   3179.7544              3516.5424              3597.5625
 Red. masses --      1.1034                 1.0519                 1.0957
 Frc consts  --      6.5729                 7.6643                 8.3554
 IR Inten    --      3.1920                26.4320                47.4888

 - Thermochemistry -
 -------------------
 Temperature   298.150 Kelvin.  Pressure   1.00000 Atm.
 Atom     1 has atomic number  6 and mass  12.00000

 Molecular mass:   207.02588 amu.
 Principal axes and moments of inertia in atomic units:
                           1         2         3
     Eigenvalues --  1441.748102978.396463402.20012
           X            0.99796  -0.05437  -0.03331
           Y            0.05138   0.99506  -0.08498
           Z            0.03777   0.08310   0.99583
 This molecule is an asymmetric top.
 Rotational symmetry number  1.
 Warning -- assumption of classical behavior for rotation
           may cause significant error
 Rotational temperatures (Kelvin)      0.06008     0.02908     0.02546
 Rotational constants (GHZ):           1.25177     0.60594     0.53046
    1 imaginary frequencies ignored.
 Zero-point vibrational energy     537179.7 (Joules/Mol)
                                  128.38903 (Kcal/Mol)
 Warning -- explicit consideration of  19 degrees of freedom as
           vibrations may cause significant error
 Vibrational temperatures:     61.76    90.82   111.30   184.91   205.29
          (Kelvin)            252.21   290.19   329.15   347.53   370.42
                              383.67   449.35   515.07   529.00   548.27
                              623.43   682.03   800.21   868.83   909.87
                              995.77  1064.37  1342.95  1401.10  1463.74
                             1481.64  1512.27  1515.46  1529.28  1542.33
                             1560.07  1631.75  1648.44  1790.03  1935.71
                             1955.41  2016.97  2031.95  2039.42  2080.78
                             2096.84  2108.40  2122.73  2127.68  2145.90
                             2157.49  2158.58  2169.63  2180.14  2323.31
                             2361.89  4369.95  4416.30  4420.82  4444.40
                             4456.15  4512.12  4526.69  4534.43  4552.04
                             4556.95  4569.98  4574.96  5059.52  5176.09

 Zero-point correction=                           0.204601 (Hartree/Particle)
 Thermal correction to Energy=                    0.217425
 Thermal correction to Enthalpy=                  0.218369
 Thermal correction to Gibbs Free Energy=         0.164751
 Sum of electronic and zero-point Energies=          -2979.142372
 Sum of electronic and thermal Energies=             -2979.129548
 Sum of electronic and thermal Enthalpies=           -2979.128604
 Sum of electronic and thermal Free Energies=        -2979.182222

                     E (Thermal)             CV                S
                      KCal/Mol        Cal/Mol-Kelvin    Cal/Mol-Kelvin
 Total                  136.436             45.404            112.848
 Electronic               0.000              0.000              0.000
 Translational            0.889              2.981             41.887
 Rotational               0.889              2.981             31.058
 Vibrational            134.659             39.442             39.903
 Vibration     1          0.595              1.980              5.119
 Vibration     2          0.597              1.972              4.357
 Vibration     3          0.599              1.964              3.957
 Vibration     4          0.611              1.925              2.968
 Vibration     5          0.616              1.911              2.768
 Vibration     6          0.627              1.873              2.378
 Vibration     7          0.639              1.837              2.118
 Vibration     8          0.651              1.797              1.889
 Vibration     9          0.658              1.777              1.791
 Vibration    10          0.667              1.750              1.679
 Vibration    11          0.672              1.734              1.618
 Vibration    12          0.701              1.650              1.350
 Vibration    13          0.733              1.559              1.131
 Vibration    14          0.740              1.539              1.089
 Vibration    15          0.751              1.511              1.035
 Vibration    16          0.794              1.398              0.848
 Vibration    17          0.831              1.308              0.726
 Vibration    18          0.912              1.126              0.532
 Vibration    19          0.962              1.024              0.443

 Optimization completed.
    -- Stationary point found.
 Normal termination of Gaussian 16 at Fri Feb 19 12:15:51 2021.
