 Gaussian 16, Revision A.03,
 Gaussian 16:  ES64L-G16RevA.03 25-Dec-2016

 ----------------------------------------------------------------------
 # wB97XD def2tzvp, opt=(ts, noeigen, calcfc, maxcycles=70, maxstep=1),
  freq=noraman, scrf=(iefpcm, solvent=water)
 ----------------------------------------------------------------------

 ------------------------
 0_iteration/TS-667-0.out
 ------------------------
 Symbolic Z-matrix:
 Charge =  0 Multiplicity = 1

 SCF Done:  E(RwB97XD) =  -5490.40101826     A.U. after   15 cycles
 SCF Done:  E(RwB97XD) =  -5490.40096960     A.U. after   10 cycles
 SCF Done:  E(RwB97XD) =  -5490.40092578     A.U. after   10 cycles
 SCF Done:  E(RwB97XD) =  -5490.40088644     A.U. after   10 cycles
 SCF Done:  E(RwB97XD) =  -5490.40085179     A.U. after   10 cycles
 SCF Done:  E(RwB97XD) =  -5490.40082200     A.U. after   10 cycles
 SCF Done:  E(RwB97XD) =  -5490.40079707     A.U. after   10 cycles
 SCF Done:  E(RwB97XD) =  -5490.40077701     A.U. after   10 cycles
 SCF Done:  E(RwB97XD) =  -5490.40076253     A.U. after   10 cycles
 SCF Done:  E(RwB97XD) =  -5490.40075537     A.U. after   10 cycles
 SCF Done:  E(RwB97XD) =  -5490.40210189     A.U. after   10 cycles
 SCF Done:  E(RwB97XD) =  -5490.40213996     A.U. after   10 cycles
 SCF Done:  E(RwB97XD) =  -5490.40217408     A.U. after   10 cycles
 SCF Done:  E(RwB97XD) =  -5490.40220091     A.U. after    9 cycles
 SCF Done:  E(RwB97XD) =  -5490.40222006     A.U. after    9 cycles
 SCF Done:  E(RwB97XD) =  -5490.40223241     A.U. after    9 cycles
 SCF Done:  E(RwB97XD) =  -5490.40223797     A.U. after    9 cycles
 SCF Done:  E(RwB97XD) =  -5490.40223827     A.U. after    7 cycles
 SCF Done:  E(RwB97XD) =  -5490.40223828     A.U. after    6 cycles
 Optimization completed.
    -- Stationary point found.
 Normal termination of Gaussian 16 at Thu Feb 18 20:48:19 2021.

 ---------------------------------------------------------------------
 #N Geom=AllCheck Guess=TCheck SCRF=Check GenChk RwB97XD/def2TZVP Freq
 ---------------------------------------------------------------------

 Structure from the checkpoint file:  "/beegfs/scratch/user/q/tla25/Gau-10501.chk"
 ------------------------
 0_iteration/TS-667-0.out
 ------------------------
 Charge =  0 Multiplicity = 1

                         Standard orientation:
 ---------------------------------------------------------------------
 Center     Atomic      Atomic             Coordinates (Angstroms)
 Number     Number       Type             X           Y           Z
 ---------------------------------------------------------------------
      1          6           0        0.780720    0.315407   -0.251523
      2          6           0        1.697725    1.402032   -0.549291
      3          8           0        1.280746    2.508877   -0.917981
      4          6           0       -0.569016    0.558369   -0.366985
      5          6           0       -2.613111    1.951767    1.148088
      6          1           0       -2.882080    2.464179    2.072213
      7          1           0       -2.601398    2.673034    0.332027
      8          1           0       -3.357014    1.187037    0.934939
      9          7           0       -1.296367    1.325444    1.245377
     10          1           0       -0.575756    2.003838    1.464921
     11          1           0       -1.270515    0.601113    1.954378
     12         35           0       -1.813379   -0.870696   -0.648086
     13          1           0       -0.827027    1.419245   -0.968075
     14         35           0        1.422007   -1.287448    0.555384
     15          7           0        3.029317    1.184528   -0.408698
     16          1           0        3.654029    1.908910   -0.713553
     17          1           0        3.403223    0.271423   -0.226907
 ---------------------------------------------------------------------

 SCF Done:  E(RwB97XD) =  -5490.40223828     A.U. after    1 cycles

 The electronic state is 1-A.
 Alpha  occ. eigenvalues -- -483.13764-483.12896 -62.68622 -62.67731 -56.47738
 Alpha  occ. eigenvalues --  -56.47385 -56.47367 -56.46835 -56.46501 -56.46490
 Alpha  occ. eigenvalues --  -19.20387 -14.48753 -14.44266 -10.38871 -10.38795
 Alpha  occ. eigenvalues --  -10.32000 -10.31055  -8.82745  -8.81850  -6.64905
 Alpha  occ. eigenvalues --   -6.63965  -6.63774  -6.63717  -6.62892  -6.62859
 Alpha  occ. eigenvalues --   -2.75295  -2.74973  -2.74929  -2.74362  -2.74050
 Alpha  occ. eigenvalues --   -2.74022  -2.74014  -2.74013  -2.73156  -2.73155
 Alpha  occ. eigenvalues --   -1.13105  -1.04160  -0.99986  -0.94633  -0.89196
 Alpha  occ. eigenvalues --   -0.82684  -0.79022  -0.72962  -0.64779  -0.63803
 Alpha  occ. eigenvalues --   -0.62321  -0.57747  -0.56360  -0.54669  -0.51808
 Alpha  occ. eigenvalues --   -0.50788  -0.49791  -0.48249  -0.46058  -0.45510
 Alpha  occ. eigenvalues --   -0.40193  -0.39363  -0.37677  -0.36722  -0.35322
 Alpha  occ. eigenvalues --   -0.34189  -0.27696
 Alpha virt. eigenvalues --    0.04197   0.06087   0.09366   0.10862   0.13432
 Alpha virt. eigenvalues --    0.14350   0.15573   0.16266   0.17490   0.18015
 Alpha virt. eigenvalues --    0.19123   0.20280   0.21834   0.22878   0.23948

 Mulliken charges:
               1
     1  C   -0.184220
     2  C    0.306717
     3  O   -0.541813
     4  C   -0.049007
     5  C   -0.273953
     6  H    0.155634
     7  H    0.152553
     8  H    0.152006
     9  N   -0.335354
    10  H    0.285857
    11  H    0.286912
    12  Br  -0.071214
    13  H    0.188453
    14  Br  -0.144455
    15  N   -0.470285
    16  H    0.271165
    17  H    0.271004
 Sum of Mulliken charges =  -0.00000

 Dipole moment (field-independent basis, Debye):
    X=             -2.8166    Y=              1.0377    Z=              4.6172  Tot=              5.5071
 Quadrupole moment (field-independent basis, Debye-Ang):
   XX=            -63.4003   YY=            -85.4068   ZZ=            -76.4618
   XY=             -7.6766   XZ=             -5.5827   YZ=              8.2921

  Exact polarizability: 193.689  -2.342 156.909  -8.723  -2.578 120.098
 Approx polarizability: 144.041  -2.073 132.992  -3.415  -4.315 105.459

 ******    1 imaginary frequencies (negative Signs) ******

                      1                      2                      3
                      A                      A                      A
 Frequencies --   -363.8380                39.5372                66.4612
 Red. masses --      6.4941                 5.6008                 1.9573
 Frc consts  --      0.5065                 0.0052                 0.0051
 IR Inten    --    876.3196                 6.2925                 5.8232

                      4                      5                      6
                      A                      A                      A
 Frequencies --     75.2767                96.2776               114.1562
 Red. masses --      4.6983                 5.2861                12.0106
 Frc consts  --      0.0157                 0.0289                 0.0922
 IR Inten    --     17.5166                11.4597                 1.6293

                      7                      8                      9
                      A                      A                      A
 Frequencies --    156.8441               178.7115               181.4301
 Red. masses --      3.0045                 1.6780                 1.9618
 Frc consts  --      0.0435                 0.0316                 0.0380
 IR Inten    --      1.4525                 9.0160               185.8890

                     10                     11                     12
                      A                      A                      A
 Frequencies --    197.0040               279.4485               300.4940
 Red. masses --      1.9418                 3.1734                 7.1151
 Frc consts  --      0.0444                 0.1460                 0.3785
 IR Inten    --    178.9875                 1.5304                 1.9230

                     13                     14                     15
                      A                      A                      A
 Frequencies --    393.4341               427.0795               542.1945
 Red. masses --      8.8575                 4.3517                 1.1296
 Frc consts  --      0.8078                 0.4677                 0.1956
 IR Inten    --     23.5747               178.3037                 6.7757

                     16                     17                     18
                      A                      A                      A
 Frequencies --    575.6382               591.9175               673.7890
 Red. masses --      3.4236                 2.5838                 2.0769
 Frc consts  --      0.6684                 0.5334                 0.5555
 IR Inten    --     25.2581                22.8167                49.9477

                     19                     20                     21
                      A                      A                      A
 Frequencies --    773.0121               782.7760              1006.8754
 Red. masses --      6.6878                 3.1534                 1.1508
 Frc consts  --      2.3545                 1.1384                 0.6874
 IR Inten    --     47.8117               121.1749                 5.9042

                     22                     23                     24
                      A                      A                      A
 Frequencies --   1015.1248              1042.4202              1075.3442
 Red. masses --      2.1292                 1.2893                 4.4976
 Frc consts  --      1.2927                 0.8255                 3.0643
 IR Inten    --     90.5723                37.5535               157.5570

                     25                     26                     27
                      A                      A                      A
 Frequencies --   1090.5482              1135.1455              1205.2367
 Red. masses --      1.8822                 1.2002                 1.2446
 Frc consts  --      1.3189                 0.9112                 1.0651
 IR Inten    --     11.7747                44.4540                40.2213

                     28                     29                     30
                      A                      A                      A
 Frequencies --   1224.9595              1344.6418              1391.1215
 Red. masses --      1.3978                 1.3216                 4.2639
 Frc consts  --      1.2358                 1.4078                 4.8617
 IR Inten    --     23.1769                 1.3054               464.0775

                     31                     32                     33
                      A                      A                      A
 Frequencies --   1420.6569              1463.5667              1490.9482
 Red. masses --      5.6220                 1.2382                 1.0396
 Frc consts  --      6.6853                 1.5627                 1.3616
 IR Inten    --   1127.0453                75.6057                16.7700

                     34                     35                     36
                      A                      A                      A
 Frequencies --   1504.4673              1598.9816              1640.8194
 Red. masses --      1.0331                 1.4922                 1.1271
 Frc consts  --      1.3778                 2.2479                 1.7879
 IR Inten    --     11.8107               329.9026                27.1802

                     37                     38                     39
                      A                      A                      A
 Frequencies --   1654.3466              3067.9374              3145.2470
 Red. masses --      3.6681                 1.0340                 1.1050
 Frc consts  --      5.9149                 5.7341                 6.4405
 IR Inten    --    611.7673                47.1508                15.5359

                     40                     41                     42
                      A                      A                      A
 Frequencies --   3168.9037              3218.3280              3521.5189
 Red. masses --      1.1052                 1.0899                 1.0507
 Frc consts  --      6.5389                 6.6511                 7.6768
 IR Inten    --     11.7660                 5.0426                28.9215

                     43                     44                     45
                      A                      A                      A
 Frequencies --   3605.4926              3628.1983              3755.0177
 Red. masses --      1.0967                 1.0454                 1.1052
 Frc consts  --      8.4001                 8.1080                 9.1819
 IR Inten    --     51.8527                94.0698                97.4099

 - Thermochemistry -
 -------------------
 Temperature   298.150 Kelvin.  Pressure   1.00000 Atm.
 Atom     1 has atomic number  6 and mass  12.00000

 Molecular mass:   257.90034 amu.
 Principal axes and moments of inertia in atomic units:
                           1         2         3
     Eigenvalues --  1994.019943245.711664329.37865
           X            0.99828  -0.02791  -0.05158
           Y            0.02979   0.99891   0.03599
           Z            0.05052  -0.03746   0.99802
 This molecule is an asymmetric top.
 Rotational symmetry number  1.
 Warning -- assumption of classical behavior for rotation
           may cause significant error
 Rotational temperatures (Kelvin)      0.04344     0.02669     0.02001
 Rotational constants (GHZ):           0.90508     0.55604     0.41686
    1 imaginary frequencies ignored.
 Zero-point vibrational energy     334125.0 (Joules/Mol)
                                   79.85778 (Kcal/Mol)
 Warning -- explicit consideration of  16 degrees of freedom as
           vibrations may cause significant error
 Vibrational temperatures:     56.89    95.62   108.31   138.52   164.25
          (Kelvin)            225.66   257.13   261.04   283.44   402.06
                              432.34   566.06   614.47   780.10   828.21
                              851.64   969.43  1112.19  1126.24  1448.67
                             1460.54  1499.81  1547.18  1569.06  1633.22
                             1734.07  1762.44  1934.64  2001.51  2044.01
                             2105.75  2145.14  2164.59  2300.58  2360.77
                             2380.24  4414.08  4525.31  4559.35  4630.46
                             5066.68  5187.50  5220.17  5402.63

 Zero-point correction=                           0.127261 (Hartree/Particle)
 Thermal correction to Energy=                    0.138916
 Thermal correction to Enthalpy=                  0.139860
 Thermal correction to Gibbs Free Energy=         0.086798
 Sum of electronic and zero-point Energies=          -5490.274977
 Sum of electronic and thermal Energies=             -5490.263322
 Sum of electronic and thermal Enthalpies=           -5490.262378
 Sum of electronic and thermal Free Energies=        -5490.315440

                     E (Thermal)             CV                S
                      KCal/Mol        Cal/Mol-Kelvin    Cal/Mol-Kelvin
 Total                   87.171             38.075            111.679
 Electronic               0.000              0.000              0.000
 Translational            0.889              2.981             42.542
 Rotational               0.889              2.981             31.705
 Vibrational             85.394             32.113             37.431
 Vibration     1          0.594              1.981              5.282
 Vibration     2          0.598              1.970              4.256
 Vibration     3          0.599              1.965              4.010
 Vibration     4          0.603              1.952              3.528
 Vibration     5          0.607              1.938              3.197
 Vibration     6          0.621              1.895              2.588
 Vibration     7          0.629              1.868              2.342
 Vibration     8          0.630              1.865              2.314
 Vibration     9          0.636              1.844              2.161
 Vibration    10          0.680              1.712              1.537
 Vibration    11          0.693              1.673              1.414
 Vibration    12          0.761              1.484              0.987
 Vibration    13          0.789              1.411              0.868
 Vibration    14          0.897              1.157              0.561
 Vibration    15          0.932              1.084              0.494
 Vibration    16          0.949              1.049              0.464

 Optimization completed.
    -- Stationary point found.
 Normal termination of Gaussian 16 at Thu Feb 18 20:59:16 2021.
