 Gaussian 16, Revision A.03,
 Gaussian 16:  ES64L-G16RevA.03 25-Dec-2016

 ----------------------------------------------------------------------
 # wB97XD def2tzvp, opt=(ts, noeigen, calcfc, maxcycles=70, maxstep=8),
  freq=noraman, scrf=(iefpcm, solvent=water)
 ----------------------------------------------------------------------

 ------------------------
 1_iteration/TS-654-1.out
 ------------------------
 Symbolic Z-matrix:
 Charge =  0 Multiplicity = 1

 SCF Done:  E(RwB97XD) =  -2995.39931970     A.U. after   15 cycles
 SCF Done:  E(RwB97XD) =  -2995.39931972     A.U. after    7 cycles
 Optimization completed.
    -- Stationary point found.
 Normal termination of Gaussian 16 at Fri Feb 19 10:08:54 2021.

 ---------------------------------------------------------------------
 #N Geom=AllCheck Guess=TCheck SCRF=Check GenChk RwB97XD/def2TZVP Freq
 ---------------------------------------------------------------------

 Structure from the checkpoint file:  "/beegfs/scratch/user/q/tla25/Gau-25462.chk"
 ------------------------
 1_iteration/TS-654-1.out
 ------------------------
 Charge =  0 Multiplicity = 1

                         Standard orientation:
 ---------------------------------------------------------------------
 Center     Atomic      Atomic             Coordinates (Angstroms)
 Number     Number       Type             X           Y           Z
 ---------------------------------------------------------------------
      1          6           0        0.520655   -0.489575    0.050812
      2          6           0        1.701174    0.276809   -0.250216
      3          8           0        1.618129    1.439858   -0.706912
      4          6           0       -0.685810    0.061652   -0.345970
      5          6           0       -2.167751    2.473740    0.230532
      6          1           0       -2.166786    3.431540    0.752277
      7          1           0       -2.066448    2.656411   -0.839233
      8          1           0       -3.113213    1.967013    0.413866
      9          7           0       -1.069378    1.619170    0.666510
     10          1           0       -0.160799    2.053997    0.520768
     11          1           0       -1.150371    1.332349    1.634709
     12         35           0       -2.261847   -1.001939   -0.093393
     13          1           0       -0.751925    0.617764   -1.272623
     14          1           0        0.537812   -1.324151    0.733429
     15          7           0        2.924906   -0.284903   -0.013365
     16          6           0        3.076633   -1.634955    0.480942
     17          6           0        4.122923    0.522968   -0.041763
     18          1           0        2.370819   -2.307236   -0.004472
     19          1           0        4.083569   -1.981502    0.248626
     20          1           0        2.936464   -1.701310    1.565919
     21          1           0        3.867107    1.528539   -0.360341
     22          1           0        4.583055    0.567754    0.950820
     23          1           0        4.854704    0.104124   -0.737748
 ---------------------------------------------------------------------

 SCF Done:  E(RwB97XD) =  -2995.39931972     A.U. after    1 cycles

 The electronic state is 1-A.
 Alpha  occ. eigenvalues -- -483.13191 -62.68055 -56.47159 -56.46820 -56.46807
 Alpha  occ. eigenvalues --  -19.19207 -14.47944 -14.44796 -10.37929 -10.36774
 Alpha  occ. eigenvalues --  -10.31718 -10.30521 -10.29972 -10.24765  -8.82180
 Alpha  occ. eigenvalues --   -6.64309  -6.63220  -6.63177  -2.74704  -2.74390
 Alpha  occ. eigenvalues --   -2.74357  -2.73476  -2.73476  -1.11735  -1.03564
 Alpha  occ. eigenvalues --   -1.02211  -0.92476  -0.84560  -0.81040  -0.79140
 Alpha  occ. eigenvalues --   -0.77657  -0.69265  -0.63286  -0.61995  -0.59281
 Alpha  occ. eigenvalues --   -0.56562  -0.55866  -0.55354  -0.53815  -0.50650
 Alpha  occ. eigenvalues --   -0.49599  -0.48228  -0.48109  -0.47606  -0.47017
 Alpha  occ. eigenvalues --   -0.45320  -0.44665  -0.44001  -0.37780  -0.37027
 Alpha  occ. eigenvalues --   -0.33367  -0.31414  -0.26951
 Alpha virt. eigenvalues --    0.05974   0.07334   0.10993   0.12065   0.14419
 Alpha virt. eigenvalues --    0.15284   0.16009   0.16589   0.17573   0.17702
 Alpha virt. eigenvalues --    0.18926   0.19601   0.20027   0.20314   0.20896

 Mulliken charges:
               1
     1  C   -0.514428
     2  C    0.356661
     3  O   -0.610606
     4  C    0.013870
     5  C   -0.274127
     6  H    0.152465
     7  H    0.147245
     8  H    0.150030
     9  N   -0.311125
    10  H    0.274348
    11  H    0.275785
    12  Br  -0.102729
    13  H    0.169805
    14  H    0.150899
    15  N   -0.114066
    16  C   -0.302575
    17  C   -0.280896
    18  H    0.143872
    19  H    0.142711
    20  H    0.135098
    21  H    0.141883
    22  H    0.125632
    23  H    0.130246
 Sum of Mulliken charges =   0.00000

 Dipole moment (field-independent basis, Debye):
    X=             -1.6128    Y=              1.4153    Z=              3.7196  Tot=              4.2941
 Quadrupole moment (field-independent basis, Debye-Ang):
   XX=            -66.0733   YY=            -70.5636   ZZ=            -73.5131
   XY=            -13.7868   XZ=              2.2032   YZ=              3.7841

  Exact polarizability: 216.111 -13.009 162.625  -2.178  -1.948 120.785
 Approx polarizability: 151.946  -5.564 133.304  -2.055  -3.030 106.411

 ******    1 imaginary frequencies (negative Signs) ******

                      1                      2                      3
                      A                      A                      A
 Frequencies --   -392.8062                49.1073                64.7710
 Red. masses --      6.5933                 2.9565                 3.5006
 Frc consts  --      0.5994                 0.0042                 0.0087
 IR Inten    --    999.4220                11.4661                 6.3064

                      4                      5                      6
                      A                      A                      A
 Frequencies --     85.7242                95.4510               117.8302
 Red. masses --      2.7621                 1.5492                 1.9687
 Frc consts  --      0.0120                 0.0083                 0.0161
 IR Inten    --      3.7477                 3.1138                10.9722

                      7                      8                      9
                      A                      A                      A
 Frequencies --    124.2497               156.6867               169.3688
 Red. masses --      2.1110                 2.1016                 1.4667
 Frc consts  --      0.0192                 0.0304                 0.0248
 IR Inten    --     21.8318                 7.8115                 8.1066

                     10                     11                     12
                      A                      A                      A
 Frequencies --    193.8439               217.8883               236.3570
 Red. masses --      1.9303                 2.5150                 5.4955
 Frc consts  --      0.0427                 0.0703                 0.1809
 IR Inten    --      5.4383                 1.6366                 2.5934

                     13                     14                     15
                      A                      A                      A
 Frequencies --    274.0820               305.8496               381.3138
 Red. masses --      2.6989                 3.2408                 3.2089
 Frc consts  --      0.1195                 0.1786                 0.2749
 IR Inten    --     14.8795                58.0307                13.8346

                     16                     17                     18
                      A                      A                      A
 Frequencies --    471.2365               544.1768               614.5769
 Red. masses --      2.9211                 3.5164                 5.0496
 Frc consts  --      0.3822                 0.6135                 1.1237
 IR Inten    --     61.9048                21.8252                11.0713

                     19                     20                     21
                      A                      A                      A
 Frequencies --    642.2828               657.3659               756.8606
 Red. masses --      1.3775                 1.6901                 2.3389
 Frc consts  --      0.3348                 0.4303                 0.7894
 IR Inten    --    158.2904                13.5859               123.1984

                     22                     23                     24
                      A                      A                      A
 Frequencies --    783.8708               895.1262              1007.5568
 Red. masses --      8.9726                 3.6381                 1.1480
 Frc consts  --      3.2483                 1.7175                 0.6867
 IR Inten    --    120.0394                38.0148                24.9387

                     25                     26                     27
                      A                      A                      A
 Frequencies --   1024.0125              1051.8205              1080.1766
 Red. masses --      2.0742                 1.1652                 3.8030
 Frc consts  --      1.2815                 0.7595                 2.6144
 IR Inten    --     52.9739                94.7173               280.1001

                     28                     29                     30
                      A                      A                      A
 Frequencies --   1087.7810              1131.9293              1158.0177
 Red. masses --      1.4438                 1.2338                 1.3886
 Frc consts  --      1.0065                 0.9314                 1.0972
 IR Inten    --      9.0494                 3.3669               157.1689

                     31                     32                     33
                      A                      A                      A
 Frequencies --   1170.4952              1186.5233              1210.6505
 Red. masses --      1.3062                 1.4188                 1.4453
 Frc consts  --      1.0543                 1.1768                 1.2481
 IR Inten    --     70.1024               243.6100                39.1765

                     34                     35                     36
                      A                      A                      A
 Frequencies --   1249.5909              1289.7514              1315.7409
 Red. masses --      1.3982                 1.6880                 4.8793
 Frc consts  --      1.2863                 1.6544                 4.9768
 IR Inten    --     20.2741               123.7916                 5.8028

                     37                     38                     39
                      A                      A                      A
 Frequencies --   1346.3336              1419.9007              1433.2939
 Red. masses --      1.3135                 1.4624                 1.9574
 Frc consts  --      1.4028                 1.7371                 2.3692
 IR Inten    --      8.5047               106.9052                13.9784

                     40                     41                     42
                      A                      A                      A
 Frequencies --   1455.0173              1466.2592              1480.9394
 Red. masses --      1.4425                 1.3724                 1.4127
 Frc consts  --      1.7993                 1.7384                 1.8255
 IR Inten    --    515.0472               304.4269               410.2294

                     43                     44                     45
                      A                      A                      A
 Frequencies --   1490.1837              1492.2507              1498.4708
 Red. masses --      1.0408                 1.0446                 1.0488
 Frc consts  --      1.3617                 1.3705                 1.3876
 IR Inten    --     16.2255                17.1746                 6.1074

                     46                     47                     48
                      A                      A                      A
 Frequencies --   1504.2013              1509.7372              1534.5355
 Red. masses --      1.0332                 1.1078                 1.5012
 Frc consts  --      1.3773                 1.4877                 2.0828
 IR Inten    --     12.5292                37.6500               285.6799

                     49                     50                     51
                      A                      A                      A
 Frequencies --   1602.2298              1646.2296              3020.0679
 Red. masses --      5.2654                 1.1046                 1.0469
 Frc consts  --      7.9640                 1.7637                 5.6260
 IR Inten    --    640.3721                60.1208                74.6236

                     52                     53                     54
                      A                      A                      A
 Frequencies --   3026.7486              3064.4019              3079.2200
 Red. masses --      1.0434                 1.0338                 1.1013
 Frc consts  --      5.6316                 5.7196                 6.1523
 IR Inten    --    153.4076                54.1338                69.8154

                     55                     56                     57
                      A                      A                      A
 Frequencies --   3107.2963              3139.2009              3148.1740
 Red. masses --      1.0873                 1.1049                 1.1037
 Frc consts  --      6.1852                 6.4152                 6.4449
 IR Inten    --     39.6837                20.1069                20.5197

                     58                     59                     60
                      A                      A                      A
 Frequencies --   3163.6408              3184.4310              3187.4335
 Red. masses --      1.1049                 1.0961                 1.0918
 Frc consts  --      6.5158                 6.5488                 6.5354
 IR Inten    --     15.4122                 4.3061                 7.5099

                     61                     62                     63
                      A                      A                      A
 Frequencies --   3245.1238              3476.7382              3592.1125
 Red. masses --      1.0899                 1.0563                 1.0925
 Frc consts  --      6.7626                 7.5225                 8.3057
 IR Inten    --      1.2383                58.6658                67.7823

 - Thermochemistry -
 -------------------
 Temperature   298.150 Kelvin.  Pressure   1.00000 Atm.
 Atom     1 has atomic number  6 and mass  12.00000

 Molecular mass:   208.02112 amu.
 Principal axes and moments of inertia in atomic units:
                           1         2         3
     Eigenvalues --  1199.326224070.471515047.15315
           X            0.99813  -0.06104   0.00197
           Y            0.06105   0.99813  -0.00437
           Z           -0.00170   0.00448   0.99999
 This molecule is an asymmetric top.
 Rotational symmetry number  1.
 Warning -- assumption of classical behavior for rotation
           may cause significant error
 Rotational temperatures (Kelvin)      0.07222     0.02128     0.01716
 Rotational constants (GHZ):           1.50480     0.44337     0.35758
    1 imaginary frequencies ignored.
 Zero-point vibrational energy     509108.2 (Joules/Mol)
                                  121.67977 (Kcal/Mol)
 Warning -- explicit consideration of  17 degrees of freedom as
           vibrations may cause significant error
 Vibrational temperatures:     70.65    93.19   123.34   137.33   169.53
          (Kelvin)            178.77   225.44   243.68   278.90   313.49
                              340.06   394.34   440.05   548.63   678.00
                              782.95   884.24   924.10   945.80  1088.95
                             1127.82  1287.89  1449.65  1473.33  1513.34
                             1554.13  1565.07  1628.59  1666.13  1684.08
                             1707.14  1741.86  1797.88  1855.66  1893.06
                             1937.07  2042.92  2062.19  2093.45  2109.62
                             2130.74  2144.04  2147.02  2155.97  2164.21
                             2172.18  2207.85  2305.25  2368.56  4345.20
                             4354.82  4408.99  4430.31  4470.71  4516.61
                             4529.52  4551.77  4581.69  4586.01  4669.01
                             5002.25  5168.25

 Zero-point correction=                           0.193909 (Hartree/Particle)
 Thermal correction to Energy=                    0.206773
 Thermal correction to Enthalpy=                  0.207717
 Thermal correction to Gibbs Free Energy=         0.153040
 Sum of electronic and zero-point Energies=          -2995.205411
 Sum of electronic and thermal Energies=             -2995.192547
 Sum of electronic and thermal Enthalpies=           -2995.191603
 Sum of electronic and thermal Free Energies=        -2995.246280

                     E (Thermal)             CV                S
                      KCal/Mol        Cal/Mol-Kelvin    Cal/Mol-Kelvin
 Total                  129.752             43.373            115.078
 Electronic               0.000              0.000              0.000
 Translational            0.889              2.981             41.901
 Rotational               0.889              2.981             31.577
 Vibrational            127.975             37.411             41.599
 Vibration     1          0.595              1.978              4.853
 Vibration     2          0.597              1.971              4.306
 Vibration     3          0.601              1.959              3.755
 Vibration     4          0.603              1.952              3.545
 Vibration     5          0.608              1.935              3.136
 Vibration     6          0.610              1.929              3.033
 Vibration     7          0.620              1.895              2.589
 Vibration     8          0.625              1.880              2.442
 Vibration     9          0.635              1.848              2.191
 Vibration    10          0.646              1.814              1.977
 Vibration    11          0.655              1.785              1.830
 Vibration    12          0.676              1.721              1.570
 Vibration    13          0.696              1.663              1.385
 Vibration    14          0.751              1.510              1.034
 Vibration    15          0.828              1.314              0.734
 Vibration    16          0.899              1.152              0.556
 Vibration    17          0.974              1.001              0.425

 Optimization completed.
    -- Stationary point found.
 Normal termination of Gaussian 16 at Fri Feb 19 10:27:50 2021.
