 Gaussian 16, Revision C.01,
 Gaussian 16:  ES64L-G16RevC.01  3-Jul-2019

 ----------------------------------------------------------------------
 # wb97xd def2tzvp opt=(ts, noeigen, calcfc, maxcycles=100, maxstep=10)
  freq=noraman scrf=(iefpcm, solvent=water)
 ----------------------------------------------------------------------

 ----------
 TS-638.out
 ----------
 Symbolic Z-matrix:
 Charge =  0 Multiplicity = 1

 SCF Done:  E(RwB97XD) =  -3686.04572151     A.U. after   17 cycles
 SCF Done:  E(RwB97XD) =  -3686.04610481     A.U. after   13 cycles
 SCF Done:  E(RwB97XD) =  -3686.04673097     A.U. after   14 cycles
 SCF Done:  E(RwB97XD) =  -3686.04761008     A.U. after   13 cycles
 SCF Done:  E(RwB97XD) =  -3686.04843953     A.U. after   13 cycles
 SCF Done:  E(RwB97XD) =  -3686.04868299     A.U. after   13 cycles
 SCF Done:  E(RwB97XD) =  -3686.04869275     A.U. after   12 cycles
 SCF Done:  E(RwB97XD) =  -3686.04863394     A.U. after   12 cycles
 SCF Done:  E(RwB97XD) =  -3686.04870523     A.U. after   11 cycles
 SCF Done:  E(RwB97XD) =  -3686.04862016     A.U. after   13 cycles
 SCF Done:  E(RwB97XD) =  -3686.04860944     A.U. after   13 cycles
 SCF Done:  E(RwB97XD) =  -3686.04859141     A.U. after   13 cycles
 SCF Done:  E(RwB97XD) =  -3686.04869463     A.U. after   12 cycles
 SCF Done:  E(RwB97XD) =  -3686.04868724     A.U. after   12 cycles
 SCF Done:  E(RwB97XD) =  -3686.04870764     A.U. after   11 cycles
 SCF Done:  E(RwB97XD) =  -3686.04870851     A.U. after    9 cycles
 SCF Done:  E(RwB97XD) =  -3686.04870870     A.U. after    9 cycles
 Optimization completed.
    -- Stationary point found.
 Normal termination of Gaussian 16 at Thu Jun  2 23:15:53 2022.

 ---------------------------------------------------------------------
 #N Geom=AllCheck Guess=TCheck SCRF=Check GenChk RwB97XD/def2TZVP Freq
 ---------------------------------------------------------------------

 Structure from the checkpoint file:  "/local/jobs/107279/Gau-2533189.chk"
 ----------
 TS-638.out
 ----------
 Charge =  0 Multiplicity = 1

                         Standard orientation:
 ---------------------------------------------------------------------
 Center     Atomic      Atomic             Coordinates (Angstroms)
 Number     Number       Type             X           Y           Z
 ---------------------------------------------------------------------
      1          6           0        0.655080    1.104970    0.029838
      2          6           0       -0.476944    2.055380   -0.025835
      3          8           0       -0.531417    3.022390    0.736867
      4          6           0        0.605588   -0.257679    0.152068
      5          6           0        0.966934   -0.053998    2.944966
      6          1           0        0.060679   -0.528260    3.310935
      7          1           0        1.712446   -0.040562    3.738934
      8          1           0        0.743509    0.971832    2.645425
      9          7           0        1.463260   -0.773639    1.777557
     10          1           0        2.438891   -0.564029    1.601173
     11          1           0        1.366449   -1.779177    1.862071
     12         35           0        1.993286   -1.295259   -0.972330
     13          6           0       -0.710129   -0.963907    0.245924
     14          6           0       -1.023678   -2.101698   -0.492117
     15          6           0       -2.269445   -2.700507   -0.379456
     16          6           0       -3.224293   -2.177923    0.476621
     17          6           0       -2.921069   -1.051090    1.227150
     18          6           0       -1.677503   -0.455414    1.118058
     19          1           0       -0.298475   -2.521988   -1.172235
     20          1           0       -2.490494   -3.579844   -0.970514
     21          1           0       -4.196704   -2.645580    0.562392
     22          1           0       -3.654102   -0.632082    1.904249
     23          1           0       -1.464070    0.424126    1.708581
     24         17           0        2.217056    1.890110    0.168869
     25          7           0       -1.449070    1.837839   -0.945905
     26          6           0       -1.335150    0.987493   -2.110534
     27          6           0       -2.684690    2.585775   -0.852823
     28          1           0       -0.314881    0.633885   -2.226619
     29          1           0       -2.002551    0.125200   -2.034732
     30          1           0       -1.610292    1.561393   -2.998782
     31          1           0       -2.816912    2.951422    0.161348
     32          1           0       -2.687755    3.439355   -1.537153
     33          1           0       -3.516915    1.929559   -1.113963
 ---------------------------------------------------------------------

 SCF Done:  E(RwB97XD) =  -3686.04870870     A.U. after    1 cycles

 The electronic state is 1-A.
 Alpha  occ. eigenvalues -- -483.11613-101.69235 -62.66465 -56.45551 -56.45243
 Alpha  occ. eigenvalues --  -56.45232 -19.20796 -14.49677 -14.46418 -10.40385
 Alpha  occ. eigenvalues --  -10.38940 -10.32013 -10.31882 -10.31556 -10.30881
 Alpha  occ. eigenvalues --  -10.30598 -10.30057 -10.29826 -10.29726 -10.29577
 Alpha  occ. eigenvalues --  -10.29515  -9.57757  -8.80559  -7.32385  -7.31548
 Alpha  occ. eigenvalues --   -7.31535  -6.62602  -6.61640  -6.61602  -2.72990
 Alpha  occ. eigenvalues --   -2.72737  -2.72706  -2.71928  -2.71927  -1.13883
 Alpha  occ. eigenvalues --   -1.05185  -1.03684  -0.98415  -0.96496  -0.90758
 Alpha  occ. eigenvalues --   -0.86418  -0.85362  -0.83315  -0.81516  -0.79488
 Alpha  occ. eigenvalues --   -0.78965  -0.72409  -0.71100  -0.68225  -0.64878
 Alpha  occ. eigenvalues --   -0.62964  -0.61805  -0.58392  -0.58127  -0.57327
 Alpha  occ. eigenvalues --   -0.56512  -0.55710  -0.55492  -0.53638  -0.51963
 Alpha  occ. eigenvalues --   -0.51376  -0.50603  -0.49135  -0.48753  -0.48611
 Alpha  occ. eigenvalues --   -0.47740  -0.47403  -0.46520  -0.45950  -0.45444
 Alpha  occ. eigenvalues --   -0.43326  -0.43022  -0.41878  -0.39944  -0.36989
 Alpha  occ. eigenvalues --   -0.36397  -0.34857  -0.34617  -0.34287  -0.31872
 Alpha  occ. eigenvalues --   -0.27176
 Alpha virt. eigenvalues --    0.00395   0.04527   0.04663   0.07257   0.10338
 Alpha virt. eigenvalues --    0.11864   0.12479   0.13368   0.14184   0.14729
 Alpha virt. eigenvalues --    0.14857   0.16173   0.16431   0.17382   0.17814

 Mulliken charges:
               1
     1  C   -0.062556
     2  C    0.206945
     3  O   -0.498891
     4  C    0.082954
     5  C   -0.304311
     6  H    0.165494
     7  H    0.168021
     8  H    0.151338
     9  N   -0.298007
    10  H    0.288756
    11  H    0.296760
    12  Br  -0.222644
    13  C    0.119210
    14  C   -0.209315
    15  C   -0.133225
    16  C   -0.132993
    17  C   -0.163546
    18  C   -0.272991
    19  H    0.146560
    20  H    0.145718
    21  H    0.147614
    22  H    0.146544
    23  H    0.191001
    24  Cl  -0.163180
    25  N   -0.072439
    26  C   -0.318291
    27  C   -0.288887
    28  H    0.155660
    29  H    0.152636
    30  H    0.149152
    31  H    0.145338
    32  H    0.142577
    33  H    0.138998
 Sum of Mulliken charges =  -0.00000

 Dipole moment (field-independent basis, Debye):
    X=             -3.3524    Y=             -7.1047    Z=              2.6880  Tot=              8.3030
 Quadrupole moment (field-independent basis, Debye-Ang):
   XX=           -110.5068   YY=           -135.1123   ZZ=           -107.3307
   XY=             -2.0825   XZ=             10.6012   YZ=            -10.3836

  Exact polarizability:     302.024       6.625     288.960      -7.734      26.322     251.892
 Approx polarizability:     238.239       4.389     234.870      -7.602      25.922     212.047

 ******    1 imaginary frequencies (negative Signs) ******

                      1                      2                      3
                      A                      A                      A
 Frequencies --   -390.9189                39.2672                52.1504
 Red. masses --      6.1952                 4.6882                 4.4066
 Frc consts  --      0.5578                 0.0043                 0.0071
 IR Inten    --    454.2802                 4.3974                 4.5637

                      4                      5                      6
                      A                      A                      A
 Frequencies --     70.7613                75.9293                88.8845
 Red. masses --      2.8636                 6.4766                 3.3033
 Frc consts  --      0.0084                 0.0220                 0.0154
 IR Inten    --      2.7062                 9.5693                 0.4962

                      7                      8                      9
                      A                      A                      A
 Frequencies --     97.5276               104.6022               122.9338
 Red. masses --      1.3980                 2.6025                 7.8978
 Frc consts  --      0.0078                 0.0168                 0.0703
 IR Inten    --      0.2278                 1.2159                 7.1830

                     10                     11                     12
                      A                      A                      A
 Frequencies --    143.1915               154.5960               174.8446
 Red. masses --      3.6704                 2.7429                 4.7084
 Frc consts  --      0.0443                 0.0386                 0.0848
 IR Inten    --      7.6021                 0.7053                 6.7794

                     13                     14                     15
                      A                      A                      A
 Frequencies --    205.9371               221.2814               234.1798
 Red. masses --      2.3951                 2.2460                 3.3836
 Frc consts  --      0.0598                 0.0648                 0.1093
 IR Inten    --      1.2177                20.5962                39.7042

                     16                     17                     18
                      A                      A                      A
 Frequencies --    245.8650               254.5035               261.4625
 Red. masses --      3.4090                 1.9205                 3.9809
 Frc consts  --      0.1214                 0.0733                 0.1603
 IR Inten    --     11.1290                14.8745                 6.5379

                     19                     20                     21
                      A                      A                      A
 Frequencies --    297.8444               314.3857               324.7042
 Red. masses --      1.9674                 3.4249                 5.7776
 Frc consts  --      0.1028                 0.1994                 0.3589
 IR Inten    --      7.6992                27.3820                 2.0652

                     22                     23                     24
                      A                      A                      A
 Frequencies --    356.2331               386.4957               434.1911
 Red. masses --      5.1375                 3.3807                 3.0152
 Frc consts  --      0.3841                 0.2975                 0.3349
 IR Inten    --     20.1487                13.8508                 2.2363

                     25                     26                     27
                      A                      A                      A
 Frequencies --    458.2624               530.5416               584.6156
 Red. masses --      3.1816                 3.9437                 2.7695
 Frc consts  --      0.3937                 0.6540                 0.5577
 IR Inten    --     16.7650                 8.3434                43.2726

                     28                     29                     30
                      A                      A                      A
 Frequencies --    603.8173               625.2956               641.8067
 Red. masses --      5.0357                 6.0727                 6.4874
 Frc consts  --      1.0817                 1.3989                 1.5745
 IR Inten    --    237.6833               115.5435                39.6808

                     31                     32                     33
                      A                      A                      A
 Frequencies --    679.2118               720.3362               730.6954
 Red. masses --      2.1636                 6.0196                 1.6839
 Frc consts  --      0.5881                 1.8403                 0.5297
 IR Inten    --     39.8049               191.0080                96.4312

                     34                     35                     36
                      A                      A                      A
 Frequencies --    791.3346               808.2591               853.7691
 Red. masses --      4.0212                 2.8723                 5.9827
 Frc consts  --      1.4836                 1.1056                 2.5694
 IR Inten    --     64.0726                31.8495                66.4002

                     37                     38                     39
                      A                      A                      A
 Frequencies --    887.8928               904.8952               982.1561
 Red. masses --      1.2627                 4.8718                 1.4014
 Frc consts  --      0.5865                 2.3503                 0.7965
 IR Inten    --      0.5312                32.3862                 1.3339

                     40                     41                     42
                      A                      A                      A
 Frequencies --   1020.4577              1026.3147              1030.2518
 Red. masses --      1.1504                 5.4512                 1.3633
 Frc consts  --      0.7058                 3.3830                 0.8526
 IR Inten    --     25.3889                 1.5559                 1.0353

                     43                     44                     45
                      A                      A                      A
 Frequencies --   1049.9638              1051.1649              1057.3854
 Red. masses --      1.4631                 1.8857                 1.1723
 Frc consts  --      0.9503                 1.2276                 0.7722
 IR Inten    --      3.3809                77.3805               107.1639

                     46                     47                     48
                      A                      A                      A
 Frequencies --   1070.7215              1077.9953              1083.7136
 Red. masses --      2.0345                 4.5648                 1.3708
 Frc consts  --      1.3742                 3.1254                 0.9485
 IR Inten    --     30.9774                29.5552                17.0066

                     49                     50                     51
                      A                      A                      A
 Frequencies --   1128.0908              1132.5936              1176.0364
 Red. masses --      1.5736                 1.2322                 1.4213
 Frc consts  --      1.1798                 0.9313                 1.1582
 IR Inten    --      3.8735                 0.6771                 9.0407

                     52                     53                     54
                      A                      A                      A
 Frequencies --   1188.6281              1198.8653              1214.8594
 Red. masses --      1.1281                 2.6207                 1.5315
 Frc consts  --      0.9390                 2.2193                 1.3317
 IR Inten    --      0.6123                24.5711               134.3064

                     55                     56                     57
                      A                      A                      A
 Frequencies --   1224.2927              1234.5251              1313.1541
 Red. masses --      1.1454                 3.7293                 5.5047
 Frc consts  --      1.0116                 3.3487                 5.5927
 IR Inten    --      3.8254               272.0953                77.3568

                     58                     59                     60
                      A                      A                      A
 Frequencies --   1319.4083              1334.2991              1367.4269
 Red. masses --      4.7107                 1.3083                 1.4288
 Frc consts  --      4.8316                 1.3724                 1.5741
 IR Inten    --      5.5191                 4.0062                 5.6999

                     61                     62                     63
                      A                      A                      A
 Frequencies --   1430.5542              1441.8414              1453.7852
 Red. masses --      1.8510                 1.2721                 1.2481
 Frc consts  --      2.2318                 1.5581                 1.5542
 IR Inten    --    307.8768                75.8168                64.7201

                     64                     65                     66
                      A                      A                      A
 Frequencies --   1469.3390              1482.6394              1483.7518
 Red. masses --      1.2048                 1.6580                 1.3411
 Frc consts  --      1.5326                 2.1474                 1.7396
 IR Inten    --     85.6357                85.5812                 3.3174

                     67                     68                     69
                      A                      A                      A
 Frequencies --   1492.6838              1498.3182              1502.5000
 Red. masses --      1.1189                 1.1007                 1.0405
 Frc consts  --      1.4688                 1.4559                 1.3839
 IR Inten    --     54.5811                62.5032                25.9320

                     70                     71                     72
                      A                      A                      A
 Frequencies --   1505.0032              1510.5815              1540.5219
 Red. masses --      1.0931                 2.4049                 1.5592
 Frc consts  --      1.4588                 3.2333                 2.1801
 IR Inten    --      7.0280               305.0278               214.3323

                     73                     74                     75
                      A                      A                      A
 Frequencies --   1548.1249              1626.8760              1649.8851
 Red. masses --      2.4537                 1.0921                 5.6055
 Frc consts  --      3.4649                 1.7030                 8.9903
 IR Inten    --     20.1670                77.2146                 6.0752

                     76                     77                     78
                      A                      A                      A
 Frequencies --   1655.4452              1673.6572              3038.0489
 Red. masses --      8.5444                 5.8882                 1.0401
 Frc consts  --     13.7963                 9.7177                 5.6563
 IR Inten    --    806.6421                 0.3697                54.9880

                     79                     80                     81
                      A                      A                      A
 Frequencies --   3042.8015              3065.8734              3097.4093
 Red. masses --      1.0388                 1.0363                 1.1028
 Frc consts  --      5.6666                 5.7390                 6.2336
 IR Inten    --    113.6973                28.6170                77.4192

                     82                     83                     84
                      A                      A                      A
 Frequencies --   3105.4425              3142.4672              3175.3099
 Red. masses --      1.1007                 1.1031                 1.0998
 Frc consts  --      6.2543                 6.4180                 6.5333
 IR Inten    --     11.4865                 6.8791                 6.6512

                     85                     86                     87
                      A                      A                      A
 Frequencies --   3176.7381              3184.0268              3201.4154
 Red. masses --      1.0988                 1.1040                 1.0866
 Frc consts  --      6.5335                 6.5943                 6.5613
 IR Inten    --     10.0325                10.2107                 0.1317

                     88                     89                     90
                      A                      A                      A
 Frequencies --   3211.2720              3222.5048              3236.5518
 Red. masses --      1.0907                 1.0958                 1.0941
 Frc consts  --      6.6271                 6.7044                 6.7527
 IR Inten    --     14.1576                23.1001                 5.8722

                     91                     92                     93
                      A                      A                      A
 Frequencies --   3247.2070              3523.6360              3608.7510
 Red. masses --      1.0922                 1.0509                 1.0972
 Frc consts  --      6.7856                 7.6874                 8.4189
 IR Inten    --      2.6289                56.9142                64.7564

 - Thermochemistry -
 -------------------
 Temperature   298.150 Kelvin.  Pressure   1.00000 Atm.
 Atom     1 has atomic number  6 and mass  12.00000

 Molecular mass:   318.01345 amu.
 Principal axes and moments of inertia in atomic units:
                           1         2         3
     Eigenvalues --  4696.558775428.426817165.42757
           X            0.99688   0.05686   0.05467
           Y           -0.05432   0.99742  -0.04692
           Z           -0.05720   0.04380   0.99740
 This molecule is an asymmetric top.
 Rotational symmetry number  1.
 Warning -- assumption of classical behavior for rotation
           may cause significant error
 Rotational temperatures (Kelvin)      0.01844     0.01596     0.01209
 Rotational constants (GHZ):           0.38427     0.33246     0.25187
    1 imaginary frequencies ignored.
 Zero-point vibrational energy     699873.9 (Joules/Mol)
                                  167.27387 (Kcal/Mol)
 Warning -- explicit consideration of  27 degrees of freedom as
           vibrations may cause significant error
 Vibrational temperatures:     56.50    75.03   101.81   109.25   127.88
          (Kelvin)            140.32   150.50   176.87   206.02   222.43
                              251.56   296.30   318.37   336.93   353.74
                              366.17   376.19   428.53   452.33   467.18
                              512.54   556.08   624.70   659.34   763.33
                              841.13   868.76   899.66   923.42   977.23
                             1036.40  1051.31  1138.55  1162.90  1228.38
                             1277.48  1301.94  1413.10  1468.21  1476.64
                             1482.30  1510.66  1512.39  1521.34  1540.53
                             1550.99  1559.22  1623.07  1629.55  1692.05
                             1710.17  1724.90  1747.91  1761.48  1776.21
                             1889.34  1898.33  1919.76  1967.42  2058.25
                             2074.49  2091.67  2114.05  2133.19  2134.79
                             2147.64  2155.75  2161.76  2165.36  2173.39
                             2216.47  2227.41  2340.71  2373.82  2381.82
                             2408.02  4371.07  4377.91  4411.11  4456.48
                             4468.04  4521.31  4568.56  4570.62  4581.10
                             4606.12  4620.30  4636.47  4656.68  4672.01
                             5069.73  5192.19

 Zero-point correction=                           0.266568 (Hartree/Particle)
 Thermal correction to Energy=                    0.284969
 Thermal correction to Enthalpy=                  0.285913
 Thermal correction to Gibbs Free Energy=         0.219140
 Sum of electronic and zero-point Energies=          -3685.782141
 Sum of electronic and thermal Energies=             -3685.763740
 Sum of electronic and thermal Enthalpies=           -3685.762796
 Sum of electronic and thermal Free Energies=        -3685.829569

                     E (Thermal)             CV                S
                      KCal/Mol        Cal/Mol-Kelvin    Cal/Mol-Kelvin
 Total                  178.820             66.026            140.535
 Electronic               0.000              0.000              0.000
 Translational            0.889              2.981             43.167
 Rotational               0.889              2.981             33.568
 Vibrational            177.043             60.064             63.800
 Vibration     1          0.594              1.981              5.296
 Vibration     2          0.596              1.977              4.734
 Vibration     3          0.598              1.968              4.132
 Vibration     4          0.599              1.965              3.993
 Vibration     5          0.602              1.957              3.684
 Vibration     6          0.603              1.951              3.503
 Vibration     7          0.605              1.946              3.367
 Vibration     8          0.610              1.930              3.054
 Vibration     9          0.616              1.910              2.761
 Vibration    10          0.620              1.898              2.615
 Vibration    11          0.627              1.873              2.383
 Vibration    12          0.640              1.831              2.079
 Vibration    13          0.648              1.809              1.949
 Vibration    14          0.654              1.789              1.847
 Vibration    15          0.660              1.770              1.760
 Vibration    16          0.665              1.755              1.699
 Vibration    17          0.669              1.743              1.652
 Vibration    18          0.691              1.678              1.429
 Vibration    19          0.702              1.646              1.339
 Vibration    20          0.709              1.626              1.286
 Vibration    21          0.732              1.562              1.138
 Vibration    22          0.755              1.499              1.014
 Vibration    23          0.795              1.396              0.845
 Vibration    24          0.816              1.343              0.771
 Vibration    25          0.886              1.182              0.586
 Vibration    26          0.942              1.065              0.477
 Vibration    27          0.962              1.024              0.443

 Optimization completed.
    -- Stationary point found.
 Normal termination of Gaussian 16 at Fri Jun  3 00:21:47 2022.
