 Gaussian 16, Revision A.03,
 Gaussian 16:  ES64L-G16RevA.03 25-Dec-2016

 ----------------------------------------------------------------------
 # wB97XD def2tzvp, opt=(ts, noeigen, calcfc, maxcycles=70, maxstep=3),
  freq=noraman, scrf=(iefpcm, solvent=water)
 ----------------------------------------------------------------------

 ------------------------
 0_iteration/TS-605-0.out
 ------------------------
 Symbolic Z-matrix:
 Charge =  0 Multiplicity = 1

 SCF Done:  E(RwB97XD) =  -3418.18458722     A.U. after   16 cycles
 SCF Done:  E(RwB97XD) =  -3418.18451208     A.U. after   12 cycles
 SCF Done:  E(RwB97XD) =  -3418.18451473     A.U. after   12 cycles
 SCF Done:  E(RwB97XD) =  -3418.18457852     A.U. after   12 cycles
 SCF Done:  E(RwB97XD) =  -3418.18461155     A.U. after   12 cycles
 SCF Done:  E(RwB97XD) =  -3418.18461606     A.U. after   11 cycles
 SCF Done:  E(RwB97XD) =  -3418.18462576     A.U. after   11 cycles
 SCF Done:  E(RwB97XD) =  -3418.18462056     A.U. after   12 cycles
 SCF Done:  E(RwB97XD) =  -3418.18462955     A.U. after   11 cycles
 SCF Done:  E(RwB97XD) =  -3418.18463039     A.U. after    9 cycles
 SCF Done:  E(RwB97XD) =  -3418.18462822     A.U. after   10 cycles
 SCF Done:  E(RwB97XD) =  -3418.18463099     A.U. after    9 cycles
 SCF Done:  E(RwB97XD) =  -3418.18461176     A.U. after   10 cycles
 SCF Done:  E(RwB97XD) =  -3418.18463091     A.U. after   10 cycles
 SCF Done:  E(RwB97XD) =  -3418.18463109     A.U. after    8 cycles
 SCF Done:  E(RwB97XD) =  -3418.18463106     A.U. after    7 cycles
 Optimization completed.
    -- Stationary point found.
 Normal termination of Gaussian 16 at Sun Apr 11 23:28:07 2021.

 ---------------------------------------------------------------------
 #N Geom=AllCheck Guess=TCheck SCRF=Check GenChk RwB97XD/def2TZVP Freq
 ---------------------------------------------------------------------

 Structure from the checkpoint file:  "/beegfs/scratch/user/q/tla25/Gau-7661.chk"
 ------------------------
 0_iteration/TS-605-0.out
 ------------------------
 Charge =  0 Multiplicity = 1

                         Standard orientation:
 ---------------------------------------------------------------------
 Center     Atomic      Atomic             Coordinates (Angstroms)
 Number     Number       Type             X           Y           Z
 ---------------------------------------------------------------------
      1          6           0        0.489837    0.441428   -0.066513
      2          6           0       -0.049137    1.761555   -0.543012
      3          8           0       -0.661242    1.916394   -1.596261
      4          6           0       -0.424179   -0.562504    0.165242
      5          6           0        0.109971   -0.342541    2.908345
      6          1           0        0.778158   -0.830298    3.614226
      7          1           0        0.640878    0.474645    2.415717
      8          1           0       -0.748156    0.056006    3.441435
      9          7           0       -0.324049   -1.286851    1.877465
     10          1           0        0.295038   -2.084733    1.808313
     11          1           0       -1.254300   -1.650453    2.054118
     12         35           0        0.004991   -2.423860   -0.724073
     13          6           0       -1.891134   -0.258411    0.063354
     14          6           0       -2.718964   -0.798682   -0.913833
     15          6           0       -4.052902   -0.429096   -0.992835
     16          6           0       -4.585307    0.479360   -0.091273
     17          6           0       -3.769590    1.022217    0.890017
     18          6           0       -2.436517    0.655506    0.966201
     19          1           0       -2.319595   -1.503870   -1.627833
     20          1           0       -4.677535   -0.855797   -1.767183
     21          1           0       -5.628010    0.763327   -0.153104
     22          1           0       -4.168547    1.735688    1.599545
     23          1           0       -1.808507    1.110497    1.719872
     24          6           0        1.951178    0.309116   -0.062314
     25          6           0        2.741517    1.219303   -0.787338
     26          6           0        4.121184    1.128496   -0.817175
     27          6           0        4.778853    0.117723   -0.128171
     28          6           0        4.023578   -0.795957    0.588936
     29          6           0        2.640658   -0.700590    0.623674
     30          1           0        2.264469    2.011379   -1.351060
     31          1           0        4.687382    1.850901   -1.392584
     32          1           0        5.858441    0.044412   -0.152183
     33          1           0        4.510920   -1.593790    1.136077
     34          1           0        2.108053   -1.438235    1.202625
     35          7           0        0.218305    2.811227    0.261169
     36          6           0       -0.084677    4.171670   -0.116540
     37          1           0        0.738331    2.644525    1.103111
     38          1           0        0.434148    4.450885   -1.036537
     39          1           0       -1.156073    4.301088   -0.276485
     40          1           0        0.234147    4.835608    0.683554
 ---------------------------------------------------------------------

 SCF Done:  E(RwB97XD) =  -3418.18463106     A.U. after    1 cycles

 The electronic state is 1-A.
 Alpha  occ. eigenvalues -- -483.10905 -62.65753 -56.44826 -56.44537 -56.44528
 Alpha  occ. eigenvalues --  -19.21133 -14.50760 -14.45419 -10.39932 -10.38455
 Alpha  occ. eigenvalues --  -10.32455 -10.31428 -10.30934 -10.30527 -10.29778
 Alpha  occ. eigenvalues --  -10.29506 -10.29495 -10.29438 -10.29360 -10.28634
 Alpha  occ. eigenvalues --  -10.28573 -10.28462 -10.28278 -10.28111 -10.27183
 Alpha  occ. eigenvalues --   -8.79838  -6.61839  -6.60940  -6.60905  -2.72232
 Alpha  occ. eigenvalues --   -2.71999  -2.71970  -2.71243  -2.71242  -1.13862
 Alpha  occ. eigenvalues --   -1.06038  -1.02101  -0.97886  -0.96413  -0.92182
 Alpha  occ. eigenvalues --   -0.87270  -0.86006  -0.84998  -0.84516  -0.82365
 Alpha  occ. eigenvalues --   -0.80096  -0.79866  -0.73542  -0.71086  -0.70590
 Alpha  occ. eigenvalues --   -0.69131  -0.67872  -0.65960  -0.64797  -0.62142
 Alpha  occ. eigenvalues --   -0.61382  -0.58758  -0.58163  -0.56554  -0.55872
 Alpha  occ. eigenvalues --   -0.55122  -0.54742  -0.54068  -0.53485  -0.52625
 Alpha  occ. eigenvalues --   -0.51559  -0.50885  -0.50576  -0.50308  -0.49207
 Alpha  occ. eigenvalues --   -0.47839  -0.47621  -0.46855  -0.46337  -0.45481
 Alpha  occ. eigenvalues --   -0.44795  -0.43974  -0.42693  -0.42602  -0.42052
 Alpha  occ. eigenvalues --   -0.37387  -0.36424  -0.35576  -0.34791  -0.34132
 Alpha  occ. eigenvalues --   -0.33861  -0.33436  -0.32924  -0.25682
 Alpha virt. eigenvalues --    0.01294   0.03291   0.04731   0.05770   0.07108
 Alpha virt. eigenvalues --    0.09021   0.10107   0.11215   0.12631   0.13005
 Alpha virt. eigenvalues --    0.13527   0.14079   0.15072   0.15621   0.16883

 Mulliken charges:
               1
     1  C   -0.239150
     2  C    0.214157
     3  O   -0.469257
     4  C    0.386017
     5  C   -0.310282
     6  H    0.174353
     7  H    0.153322
     8  H    0.174549
     9  N   -0.274399
    10  H    0.282340
    11  H    0.300116
    12  Br  -0.274614
    13  C    0.047909
    14  C   -0.250344
    15  C   -0.141349
    16  C   -0.134953
    17  C   -0.161906
    18  C   -0.236539
    19  H    0.147895
    20  H    0.144270
    21  H    0.146277
    22  H    0.144752
    23  H    0.174096
    24  C    0.167218
    25  C   -0.239245
    26  C   -0.165988
    27  C   -0.167118
    28  C   -0.173771
    29  C   -0.242970
    30  H    0.148301
    31  H    0.137205
    32  H    0.138642
    33  H    0.136742
    34  H    0.112305
    35  N   -0.264335
    36  C   -0.257564
    37  H    0.266876
    38  H    0.130328
    39  H    0.132987
    40  H    0.143129
 Sum of Mulliken charges =  -0.00000

 Dipole moment (field-independent basis, Debye):
    X=             -1.3056    Y=              0.5116    Z=             10.8794  Tot=             10.9694
 Quadrupole moment (field-independent basis, Debye-Ang):
   XX=           -126.4597   YY=           -128.9752   ZZ=           -128.2061
   XY=              3.2785   XZ=             -2.3288   YZ=              0.1435

  Exact polarizability: 427.882   2.950 341.009   5.127   9.336 291.504
 Approx polarizability: 311.935  -2.148 274.455   6.494   6.533 252.992

 ******    1 imaginary frequencies (negative Signs) ******

                      1                      2                      3
                      A                      A                      A
 Frequencies --   -399.9539                25.1061                37.0378
 Red. masses --      6.2191                 4.4938                 5.4289
 Frc consts  --      0.5861                 0.0017                 0.0044
 IR Inten    --    418.9627                 5.9796                 0.0912

                      4                      5                      6
                      A                      A                      A
 Frequencies --     56.7092                67.1401                73.0276
 Red. masses --      3.5824                 4.1784                 4.4608
 Frc consts  --      0.0068                 0.0111                 0.0140
 IR Inten    --      7.4482                 1.3064                 3.6339

                      7                      8                      9
                      A                      A                      A
 Frequencies --     85.3088                90.6816               114.4579
 Red. masses --      3.8843                 2.7676                 1.7142
 Frc consts  --      0.0167                 0.0134                 0.0132
 IR Inten    --      3.1897                 3.9489                 0.3496

                     10                     11                     12
                      A                      A                      A
 Frequencies --    118.0106               138.4316               145.7800
 Red. masses --      1.4847                 2.9707                 2.2204
 Frc consts  --      0.0122                 0.0335                 0.0278
 IR Inten    --      1.7675                 6.2248                 5.6214

                     13                     14                     15
                      A                      A                      A
 Frequencies --    169.8899               179.6621               194.6449
 Red. masses --      4.9699                 2.8422                 4.0662
 Frc consts  --      0.0845                 0.0541                 0.0908
 IR Inten    --     18.0934                10.7380                 5.2360

                     16                     17                     18
                      A                      A                      A
 Frequencies --    214.8325               235.0819               246.2575
 Red. masses --      6.6221                 4.7199                 4.4941
 Frc consts  --      0.1801                 0.1537                 0.1606
 IR Inten    --     61.8075                11.8914                28.3468

                     19                     20                     21
                      A                      A                      A
 Frequencies --    248.4990               277.4610               315.4279
 Red. masses --      4.2635                 3.9236                 3.9187
 Frc consts  --      0.1551                 0.1780                 0.2297
 IR Inten    --     20.2029                17.0865                 9.8827

                     22                     23                     24
                      A                      A                      A
 Frequencies --    327.5238               356.0319               420.2937
 Red. masses --      3.5827                 6.0104                 3.6004
 Frc consts  --      0.2264                 0.4489                 0.3747
 IR Inten    --     26.2248                10.8159                53.2403

                     25                     26                     27
                      A                      A                      A
 Frequencies --    426.3812               428.7499               479.7091
 Red. masses --      3.1278                 3.3865                 1.3262
 Frc consts  --      0.3350                 0.3668                 0.1798
 IR Inten    --     26.7304                25.6681                52.9177

                     28                     29                     30
                      A                      A                      A
 Frequencies --    493.4347               554.9174               567.5159
 Red. masses --      2.9749                 3.2729                 4.5655
 Frc consts  --      0.4268                 0.5938                 0.8664
 IR Inten    --     51.6372                61.4242                47.2816

                     31                     32                     33
                      A                      A                      A
 Frequencies --    616.1371               637.8731               638.5033
 Red. masses --      4.8303                 5.9040                 6.2053
 Frc consts  --      1.0804                 1.4153                 1.4905
 IR Inten    --    302.8941                21.3772                 7.1219

                     34                     35                     36
                      A                      A                      A
 Frequencies --    647.9860               693.0486               706.9385
 Red. masses --      3.6280                 1.9136                 4.5558
 Frc consts  --      0.8975                 0.5415                 1.3415
 IR Inten    --     17.3687               100.6687                56.8188

                     37                     38                     39
                      A                      A                      A
 Frequencies --    724.2163               725.2068               779.7825
 Red. masses --      1.6571                 1.6286                 4.7390
 Frc consts  --      0.5121                 0.5047                 1.6978
 IR Inten    --    109.1051                80.0076                28.8199

                     40                     41                     42
                      A                      A                      A
 Frequencies --    789.9833               799.4923               848.7840
 Red. masses --      2.2823                 2.4997                 3.7357
 Frc consts  --      0.8392                 0.9414                 1.5857
 IR Inten    --     85.7219                70.0957                86.2352

                     43                     44                     45
                      A                      A                      A
 Frequencies --    863.7505               876.8890               880.8476
 Red. masses --      1.2742                 1.6888                 2.4503
 Frc consts  --      0.5601                 0.7651                 1.1201
 IR Inten    --      1.8588                 1.3611                 1.0516

                     46                     47                     48
                      A                      A                      A
 Frequencies --    929.8166               966.7254               998.1588
 Red. masses --      1.4572                 1.4412                 3.8079
 Frc consts  --      0.7423                 0.7935                 2.2353
 IR Inten    --      6.7554                 3.8710                27.2898

                     49                     50                     51
                      A                      A                      A
 Frequencies --   1000.9906              1014.9467              1017.6610
 Red. masses --      1.3649                 1.2893                 1.4889
 Frc consts  --      0.8057                 0.7825                 0.9085
 IR Inten    --      0.5015                 0.0317                 2.2062

                     52                     53                     54
                      A                      A                      A
 Frequencies --   1017.9397              1026.7746              1031.5628
 Red. masses --      4.4032                 4.5276                 1.3546
 Frc consts  --      2.6882                 2.8124                 0.8493
 IR Inten    --      8.1951                 2.6681                 0.4795

                     55                     56                     57
                      A                      A                      A
 Frequencies --   1050.5883              1065.2429              1067.9894
 Red. masses --      1.2899                 2.5187                 2.9654
 Frc consts  --      0.8388                 1.6840                 1.9928
 IR Inten    --     19.6498                19.3889                52.9026

                     58                     59                     60
                      A                      A                      A
 Frequencies --   1071.1017              1092.3765              1111.9600
 Red. masses --      2.3381                 1.2245                 2.5951
 Frc consts  --      1.5804                 0.8609                 1.8905
 IR Inten    --     33.6287               104.7637                 1.7756

                     61                     62                     63
                      A                      A                      A
 Frequencies --   1124.0178              1131.1911              1154.7348
 Red. masses --      1.5633                 1.7812                 1.3021
 Frc consts  --      1.1637                 1.3429                 1.0230
 IR Inten    --      3.6080                13.9160                 3.4066

                     64                     65                     66
                      A                      A                      A
 Frequencies --   1185.7341              1185.9815              1196.0484
 Red. masses --      1.1271                 1.1264                 1.7579
 Frc consts  --      0.9337                 0.9334                 1.4816
 IR Inten    --      1.4971                 0.2270                 8.4706

                     67                     68                     69
                      A                      A                      A
 Frequencies --   1212.0266              1219.1022              1223.0166
 Red. masses --      2.1053                 1.1245                 1.6074
 Frc consts  --      1.8221                 0.9847                 1.4166
 IR Inten    --    157.7190                 6.3085                48.3442

                     70                     71                     72
                      A                      A                      A
 Frequencies --   1234.6806              1268.5772              1296.5621
 Red. masses --      1.2742                 3.6229                 2.3605
 Frc consts  --      1.1445                 3.4351                 2.3380
 IR Inten    --     16.2137                38.2511               198.7679

                     73                     74                     75
                      A                      A                      A
 Frequencies --   1311.6973              1320.4159              1329.4043
 Red. masses --      1.3383                 4.5536                 4.7790
 Frc consts  --      1.3567                 4.6777                 4.9762
 IR Inten    --     12.5669                 9.4296                80.5868

                     76                     77                     78
                      A                      A                      A
 Frequencies --   1365.3334              1379.3049              1449.1429
 Red. masses --      1.4322                 1.3940                 1.4774
 Frc consts  --      1.5730                 1.5625                 1.8280
 IR Inten    --      4.8220                18.4577               309.0614

                     79                     80                     81
                      A                      A                      A
 Frequencies --   1457.7626              1472.4619              1476.4176
 Red. masses --      1.2246                 2.0896                 1.0474
 Frc consts  --      1.5332                 2.6693                 1.3452
 IR Inten    --     56.2093               291.2318                 8.6240

                     82                     83                     84
                      A                      A                      A
 Frequencies --   1489.4194              1497.6983              1501.5319
 Red. masses --      2.2394                 1.0496                 1.4490
 Frc consts  --      2.9269                 1.3871                 1.9248
 IR Inten    --     22.9671                 9.6881               114.3603

                     85                     86                     87
                      A                      A                      A
 Frequencies --   1503.2128              1504.5941              1544.6067
 Red. masses --      1.1067                 1.6413                 2.1316
 Frc consts  --      1.4735                 2.1892                 2.9964
 IR Inten    --     26.4042               228.6279               163.8297

                     88                     89                     90
                      A                      A                      A
 Frequencies --   1547.7747              1550.6265              1635.1464
 Red. masses --      2.4315                 1.9831                 3.1392
 Frc consts  --      3.4319                 2.8094                 4.9452
 IR Inten    --     69.6846               452.1088                 8.2381

                     91                     92                     93
                      A                      A                      A
 Frequencies --   1647.9646              1650.6238              1667.8702
 Red. masses --      1.2870                 5.2195                 5.7948
 Frc consts  --      2.0594                 8.3787                 9.4977
 IR Inten    --    103.6949                 1.8996               205.8513

                     94                     95                     96
                      A                      A                      A
 Frequencies --   1674.9304              1696.8434              3049.7140
 Red. masses --      5.9247                 8.3292                 1.0372
 Frc consts  --      9.7928                14.1299                 5.6838
 IR Inten    --      1.3006               500.8009                70.6029

                     97                     98                     99
                      A                      A                      A
 Frequencies --   3069.2510              3110.5519              3151.7534
 Red. masses --      1.0379                 1.1028                 1.0977
 Frc consts  --      5.7607                 6.2866                 6.4247
 IR Inten    --     47.0996                38.9871                 4.3830

                    100                    101                    102
                      A                      A                      A
 Frequencies --   3165.8464              3187.8229              3189.5393
 Red. masses --      1.1017                 1.1067                 1.0857
 Frc consts  --      6.5056                 6.6265                 6.5075
 IR Inten    --     20.4319                10.9273                 9.9362

                    103                    104                    105
                      A                      A                      A
 Frequencies --   3196.8730              3199.7234              3206.9641
 Red. masses --      1.0890                 1.0864                 1.0931
 Frc consts  --      6.5571                 6.5533                 6.6237
 IR Inten    --      5.3659                 0.3655                34.0182

                    106                    107                    108
                      A                      A                      A
 Frequencies --   3209.1106              3219.1421              3220.2310
 Red. masses --      1.0902                 1.0977                 1.0946
 Frc consts  --      6.6151                 6.7021                 6.6878
 IR Inten    --     12.3439                36.6571                26.2606

                    109                    110                    111
                      A                      A                      A
 Frequencies --   3231.6619              3238.3885              3259.9267
 Red. masses --      1.0941                 1.0934                 1.0888
 Frc consts  --      6.7323                 6.7561                 6.8171
 IR Inten    --     11.6877                 3.4666                35.8975

                    112                    113                    114
                      A                      A                      A
 Frequencies --   3524.9951              3603.3501              3686.3068
 Red. masses --      1.0525                 1.0962                 1.0786
 Frc consts  --      7.7053                 8.3857                 8.6353
 IR Inten    --     57.7277                65.2677                66.1521

 - Thermochemistry -
 -------------------
 Temperature   298.150 Kelvin.  Pressure   1.00000 Atm.
 Atom     1 has atomic number  6 and mass  12.00000

 Molecular mass:   346.06807 amu.
 Principal axes and moments of inertia in atomic units:
                           1         2         3
     Eigenvalues --  5164.025448085.82275**********
           X            1.00000  -0.00177   0.00066
           Y            0.00179   0.99952  -0.03098
           Z           -0.00060   0.03098   0.99952
 This molecule is an asymmetric top.
 Rotational symmetry number  1.
 Warning -- assumption of classical behavior for rotation
           may cause significant error
 Rotational temperatures (Kelvin)      0.01677     0.01071     0.00813
 Rotational constants (GHZ):           0.34948     0.22320     0.16933
    1 imaginary frequencies ignored.
 Zero-point vibrational energy     864953.2 (Joules/Mol)
                                  206.72879 (Kcal/Mol)
 Warning -- explicit consideration of  30 degrees of freedom as
           vibrations may cause significant error
 Vibrational temperatures:     36.12    53.29    81.59    96.60   105.07
          (Kelvin)            122.74   130.47   164.68   169.79   199.17
                              209.74   244.43   258.49   280.05   309.10
                              338.23   354.31   357.53   399.20   453.83
                              471.23   512.25   604.71   613.47   616.88
                              690.19   709.94   798.40   816.53   886.48
                              917.76   918.66   932.31   997.14  1017.13
                             1041.99  1043.41  1121.93  1136.61  1150.29
                             1221.21  1242.74  1261.65  1267.34  1337.80
                             1390.90  1436.13  1440.20  1460.28  1464.19
                             1464.59  1477.30  1484.19  1511.56  1532.65
                             1536.60  1541.08  1571.69  1599.86  1617.21
                             1627.53  1661.41  1706.01  1706.36  1720.85
                             1743.84  1754.02  1759.65  1776.43  1825.20
                             1865.46  1887.24  1899.78  1912.72  1964.41
                             1984.51  2084.99  2097.40  2118.54  2124.24
                             2142.94  2154.85  2160.37  2162.79  2164.78
                             2222.34  2226.90  2231.01  2352.61  2371.05
                             2374.88  2399.69  2409.85  2441.38  4387.86
                             4415.97  4475.39  4534.67  4554.95  4586.57
                             4589.04  4599.59  4603.69  4614.11  4617.19
                             4631.63  4633.19  4649.64  4659.32  4690.31
                             5071.68  5184.42  5303.77

 Zero-point correction=                           0.329443 (Hartree/Particle)
 Thermal correction to Energy=                    0.350063
 Thermal correction to Enthalpy=                  0.351007
 Thermal correction to Gibbs Free Energy=         0.278622
 Sum of electronic and zero-point Energies=          -3417.855188
 Sum of electronic and thermal Energies=             -3417.834568
 Sum of electronic and thermal Enthalpies=           -3417.833624
 Sum of electronic and thermal Free Energies=        -3417.906009

                     E (Thermal)             CV                S
                      KCal/Mol        Cal/Mol-Kelvin    Cal/Mol-Kelvin
 Total                  219.668             76.487            152.347
 Electronic               0.000              0.000              0.000
 Translational            0.889              2.981             43.419
 Rotational               0.889              2.981             34.453
 Vibrational            217.890             70.526             74.476
 Vibration     1          0.593              1.985              6.183
 Vibration     2          0.594              1.982              5.412
 Vibration     3          0.596              1.975              4.569
 Vibration     4          0.598              1.970              4.235
 Vibration     5          0.599              1.967              4.070
 Vibration     6          0.601              1.959              3.765
 Vibration     7          0.602              1.956              3.645
 Vibration     8          0.607              1.937              3.192
 Vibration     9          0.608              1.934              3.133
 Vibration    10          0.614              1.915              2.825
 Vibration    11          0.617              1.907              2.727
 Vibration    12          0.625              1.880              2.437
 Vibration    13          0.629              1.867              2.332
 Vibration    14          0.635              1.847              2.183
 Vibration    15          0.645              1.818              2.002
 Vibration    16          0.655              1.787              1.840
 Vibration    17          0.661              1.769              1.757
 Vibration    18          0.662              1.765              1.741
 Vibration    19          0.678              1.715              1.549
 Vibration    20          0.703              1.644              1.334
 Vibration    21          0.711              1.620              1.272
 Vibration    22          0.732              1.563              1.139
 Vibration    23          0.783              1.426              0.891
 Vibration    24          0.788              1.413              0.871
 Vibration    25          0.790              1.408              0.863
 Vibration    26          0.836              1.295              0.711
 Vibration    27          0.849              1.265              0.675
 Vibration    28          0.910              1.129              0.534
 Vibration    29          0.923              1.102              0.509
 Vibration    30          0.976              0.998              0.423

 Optimization completed.
    -- Stationary point found.
 Normal termination of Gaussian 16 at Mon Apr 12 00:50:37 2021.
