 Gaussian 16, Revision A.03,
 Gaussian 16:  ES64L-G16RevA.03 25-Dec-2016

 ----------------------------------------------------------------------
 # wB97XD def2tzvp, opt=(ts, noeigen, calcfc, maxcycles=70, maxstep=8),
  freq=noraman, scrf=(iefpcm, solvent=water)
 ----------------------------------------------------------------------

 ------------------------
 1_iteration/TS-680-1.out
 ------------------------
 Symbolic Z-matrix:
 Charge =  0 Multiplicity = 1

 SCF Done:  E(RwB97XD) =  -3552.06115524     A.U. after   15 cycles
 SCF Done:  E(RwB97XD) =  -3552.06125337     A.U. after   12 cycles
 SCF Done:  E(RwB97XD) =  -3552.06126263     A.U. after   11 cycles
 SCF Done:  E(RwB97XD) =  -3552.06126069     A.U. after   11 cycles
 SCF Done:  E(RwB97XD) =  -3552.06126379     A.U. after   10 cycles
 SCF Done:  E(RwB97XD) =  -3552.06126384     A.U. after    7 cycles
 Optimization completed on the basis of negligible forces.
    -- Stationary point found.
 Normal termination of Gaussian 16 at Fri Feb 19 12:15:22 2021.

 ---------------------------------------------------------------------
 #N Geom=AllCheck Guess=TCheck SCRF=Check GenChk RwB97XD/def2TZVP Freq
 ---------------------------------------------------------------------

 Structure from the checkpoint file:  "/beegfs/scratch/user/q/tla25/Gau-26502.chk"
 ------------------------
 1_iteration/TS-680-1.out
 ------------------------
 Charge =  0 Multiplicity = 1

                         Standard orientation:
 ---------------------------------------------------------------------
 Center     Atomic      Atomic             Coordinates (Angstroms)
 Number     Number       Type             X           Y           Z
 ---------------------------------------------------------------------
      1          6           0       -0.205305   -0.124737   -0.116191
      2          6           0        0.886757    0.666954   -0.623315
      3          8           0        0.689869    1.631995   -1.364976
      4          6           0       -1.487637    0.269588   -0.419797
      5          6           0       -3.327070    2.376178    0.633057
      6          1           0       -3.539057    3.142371    1.380713
      7          1           0       -3.207524    2.854491   -0.338311
      8          1           0       -4.169286    1.688132    0.584394
      9          7           0       -2.115074    1.626966    0.947183
     10          1           0       -1.302356    2.229235    1.001349
     11          1           0       -2.192731    1.122910    1.822525
     12         35           0       -2.945337   -0.941496   -0.368012
     13          1           0       -1.587591    0.993870   -1.214253
     14         17           0        0.077876   -1.486837    0.937599
     15          6           0        2.304563    0.319290   -0.271017
     16          6           0        2.756987    0.353424    1.043643
     17          6           0        4.093628    0.117563    1.327244
     18          6           0        4.982368   -0.174906    0.302070
     19          6           0        4.533753   -0.214473   -1.010722
     20          6           0        3.202139    0.044455   -1.297345
     21          1           0        2.065661    0.573308    1.847483
     22          1           0        4.440965    0.158896    2.351810
     23          1           0        6.023707   -0.368943    0.525848
     24          1           0        5.223275   -0.441328   -1.813978
     25          1           0        2.853290    0.030920   -2.322578
 ---------------------------------------------------------------------

 SCF Done:  E(RwB97XD) =  -3552.06126384     A.U. after    1 cycles

 The electronic state is 1-A.
 Alpha  occ. eigenvalues -- -483.14274-101.69637 -62.69127 -56.48247 -56.47892
 Alpha  occ. eigenvalues --  -56.47867 -19.22532 -14.47705 -10.38974 -10.37599
 Alpha  occ. eigenvalues --  -10.32572 -10.31694 -10.30194 -10.29554 -10.29505
 Alpha  occ. eigenvalues --  -10.29315 -10.29263 -10.29228  -9.58169  -8.83250
 Alpha  occ. eigenvalues --   -7.32813  -7.31947  -7.31938  -6.65424  -6.64285
 Alpha  occ. eigenvalues --   -6.64204  -2.75815  -2.75492  -2.75429  -2.74508
 Alpha  occ. eigenvalues --   -2.74507  -1.13519  -1.03208  -0.98192  -0.96841
 Alpha  occ. eigenvalues --   -0.91972  -0.86765  -0.85489  -0.83792  -0.78635
 Alpha  occ. eigenvalues --   -0.75163  -0.70871  -0.69057  -0.63946  -0.62855
 Alpha  occ. eigenvalues --   -0.61104  -0.57628  -0.56491  -0.55572  -0.54546
 Alpha  occ. eigenvalues --   -0.53877  -0.53223  -0.51387  -0.50332  -0.49127
 Alpha  occ. eigenvalues --   -0.48262  -0.47799  -0.46675  -0.44990  -0.44412
 Alpha  occ. eigenvalues --   -0.43037  -0.42113  -0.41228  -0.38032  -0.37326
 Alpha  occ. eigenvalues --   -0.35049  -0.33943  -0.32821  -0.28687
 Alpha virt. eigenvalues --    0.00806   0.05043   0.05563   0.05915   0.09898
 Alpha virt. eigenvalues --    0.12330   0.13262   0.14195   0.14629   0.15748
 Alpha virt. eigenvalues --    0.16156   0.17129   0.17703   0.18971   0.19485

 Mulliken charges:
               1
     1  C   -0.136295
     2  C    0.274035
     3  O   -0.482172
     4  C   -0.053987
     5  C   -0.265363
     6  H    0.150270
     7  H    0.150013
     8  H    0.147639
     9  N   -0.383259
    10  H    0.282341
    11  H    0.282828
    12  Br  -0.039629
    13  H    0.190732
    14  Cl  -0.133726
    15  C    0.192907
    16  C   -0.257861
    17  C   -0.128019
    18  C   -0.144707
    19  C   -0.142205
    20  C   -0.242296
    21  H    0.156774
    22  H    0.145431
    23  H    0.146718
    24  H    0.144983
    25  H    0.144852
 Sum of Mulliken charges =  -0.00000

 Dipole moment (field-independent basis, Debye):
    X=             -3.8618    Y=              2.9208    Z=              4.1363  Tot=              6.3682
 Quadrupole moment (field-independent basis, Debye-Ang):
   XX=            -82.6617   YY=           -103.1317   ZZ=            -96.5650
   XY=            -14.0896   XZ=             -2.9068   YZ=             10.0721

  Exact polarizability: 307.683 -16.889 186.162  -9.486  -0.649 205.781
 Approx polarizability: 218.684  -8.939 161.451  -4.699  -4.285 181.953

 ******    1 imaginary frequencies (negative Signs) ******

                      1                      2                      3
                      A                      A                      A
 Frequencies --   -354.9813                27.6632                35.5620
 Red. masses --      6.5431                 6.0526                 4.0005
 Frc consts  --      0.4858                 0.0027                 0.0030
 IR Inten    --    948.2360                 5.6273                 1.1682

                      4                      5                      6
                      A                      A                      A
 Frequencies --     44.1316                50.7059                75.7796
 Red. masses --      2.7756                 3.5073                 6.3356
 Frc consts  --      0.0032                 0.0053                 0.0214
 IR Inten    --      1.6479                 4.6404                 3.0739

                      7                      8                      9
                      A                      A                      A
 Frequencies --    100.3814               148.0809               156.3614
 Red. masses --      4.7384                 3.0380                 2.7076
 Frc consts  --      0.0281                 0.0392                 0.0390
 IR Inten    --      5.0607                 2.8248                 6.1131

                     10                     11                     12
                      A                      A                      A
 Frequencies --    179.7590               195.6636               204.8526
 Red. masses --      2.6331                 5.6616                 6.2084
 Frc consts  --      0.0501                 0.1277                 0.1535
 IR Inten    --      2.5204                15.7317                13.4853

                     13                     14                     15
                      A                      A                      A
 Frequencies --    241.7966               273.6985               364.7149
 Red. masses --      5.4939                 3.6662                 8.6719
 Frc consts  --      0.1892                 0.1618                 0.6796
 IR Inten    --      2.2724                 3.7116                 7.9781

                     16                     17                     18
                      A                      A                      A
 Frequencies --    411.3338               416.3722               472.0838
 Red. masses --      6.1935                 2.9045                 7.7835
 Frc consts  --      0.6174                 0.2967                 1.0220
 IR Inten    --     54.4232                 0.4053                99.0819

                     19                     20                     21
                      A                      A                      A
 Frequencies --    560.5740               577.3151               615.5057
 Red. masses --      6.4944                 1.4908                 4.6282
 Frc consts  --      1.2024                 0.2927                 1.0331
 IR Inten    --     16.8056                17.4402                45.8583

                     22                     23                     24
                      A                      A                      A
 Frequencies --    635.3797               682.7331               724.8906
 Red. masses --      6.3964                 4.5896                 1.5932
 Frc consts  --      1.5214                 1.2604                 0.4932
 IR Inten    --      1.5380                81.5494                93.9706

                     25                     26                     27
                      A                      A                      A
 Frequencies --    748.0235               756.7862               818.8931
 Red. masses --      4.3702                 4.3268                 2.8114
 Frc consts  --      1.4407                 1.4600                 1.1108
 IR Inten    --     50.4423                83.8787                16.4985

                     28                     29                     30
                      A                      A                      A
 Frequencies --    879.4614               916.1743               962.7871
 Red. masses --      1.2470                 4.1558                 1.4725
 Frc consts  --      0.5683                 2.0552                 0.8042
 IR Inten    --      0.5725                21.6519                 3.9504

                     31                     32                     33
                      A                      A                      A
 Frequencies --    997.9784              1005.7991              1012.4184
 Red. masses --      1.0815                 1.1081                 1.3772
 Frc consts  --      0.6346                 0.6605                 0.8317
 IR Inten    --     22.0310               143.4682                 0.5315

                     34                     35                     36
                      A                      A                      A
 Frequencies --   1026.0432              1031.7676              1059.1361
 Red. masses --      6.0639                 1.3151                 2.3722
 Frc consts  --      3.7613                 0.8249                 1.5679
 IR Inten    --      2.7169                 0.2744                64.3950

                     37                     38                     39
                      A                      A                      A
 Frequencies --   1068.8957              1101.8173              1112.5403
 Red. masses --      3.3301                 1.2029                 1.5520
 Frc consts  --      2.2417                 0.8604                 1.1318
 IR Inten    --    190.3974                43.6594                 8.4687

                     40                     41                     42
                      A                      A                      A
 Frequencies --   1150.9076              1184.9368              1202.2491
 Red. masses --      3.0591                 1.1398                 1.4244
 Frc consts  --      2.3874                 0.9429                 1.2131
 IR Inten    --     45.5702                 0.1277                13.5436

                     43                     44                     45
                      A                      A                      A
 Frequencies --   1208.6825              1231.8962              1317.1418
 Red. masses --      1.1236                 1.4444                 4.3830
 Frc consts  --      0.9671                 1.2914                 4.4801
 IR Inten    --      3.7438                21.7616               136.0794

                     46                     47                     48
                      A                      A                      A
 Frequencies --   1334.5656              1342.3557              1361.8957
 Red. masses --      5.6330                 1.3645                 1.4393
 Frc consts  --      5.9111                 1.4487                 1.5729
 IR Inten    --    218.0325                27.6349                10.6552

                     49                     50                     51
                      A                      A                      A
 Frequencies --   1405.0927              1462.2656              1489.3266
 Red. masses --      5.4751                 1.2186                 2.2222
 Frc consts  --      6.3687                 1.5353                 2.9042
 IR Inten    --   1668.9959                57.4920                22.7817

                     52                     53                     54
                      A                      A                      A
 Frequencies --   1490.4067              1504.2981              1541.8756
 Red. masses --      1.0428                 1.0319                 2.3177
 Frc consts  --      1.3647                 1.3759                 3.2464
 IR Inten    --     14.6970                10.6791                 2.7977

                     55                     56                     57
                      A                      A                      A
 Frequencies --   1640.2373              1646.1618              1661.1498
 Red. masses --      1.1821                 4.8417                 8.3413
 Frc consts  --      1.8737                 7.7302                13.5614
 IR Inten    --     34.1521               135.3262               241.1590

                     58                     59                     60
                      A                      A                      A
 Frequencies --   1675.1060              3061.8412              3137.1956
 Red. masses --      5.8485                 1.0347                 1.1033
 Frc consts  --      9.6689                 5.7151                 6.3978
 IR Inten    --      7.5940                59.1862                17.8674

                     61                     62                     63
                      A                      A                      A
 Frequencies --   3161.1151              3194.6228              3200.1458
 Red. masses --      1.1054                 1.0858                 1.0881
 Frc consts  --      6.5078                 6.5290                 6.5653
 IR Inten    --     14.7431                 1.0642                 0.1064

                     64                     65                     66
                      A                      A                      A
 Frequencies --   3207.0545              3214.5961              3222.9782
 Red. masses --      1.0919                 1.0955                 1.0990
 Frc consts  --      6.6169                 6.6696                 6.7261
 IR Inten    --     11.2256                35.2245                17.4821

                     67                     68                     69
                      A                      A                      A
 Frequencies --   3240.0968              3529.7045              3615.0867
 Red. masses --      1.0904                 1.0503                 1.0967
 Frc consts  --      6.7446                 7.7098                 8.4448
 IR Inten    --      7.6928                26.1290                45.2419

 - Thermochemistry -
 -------------------
 Temperature   298.150 Kelvin.  Pressure   1.00000 Atm.
 Atom     1 has atomic number  6 and mass  12.00000

 Molecular mass:   274.97125 amu.
 Principal axes and moments of inertia in atomic units:
                           1         2         3
     Eigenvalues --  1858.383538150.583628654.57476
           X            0.99941  -0.03267  -0.01095
           Y            0.03328   0.99759   0.06091
           Z            0.00893  -0.06124   0.99808
 This molecule is an asymmetric top.
 Rotational symmetry number  1.
 Warning -- assumption of classical behavior for rotation
           may cause significant error
 Rotational temperatures (Kelvin)      0.04661     0.01063     0.01001
 Rotational constants (GHZ):           0.97113     0.22142     0.20853
    1 imaginary frequencies ignored.
 Zero-point vibrational energy     504398.5 (Joules/Mol)
                                  120.55414 (Kcal/Mol)
 Warning -- explicit consideration of  20 degrees of freedom as
           vibrations may cause significant error
 Vibrational temperatures:     39.80    51.17    63.50    72.95   109.03
          (Kelvin)            144.43   213.06   224.97   258.63   281.52
                              294.74   347.89   393.79   524.74   591.82
                              599.07   679.22   806.54   830.63   885.58
                              914.17   982.30  1042.96  1076.24  1088.85
                             1178.20  1265.35  1318.17  1385.24  1435.87
                             1447.12  1456.64  1476.25  1484.48  1523.86
                             1537.90  1585.27  1600.70  1655.90  1704.86
                             1729.77  1739.02  1772.42  1895.07  1920.14
                             1931.35  1959.46  2021.61  2103.87  2142.81
                             2144.36  2164.35  2218.42  2359.94  2368.46
                             2390.02  2410.10  4405.31  4513.72  4548.14
                             4596.35  4604.30  4614.24  4625.09  4637.15
                             4661.78  5078.46  5201.30

 Zero-point correction=                           0.192115 (Hartree/Particle)
 Thermal correction to Energy=                    0.206750
 Thermal correction to Enthalpy=                  0.207695
 Thermal correction to Gibbs Free Energy=         0.146740
 Sum of electronic and zero-point Energies=          -3551.869149
 Sum of electronic and thermal Energies=             -3551.854513
 Sum of electronic and thermal Enthalpies=           -3551.853569
 Sum of electronic and thermal Free Energies=        -3551.914523

                     E (Thermal)             CV                S
                      KCal/Mol        Cal/Mol-Kelvin    Cal/Mol-Kelvin
 Total                  129.738             50.890            128.289
 Electronic               0.000              0.000              0.000
 Translational            0.889              2.981             42.733
 Rotational               0.889              2.981             33.238
 Vibrational            127.960             44.928             52.317
 Vibration     1          0.593              1.984              5.990
 Vibration     2          0.594              1.982              5.492
 Vibration     3          0.595              1.980              5.064
 Vibration     4          0.595              1.977              4.790
 Vibration     5          0.599              1.965              3.997
 Vibration     6          0.604              1.949              3.447
 Vibration     7          0.617              1.905              2.697
 Vibration     8          0.620              1.896              2.593
 Vibration     9          0.629              1.867              2.331
 Vibration    10          0.636              1.846              2.173
 Vibration    11          0.640              1.833              2.089
 Vibration    12          0.658              1.776              1.790
 Vibration    13          0.676              1.722              1.573
 Vibration    14          0.738              1.545              1.102
 Vibration    15          0.775              1.446              0.922
 Vibration    16          0.780              1.435              0.904
 Vibration    17          0.829              1.312              0.732
 Vibration    18          0.916              1.117              0.523
 Vibration    19          0.934              1.080              0.490
 Vibration    20          0.975              0.999              0.424

 Optimization completed.
    -- Stationary point found.
 Normal termination of Gaussian 16 at Fri Feb 19 12:54:09 2021.
