 Gaussian 16, Revision A.03,
 Gaussian 16:  ES64L-G16RevA.03 25-Dec-2016

 ----------------------------------------------------------------------
 # wB97XD def2tzvp, opt=(ts, noeigen, calcfc, maxcycles=70, maxstep=5),
  freq=noraman, scrf=(iefpcm, solvent=water)
 ----------------------------------------------------------------------

 ------------------------
 2_iteration/TS-637-2.out
 ------------------------
 Symbolic Z-matrix:
 Charge =  0 Multiplicity = 1

 SCF Done:  E(RwB97XD) =  -3646.74618897     A.U. after   15 cycles
 SCF Done:  E(RwB97XD) =  -3646.74623261     A.U. after   11 cycles
 SCF Done:  E(RwB97XD) =  -3646.74623482     A.U. after    9 cycles
 SCF Done:  E(RwB97XD) =  -3646.74623487     A.U. after    8 cycles
 SCF Done:  E(RwB97XD) =  -3646.74623478     A.U. after    7 cycles
 SCF Done:  E(RwB97XD) =  -3646.74623484     A.U. after    7 cycles
 Optimization completed.
    -- Stationary point found.
 Normal termination of Gaussian 16 at Sat Feb 20 21:31:44 2021.

 ---------------------------------------------------------------------
 #N Geom=AllCheck Guess=TCheck SCRF=Check GenChk RwB97XD/def2TZVP Freq
 ---------------------------------------------------------------------

 Structure from the checkpoint file:  "/beegfs/scratch/user/q/tla25/Gau-120184.chk"
 ------------------------
 2_iteration/TS-637-2.out
 ------------------------
 Charge =  0 Multiplicity = 1

                         Standard orientation:
 ---------------------------------------------------------------------
 Center     Atomic      Atomic             Coordinates (Angstroms)
 Number     Number       Type             X           Y           Z
 ---------------------------------------------------------------------
      1          6           0        1.167369   -0.135763   -0.135273
      2          6           0        1.649811    1.239585   -0.042146
      3          8           0        0.953632    2.171660    0.374949
      4          6           0       -0.132752   -0.524425    0.152893
      5          6           0        0.463005   -0.351648    2.871445
      6          1           0        0.687974   -0.894174    3.788319
      7          1           0        1.390472    0.011178    2.429801
      8          1           0       -0.175410    0.498518    3.095409
      9          7           0       -0.190407   -1.224594    1.898789
     10          1           0        0.338081   -2.083232    1.786000
     11          1           0       -1.129741   -1.491887    2.173730
     12         35           0       -0.753229   -2.214259   -0.716068
     13          6           0       -1.253727    0.469544    0.034873
     14          6           0       -1.416852    1.083692   -1.208014
     15          6           0       -2.445202    1.979148   -1.427568
     16          6           0       -3.342144    2.276675   -0.408852
     17          6           0       -3.197932    1.660765    0.821471
     18          6           0       -2.165319    0.757651    1.040641
     19          1           0       -0.719776    0.855376   -2.003767
     20          1           0       -2.548028    2.447722   -2.398026
     21          1           0       -4.148443    2.978813   -0.577547
     22          1           0       -3.890712    1.877149    1.624493
     23          1           0       -2.096293    0.305689    2.018165
     24         17           0        2.380536   -1.397180   -0.348249
     25          7           0        2.925783    1.472133   -0.439961
     26          6           0        3.500221    2.794716   -0.397520
     27          1           0        3.469058    0.719134   -0.818550
     28          1           0        4.549660    2.724952   -0.676152
     29          1           0        2.999511    3.477648   -1.087987
     30          1           0        3.431993    3.218564    0.605632
 ---------------------------------------------------------------------

 SCF Done:  E(RwB97XD) =  -3646.74623484     A.U. after    1 cycles

 The electronic state is 1-A.
 Alpha  occ. eigenvalues -- -483.12920-101.69443 -62.67759 -56.46874 -56.46526
 Alpha  occ. eigenvalues --  -56.46511 -19.19907 -14.50240 -14.44505 -10.40896
 Alpha  occ. eigenvalues --  -10.38232 -10.32186 -10.31740 -10.31431 -10.30647
 Alpha  occ. eigenvalues --  -10.29861 -10.29396 -10.29386 -10.29290 -10.29232
 Alpha  occ. eigenvalues --   -9.57982  -8.81853  -7.32598  -7.31788  -7.31754
 Alpha  occ. eigenvalues --   -6.63987  -6.62891  -6.62843  -2.74366  -2.74070
 Alpha  occ. eigenvalues --   -2.74032  -2.73145  -2.73145  -1.12957  -1.05717
 Alpha  occ. eigenvalues --   -1.01472  -0.98373  -0.96395  -0.91375  -0.86062
 Alpha  occ. eigenvalues --   -0.85682  -0.82690  -0.79961  -0.79689  -0.72472
 Alpha  occ. eigenvalues --   -0.71155  -0.68570  -0.65644  -0.65383  -0.61742
 Alpha  occ. eigenvalues --   -0.59209  -0.58033  -0.56867  -0.55443  -0.54529
 Alpha  occ. eigenvalues --   -0.54068  -0.52808  -0.51764  -0.51273  -0.51236
 Alpha  occ. eigenvalues --   -0.49015  -0.47668  -0.47348  -0.47153  -0.46607
 Alpha  occ. eigenvalues --   -0.45252  -0.43915  -0.43274  -0.42073  -0.41127
 Alpha  occ. eigenvalues --   -0.37646  -0.37372  -0.35133  -0.34322  -0.33086
 Alpha  occ. eigenvalues --   -0.31818  -0.27480
 Alpha virt. eigenvalues --    0.01193   0.04922   0.05586   0.07531   0.10404
 Alpha virt. eigenvalues --    0.12138   0.12570   0.13706   0.14468   0.15215
 Alpha virt. eigenvalues --    0.15818   0.16206   0.16763   0.17795   0.18545

 Mulliken charges:
               1
     1  C   -0.272254
     2  C    0.379747
     3  O   -0.534784
     4  C    0.171419
     5  C   -0.291699
     6  H    0.166238
     7  H    0.162772
     8  H    0.156367
     9  N   -0.310480
    10  H    0.289339
    11  H    0.295285
    12  Br  -0.136288
    13  C    0.280409
    14  C   -0.307522
    15  C   -0.122695
    16  C   -0.150887
    17  C   -0.168228
    18  C   -0.236170
    19  H    0.155545
    20  H    0.144549
    21  H    0.145595
    22  H    0.144651
    23  H    0.139196
    24  Cl  -0.168068
    25  N   -0.323017
    26  C   -0.247172
    27  H    0.246799
    28  H    0.139882
    29  H    0.125048
    30  H    0.126422
 Sum of Mulliken charges =  -0.00000

 Dipole moment (field-independent basis, Debye):
    X=             -0.5527    Y=             -2.5393    Z=              4.7228  Tot=              5.3906
 Quadrupole moment (field-independent basis, Debye-Ang):
   XX=           -101.1812   YY=           -119.5908   ZZ=            -96.9705
   XY=             -0.4290   XZ=             -5.2315   YZ=            -13.0637

  Exact polarizability: 275.416 -12.434 266.111 -19.385  -6.817 235.883
 Approx polarizability: 215.626 -13.903 213.673 -16.648  -4.094 203.490

 ******    1 imaginary frequencies (negative Signs) ******

                      1                      2                      3
                      A                      A                      A
 Frequencies --   -355.3771                37.8259                44.0652
 Red. masses --      5.4313                 3.8710                 4.3833
 Frc consts  --      0.4041                 0.0033                 0.0050
 IR Inten    --    561.4306                 9.6951                 0.1846

                      4                      5                      6
                      A                      A                      A
 Frequencies --     60.4567                75.9223                79.5030
 Red. masses --      5.5984                 1.5022                 5.0072
 Frc consts  --      0.0121                 0.0051                 0.0186
 IR Inten    --      0.6591                 2.0283                 9.8624

                      7                      8                      9
                      A                      A                      A
 Frequencies --    113.9543               119.7405               132.4912
 Red. masses --      4.7551                 2.1714                 4.2229
 Frc consts  --      0.0364                 0.0183                 0.0437
 IR Inten    --      6.2600                 0.9764                15.5240

                     10                     11                     12
                      A                      A                      A
 Frequencies --    143.2484               164.5687               171.3503
 Red. masses --      2.4071                 1.9789                 3.1539
 Frc consts  --      0.0291                 0.0316                 0.0546
 IR Inten    --      1.9498                 7.2076                 6.1699

                     13                     14                     15
                      A                      A                      A
 Frequencies --    195.9284               232.3645               249.9568
 Red. masses --      4.5321                 3.0003                 7.8946
 Frc consts  --      0.1025                 0.0954                 0.2906
 IR Inten    --      2.5434                 6.0149                19.8712

                     16                     17                     18
                      A                      A                      A
 Frequencies --    272.7169               280.9041               305.4384
 Red. masses --      4.6579                 5.0362                 3.4336
 Frc consts  --      0.2041                 0.2341                 0.1887
 IR Inten    --      2.0306                11.2858                15.1310

                     19                     20                     21
                      A                      A                      A
 Frequencies --    327.1354               364.7624               406.5940
 Red. masses --      4.1192                 3.5503                 1.4279
 Frc consts  --      0.2597                 0.2783                 0.1391
 IR Inten    --     35.7636                60.0769                67.1212

                     22                     23                     24
                      A                      A                      A
 Frequencies --    423.1679               451.0407               509.0445
 Red. masses --      2.8694                10.6437                 3.6975
 Frc consts  --      0.3027                 1.2758                 0.5645
 IR Inten    --      0.2025                15.3913                26.9194

                     25                     26                     27
                      A                      A                      A
 Frequencies --    562.9434               603.6436               639.9588
 Red. masses --      4.2454                 3.1657                 6.2669
 Frc consts  --      0.7927                 0.6797                 1.5122
 IR Inten    --    142.9875                29.2279                12.3167

                     28                     29                     30
                      A                      A                      A
 Frequencies --    663.8245               709.8227               719.6265
 Red. masses --      4.2871                 2.3388                 1.5511
 Frc consts  --      1.1131                 0.6943                 0.4733
 IR Inten    --    182.5922                88.0269               135.6473

                     31                     32                     33
                      A                      A                      A
 Frequencies --    775.0942               781.1996               833.3385
 Red. masses --      6.6989                 2.6958                 3.5198
 Frc consts  --      2.3712                 0.9693                 1.4402
 IR Inten    --     45.4181                38.9303                30.1294

                     34                     35                     36
                      A                      A                      A
 Frequencies --    865.7624               872.7045               950.9804
 Red. masses --      1.2764                 4.3515                 1.4632
 Frc consts  --      0.5637                 1.9526                 0.7796
 IR Inten    --      1.5687                80.4140                 0.2876

                     37                     38                     39
                      A                      A                      A
 Frequencies --   1001.1425              1010.7280              1016.4254
 Red. masses --      1.3113                 1.4396                 2.4928
 Frc consts  --      0.7744                 0.8665                 1.5173
 IR Inten    --     22.2643                 4.6157                16.7819

                     40                     41                     42
                      A                      A                      A
 Frequencies --   1026.1824              1029.1615              1066.4053
 Red. masses --      4.8022                 1.3171                 2.2218
 Frc consts  --      2.9795                 0.8220                 1.4887
 IR Inten    --      2.1560                 0.6427                 7.8415

                     43                     44                     45
                      A                      A                      A
 Frequencies --   1069.5192              1081.9122              1125.4915
 Red. masses --      2.9508                 1.4270                 1.6749
 Frc consts  --      1.9887                 0.9841                 1.2500
 IR Inten    --      4.3151               137.9388                12.0596

                     46                     47                     48
                      A                      A                      A
 Frequencies --   1141.0303              1157.0560              1186.5258
 Red. masses --      3.9743                 1.2904                 1.1342
 Frc consts  --      3.0486                 1.0179                 0.9408
 IR Inten    --     28.4230                 2.1935                 0.1204

                     49                     50                     51
                      A                      A                      A
 Frequencies --   1188.8228              1220.8661              1221.7269
 Red. masses --      1.7264                 2.3493                 1.2996
 Frc consts  --      1.4375                 2.0631                 1.1429
 IR Inten    --     32.9555               102.1779                26.3232

                     52                     53                     54
                      A                      A                      A
 Frequencies --   1242.6169              1302.2200              1319.1814
 Red. masses --      1.4947                 2.4781                 4.5248
 Frc consts  --      1.3598                 2.4759                 4.6394
 IR Inten    --     27.2764               555.3681                52.5861

                     55                     56                     57
                      A                      A                      A
 Frequencies --   1344.0792              1364.7446              1428.3229
 Red. masses --      1.3074                 1.4322                 3.6736
 Frc consts  --      1.3916                 1.5717                 4.4156
 IR Inten    --     12.8792                 4.4913               594.8067

                     58                     59                     60
                      A                      A                      A
 Frequencies --   1457.7202              1464.3731              1474.9102
 Red. masses --      1.1930                 1.3546                 1.0616
 Frc consts  --      1.4936                 1.7115                 1.3607
 IR Inten    --     23.6347                67.2758                13.8803

                     61                     62                     63
                      A                      A                      A
 Frequencies --   1491.0526              1493.0562              1503.2635
 Red. masses --      2.1941                 1.0384                 1.0559
 Frc consts  --      2.8740                 1.3639                 1.4058
 IR Inten    --     46.8323                15.0730                13.8390

                     64                     65                     66
                      A                      A                      A
 Frequencies --   1507.2393              1545.0883              1564.6829
 Red. masses --      1.0715                 2.3368                 1.8756
 Frc consts  --      1.4342                 3.2868                 2.7055
 IR Inten    --     14.1473                32.1561               720.3042

                     67                     68                     69
                      A                      A                      A
 Frequencies --   1643.5451              1654.8573              1660.1670
 Red. masses --      1.2384                 3.6416                 7.5999
 Frc consts  --      1.9709                 5.8757                12.3414
 IR Inten    --    109.0442                64.0155               428.4870

                     70                     71                     72
                      A                      A                      A
 Frequencies --   1674.8457              3046.8673              3079.9738
 Red. masses --      5.8148                 1.0378                 1.0334
 Frc consts  --      9.6102                 5.6765                 5.7756
 IR Inten    --      0.8574                83.8167                30.6995

                     73                     74                     75
                      A                      A                      A
 Frequencies --   3105.9424              3158.7734              3159.0247
 Red. masses --      1.1018                 1.1048                 1.1015
 Frc consts  --      6.2623                 6.4951                 6.4763
 IR Inten    --     44.0457                 5.4891                23.7659

                     76                     77                     78
                      A                      A                      A
 Frequencies --   3183.2548              3198.6114              3206.6629
 Red. masses --      1.1054                 1.0861                 1.0893
 Frc consts  --      6.5997                 6.5470                 6.5996
 IR Inten    --     12.7159                 0.5403                 5.2097

                     79                     80                     81
                      A                      A                      A
 Frequencies --   3215.6888              3224.1855              3247.3761
 Red. masses --      1.0937                 1.0980                 1.0920
 Frc consts  --      6.6634                 6.7249                 6.7846
 IR Inten    --     22.1259                21.9926                18.5230

                     82                     83                     84
                      A                      A                      A
 Frequencies --   3517.2619              3591.8563              3694.1038
 Red. masses --      1.0516                 1.0957                 1.0777
 Frc consts  --      7.6648                 8.3287                 8.6647
 IR Inten    --     51.9904                55.0217                85.4239

 - Thermochemistry -
 -------------------
 Temperature   298.150 Kelvin.  Pressure   1.00000 Atm.
 Atom     1 has atomic number  6 and mass  12.00000

 Molecular mass:   303.99780 amu.
 Principal axes and moments of inertia in atomic units:
                           1         2         3
     Eigenvalues --  4434.714555099.154367236.45735
           X            0.99990  -0.00996  -0.00974
           Y            0.00944   0.99859  -0.05216
           Z            0.01024   0.05206   0.99859
 This molecule is an asymmetric top.
 Rotational symmetry number  1.
 Warning -- assumption of classical behavior for rotation
           may cause significant error
 Rotational temperatures (Kelvin)      0.01953     0.01699     0.01197
 Rotational constants (GHZ):           0.40696     0.35393     0.24940
    1 imaginary frequencies ignored.
 Zero-point vibrational energy     624747.5 (Joules/Mol)
                                  149.31824 (Kcal/Mol)
 Warning -- explicit consideration of  25 degrees of freedom as
           vibrations may cause significant error
 Vibrational temperatures:     54.42    63.40    86.98   109.24   114.39
          (Kelvin)            163.95   172.28   190.63   206.10   236.78
                              246.53   281.90   334.32   359.63   392.38
                              404.16   439.46   470.67   524.81   585.00
                              608.84   648.95   732.40   809.95   868.51
                              920.76   955.10  1021.28  1035.38  1115.19
                             1123.97  1198.99  1245.64  1255.63  1368.25
                             1440.42  1454.21  1462.41  1476.45  1480.73
                             1534.32  1538.80  1556.63  1619.33  1641.69
                             1664.75  1707.15  1710.45  1756.55  1757.79
                             1787.85  1873.60  1898.01  1933.83  1963.56
                             2055.04  2097.33  2106.91  2122.07  2145.29
                             2148.17  2162.86  2168.58  2223.04  2251.23
                             2364.69  2380.97  2388.61  2409.73  4383.76
                             4431.40  4468.76  4544.77  4545.13  4579.99
                             4602.09  4613.67  4626.66  4638.88  4672.25
                             5060.56  5167.88  5314.99

 Zero-point correction=                           0.237954 (Hartree/Particle)
 Thermal correction to Energy=                    0.255233
 Thermal correction to Enthalpy=                  0.256177
 Thermal correction to Gibbs Free Energy=         0.191262
 Sum of electronic and zero-point Energies=          -3646.508281
 Sum of electronic and thermal Energies=             -3646.491002
 Sum of electronic and thermal Enthalpies=           -3646.490058
 Sum of electronic and thermal Free Energies=        -3646.554973

                     E (Thermal)             CV                S
                      KCal/Mol        Cal/Mol-Kelvin    Cal/Mol-Kelvin
 Total                  160.161             61.412            136.625
 Electronic               0.000              0.000              0.000
 Translational            0.889              2.981             43.032
 Rotational               0.889              2.981             33.459
 Vibrational            158.384             55.450             60.135
 Vibration     1          0.594              1.982              5.370
 Vibration     2          0.595              1.980              5.067
 Vibration     3          0.597              1.973              4.442
 Vibration     4          0.599              1.965              3.994
 Vibration     5          0.600              1.963              3.903
 Vibration     6          0.607              1.938              3.200
 Vibration     7          0.609              1.933              3.105
 Vibration     8          0.613              1.921              2.910
 Vibration     9          0.616              1.910              2.760
 Vibration    10          0.623              1.886              2.497
 Vibration    11          0.626              1.878              2.421
 Vibration    12          0.636              1.846              2.171
 Vibration    13          0.653              1.791              1.861
 Vibration    14          0.663              1.763              1.731
 Vibration    15          0.676              1.724              1.579
 Vibration    16          0.681              1.709              1.528
 Vibration    17          0.696              1.663              1.387
 Vibration    18          0.711              1.621              1.274
 Vibration    19          0.738              1.545              1.102
 Vibration    20          0.771              1.456              0.939
 Vibration    21          0.785              1.420              0.881
 Vibration    22          0.810              1.359              0.793
 Vibration    23          0.864              1.230              0.636
 Vibration    24          0.919              1.111              0.518
 Vibration    25          0.962              1.024              0.443

 Optimization completed.
    -- Stationary point found.
 Normal termination of Gaussian 16 at Sat Feb 20 22:46:17 2021.
