 Gaussian 16, Revision A.03,
 Gaussian 16:  ES64L-G16RevA.03 25-Dec-2016

 ----------------------------------------------------------------------
 # wB97XD def2tzvp, opt=(ts, noeigen, calcfc, maxcycles=70, maxstep=8),
  freq=noraman, scrf=(iefpcm, solvent=water)
 ----------------------------------------------------------------------

 ------------------------
 1_iteration/TS-620-1.out
 ------------------------
 Symbolic Z-matrix:
 Charge =  0 Multiplicity = 1

 SCF Done:  E(RwB97XD) =  -3246.31864118     A.U. after   15 cycles
 Optimization completed.
    -- Stationary point found.
 Normal termination of Gaussian 16 at Mon Mar 29 06:46:10 2021.

 ---------------------------------------------------------------------
 #N Geom=AllCheck Guess=TCheck SCRF=Check GenChk RwB97XD/def2TZVP Freq
 ---------------------------------------------------------------------

 Structure from the checkpoint file:  "/beegfs/scratch/user/q/tla25/Gau-76318.chk"
 ------------------------
 1_iteration/TS-620-1.out
 ------------------------
 Charge =  0 Multiplicity = 1

                         Standard orientation:
 ---------------------------------------------------------------------
 Center     Atomic      Atomic             Coordinates (Angstroms)
 Number     Number       Type             X           Y           Z
 ---------------------------------------------------------------------
      1          6           0        0.714929    1.313037   -0.321240
      2          6           0       -0.444908    2.153748   -0.443760
      3          8           0       -0.462807    3.233528   -1.024070
      4          6           0        0.647390   -0.002813    0.133210
      5          6           0        0.591662    0.915196    2.744110
      6          1           0        0.554605    1.851726    2.187950
      7          1           0       -0.423155    0.601698    2.973310
      8          1           0        1.151181    1.060621    3.666530
      9          7           0        1.241370   -0.081419    1.895530
     10          1           0        2.227759    0.130890    1.795160
     11          1           0        1.184858   -1.021889    2.272380
     12         35           0        2.134879   -1.184681   -0.570140
     13          6           0       -0.606464   -0.827904    0.059200
     14          6           0       -1.186172   -0.966748   -1.203580
     15          6           0       -2.334076   -1.714108   -1.381820
     16          6           0       -2.928151   -2.350832   -0.299040
     17          6           0       -2.353792   -2.231808    0.953780
     18          6           0       -1.198298   -1.480908    1.131300
     19          1           0       -0.727937   -0.471105   -2.049660
     20          1           0       -2.767816   -1.800741   -2.369930
     21          1           0       -3.828326   -2.936370   -0.434660
     22          1           0       -2.802238   -2.722411    1.808110
     23          1           0       -0.798519   -1.412335    2.131510
     24          6           0        2.038294    1.963858   -0.637320
     25          1           0        1.919755    3.045367   -0.658220
     26          1           0        2.803026    1.731174    0.108880
     27          1           0        2.439366    1.655291   -1.607800
     28          8           0       -1.561804    1.695839    0.171180
     29          6           0       -2.760390    2.416619   -0.063580
     30          1           0       -3.539896    1.875403    0.467920
     31          1           0       -2.690528    3.435479    0.318530
     32          1           0       -2.995750    2.452027   -1.128260
 ---------------------------------------------------------------------

 SCF Done:  E(RwB97XD) =  -3246.31864118     A.U. after    1 cycles

 The electronic state is 1-A.
 Alpha  occ. eigenvalues -- -483.12295 -62.67139 -56.46239 -56.45912 -56.45899
 Alpha  occ. eigenvalues --  -19.27612 -19.20703 -14.50395 -10.40309 -10.39231
 Alpha  occ. eigenvalues --  -10.32406 -10.32138 -10.31526 -10.29824 -10.29396
 Alpha  occ. eigenvalues --  -10.29351 -10.29291 -10.29240 -10.26894 -10.26372
 Alpha  occ. eigenvalues --   -8.81230  -6.63317  -6.62291  -6.62247  -2.73702
 Alpha  occ. eigenvalues --   -2.73428  -2.73392  -2.72562  -2.72561  -1.19117
 Alpha  occ. eigenvalues --   -1.09280  -1.05818  -0.97862  -0.93167  -0.86469
 Alpha  occ. eigenvalues --   -0.85860  -0.85583  -0.81327  -0.79715  -0.77455
 Alpha  occ. eigenvalues --   -0.71665  -0.71054  -0.68207  -0.65469  -0.63099
 Alpha  occ. eigenvalues --   -0.61197  -0.59107  -0.57742  -0.56877  -0.55863
 Alpha  occ. eigenvalues --   -0.55704  -0.54267  -0.52669  -0.51362  -0.51258
 Alpha  occ. eigenvalues --   -0.50117  -0.49571  -0.48677  -0.47180  -0.46681
 Alpha  occ. eigenvalues --   -0.46179  -0.45079  -0.44659  -0.43019  -0.42812
 Alpha  occ. eigenvalues --   -0.42605  -0.38017  -0.37402  -0.37313  -0.34790
 Alpha  occ. eigenvalues --   -0.34153  -0.32565  -0.27002
 Alpha virt. eigenvalues --    0.01566   0.04874   0.06264   0.07537   0.09960
 Alpha virt. eigenvalues --    0.12222   0.13108   0.13988   0.14969   0.15413
 Alpha virt. eigenvalues --    0.16365   0.16744   0.16936   0.17620   0.18268

 Mulliken charges:
               1
     1  C   -0.296290
     2  C    0.429787
     3  O   -0.512940
     4  C    0.189453
     5  C   -0.291759
     6  H    0.159820
     7  H    0.157144
     8  H    0.166576
     9  N   -0.288461
    10  H    0.286940
    11  H    0.292943
    12  Br  -0.169879
    13  C    0.260477
    14  C   -0.316668
    15  C   -0.124783
    16  C   -0.147634
    17  C   -0.173195
    18  C   -0.225383
    19  H    0.156590
    20  H    0.144407
    21  H    0.145484
    22  H    0.144186
    23  H    0.138635
    24  C   -0.389159
    25  H    0.131607
    26  H    0.114030
    27  H    0.125397
    28  O   -0.295421
    29  C   -0.200105
    30  H    0.135429
    31  H    0.126520
    32  H    0.126255
 Sum of Mulliken charges =  -0.00000

 Dipole moment (field-independent basis, Debye):
    X=             -0.3351    Y=             -4.4848    Z=              7.8729  Tot=              9.0669
 Quadrupole moment (field-independent basis, Debye-Ang):
   XX=            -97.6306   YY=           -126.1675   ZZ=            -92.8245
   XY=              5.0446   XZ=              8.6619   YZ=              6.1139

  Exact polarizability: 269.044   4.344 252.639   1.364 -19.592 241.199
 Approx polarizability: 209.432   4.293 200.861   1.178 -16.507 206.462

 ******    1 imaginary frequencies (negative Signs) ******

                      1                      2                      3
                      A                      A                      A
 Frequencies --   -365.6416                37.9327                50.8914
 Red. masses --      5.4709                 3.7998                 3.3821
 Frc consts  --      0.4309                 0.0032                 0.0052
 IR Inten    --    585.3645                 0.5939                 0.7481

                      4                      5                      6
                      A                      A                      A
 Frequencies --     53.1937                81.8070                95.3280
 Red. masses --      4.6657                 4.5803                 3.8680
 Frc consts  --      0.0078                 0.0181                 0.0207
 IR Inten    --      0.8575                 1.2172                 7.2970

                      7                      8                      9
                      A                      A                      A
 Frequencies --    116.3953               124.0055               134.0061
 Red. masses --      1.8386                 2.0470                 1.4072
 Frc consts  --      0.0147                 0.0185                 0.0149
 IR Inten    --     10.0930                 1.5029                 2.5030

                     10                     11                     12
                      A                      A                      A
 Frequencies --    152.7703               153.2079               168.8496
 Red. masses --      1.5914                 1.4759                 2.5126
 Frc consts  --      0.0219                 0.0204                 0.0422
 IR Inten    --      1.1014                 2.5702                 8.6636

                     13                     14                     15
                      A                      A                      A
 Frequencies --    182.3624               202.0858               250.3302
 Red. masses --      3.8248                 4.5759                 4.9636
 Frc consts  --      0.0749                 0.1101                 0.1833
 IR Inten    --      4.0951                12.5022                23.0338

                     16                     17                     18
                      A                      A                      A
 Frequencies --    268.2364               302.1929               314.1077
 Red. masses --      3.4588                 3.3871                 3.3916
 Frc consts  --      0.1466                 0.1822                 0.1972
 IR Inten    --     16.1601                23.2920                21.1126

                     19                     20                     21
                      A                      A                      A
 Frequencies --    327.9307               374.2938               391.3211
 Red. masses --      3.2889                 4.3692                 5.0934
 Frc consts  --      0.2084                 0.3606                 0.4595
 IR Inten    --      1.8782                 1.2507                15.8983

                     22                     23                     24
                      A                      A                      A
 Frequencies --    420.3225               504.1422               517.5858
 Red. masses --      2.8628                 4.9535                 3.7698
 Frc consts  --      0.2980                 0.7418                 0.5950
 IR Inten    --      0.3322                15.5161                31.0882

                     25                     26                     27
                      A                      A                      A
 Frequencies --    575.2575               634.4821               644.8621
 Red. masses --      4.2800                 3.8782                 3.8812
 Frc consts  --      0.8345                 0.9199                 0.9509
 IR Inten    --    151.3046                 7.3414                51.7144

                     28                     29                     30
                      A                      A                      A
 Frequencies --    678.9505               715.1251               726.7274
 Red. masses --      4.4750                 1.9216                 1.6573
 Frc consts  --      1.2154                 0.5790                 0.5157
 IR Inten    --    220.0187                 8.2372               208.8458

                     31                     32                     33
                      A                      A                      A
 Frequencies --    784.0990               789.9639               840.9912
 Red. masses --      2.7933                 6.1868                 3.8255
 Frc consts  --      1.0118                 2.2747                 1.5941
 IR Inten    --     85.7817                52.4772               141.0659

                     34                     35                     36
                      A                      A                      A
 Frequencies --    865.3099               901.0760               948.9352
 Red. masses --      1.2662                 2.8406                 1.4866
 Frc consts  --      0.5586                 1.3589                 0.7887
 IR Inten    --      2.6039                18.5325                 4.4819

                     37                     38                     39
                      A                      A                      A
 Frequencies --    991.8462              1008.0154              1015.0137
 Red. masses --      1.4673                 1.4625                 1.8700
 Frc consts  --      0.8504                 0.8755                 1.1351
 IR Inten    --     89.3816                15.5030                70.7856

                     40                     41                     42
                      A                      A                      A
 Frequencies --   1025.0685              1029.7001              1053.2781
 Red. masses --      5.1354                 1.3176                 2.7001
 Frc consts  --      3.1793                 0.8231                 1.7649
 IR Inten    --      0.8177                 1.0778                36.7309

                     43                     44                     45
                      A                      A                      A
 Frequencies --   1064.7081              1067.8812              1074.9058
 Red. masses --      1.4744                 2.0233                 1.8398
 Frc consts  --      0.9848                 1.3594                 1.2525
 IR Inten    --     23.8769                 2.7607                18.3846

                     46                     47                     48
                      A                      A                      A
 Frequencies --   1079.4864              1127.6808              1175.2261
 Red. masses --      1.7002                 1.5781                 4.6677
 Frc consts  --      1.1673                 1.1824                 3.7984
 IR Inten    --    156.5027                11.6217               294.8265

                     49                     50                     51
                      A                      A                      A
 Frequencies --   1180.4309              1185.7093              1212.3627
 Red. masses --      1.3218                 1.1331                 1.8422
 Frc consts  --      1.0852                 0.9386                 1.5954
 IR Inten    --     16.1782                 0.5658               161.8219

                     52                     53                     54
                      A                      A                      A
 Frequencies --   1222.6363              1226.6842              1242.8907
 Red. masses --      1.1519                 2.3916                 1.5177
 Frc consts  --      1.0146                 2.1204                 1.3814
 IR Inten    --      4.5218                48.6337                25.7356

                     55                     56                     57
                      A                      A                      A
 Frequencies --   1319.6475              1338.2240              1347.1434
 Red. masses --      4.5748                 1.3651                 4.3397
 Frc consts  --      4.6939                 1.4404                 4.6402
 IR Inten    --     26.9053                30.0997               775.0679

                     58                     59                     60
                      A                      A                      A
 Frequencies --   1365.5383              1418.9224              1441.6237
 Red. masses --      1.4119                 1.2660                 1.4903
 Frc consts  --      1.5512                 1.5018                 1.8249
 IR Inten    --      6.3749                 4.8526               201.6051

                     61                     62                     63
                      A                      A                      A
 Frequencies --   1464.0006              1475.3751              1480.8419
 Red. masses --      1.9426                 1.0596                 1.0488
 Frc consts  --      2.4531                 1.3589                 1.3551
 IR Inten    --    268.1080                19.8939                11.6183

                     64                     65                     66
                      A                      A                      A
 Frequencies --   1482.3939              1489.6360              1490.8907
 Red. masses --      1.3174                 1.1168                 1.8818
 Frc consts  --      1.7056                 1.4602                 2.4644
 IR Inten    --     57.3343                15.4297                60.5887

                     67                     68                     69
                      A                      A                      A
 Frequencies --   1495.2467              1501.6019              1502.8140
 Red. masses --      1.0689                 1.0539                 1.1644
 Frc consts  --      1.4081                 1.4001                 1.5494
 IR Inten    --      3.4616                22.2320               155.4816

                     70                     71                     72
                      A                      A                      A
 Frequencies --   1545.9761              1650.2488              1660.7507
 Red. masses --      2.3916                 2.4671                 1.4966
 Frc consts  --      3.3678                 3.9585                 2.4321
 IR Inten    --     34.0017                70.1567                37.6344

                     73                     74                     75
                      A                      A                      A
 Frequencies --   1673.7517              1675.7583              3029.6701
 Red. masses --      8.6939                 5.8441                 1.0415
 Frc consts  --     14.3498                 9.6692                 5.6327
 IR Inten    --    940.5256               232.6407                79.6284

                     76                     77                     78
                      A                      A                      A
 Frequencies --   3056.9087              3077.0610              3077.4163
 Red. masses --      1.0308                 1.0678                 1.0640
 Frc consts  --      5.6755                 5.9568                 5.9370
 IR Inten    --     67.6467                76.9506                 6.2374

                     79                     80                     81
                      A                      A                      A
 Frequencies --   3130.9531              3146.3359              3156.5744
 Red. masses --      1.1063                 1.0962                 1.1043
 Frc consts  --      6.3897                 6.3936                 6.4829
 IR Inten    --     43.9326                21.2696                 3.2532

                     82                     83                     84
                      A                      A                      A
 Frequencies --   3163.0344              3183.7643              3198.4607
 Red. masses --      1.1051                 1.1056                 1.0860
 Frc consts  --      6.5141                 6.6026                 6.5460
 IR Inten    --     27.2397                12.3971                 0.5323

                     85                     86                     87
                      A                      A                      A
 Frequencies --   3206.3258              3215.1310              3223.9393
 Red. masses --      1.0892                 1.0936                 1.0978
 Frc consts  --      6.5972                 6.6605                 6.7229
 IR Inten    --      4.4274                21.6363                22.5502

                     88                     89                     90
                      A                      A                      A
 Frequencies --   3243.7801              3522.1428              3594.8493
 Red. masses --      1.0924                 1.0515                 1.0953
 Frc consts  --      6.7721                 7.6856                 8.3399
 IR Inten    --     18.8832                47.8493                52.7799

 - Thermochemistry -
 -------------------
 Temperature   298.150 Kelvin.  Pressure   1.00000 Atm.
 Atom     1 has atomic number  6 and mass  12.00000

 Molecular mass:   285.03644 amu.
 Principal axes and moments of inertia in atomic units:
                           1         2         3
     Eigenvalues --  3943.790204525.256846204.97952
           X            0.96901   0.24516   0.03040
           Y           -0.24508   0.96948  -0.00627
           Z           -0.03101  -0.00138   0.99952
 This molecule is an asymmetric top.
 Rotational symmetry number  1.
 Warning -- assumption of classical behavior for rotation
           may cause significant error
 Rotational temperatures (Kelvin)      0.02196     0.01914     0.01396
 Rotational constants (GHZ):           0.45762     0.39882     0.29085
    1 imaginary frequencies ignored.
 Zero-point vibrational energy     690002.1 (Joules/Mol)
                                  164.91445 (Kcal/Mol)
 Warning -- explicit consideration of  24 degrees of freedom as
           vibrations may cause significant error
 Vibrational temperatures:     54.58    73.22    76.53   117.70   137.16
          (Kelvin)            167.47   178.42   192.80   219.80   220.43
                              242.94   262.38   290.76   360.17   385.93
                              434.79   451.93   471.82   538.53   563.02
                              604.75   725.35   744.69   827.67   912.88
                              927.81   976.86  1028.91  1045.60  1128.14
                             1136.58  1210.00  1244.99  1296.45  1365.31
                             1427.05  1450.31  1460.38  1474.85  1481.51
                             1515.43  1531.88  1536.44  1546.55  1553.14
                             1622.48  1690.89  1698.38  1705.97  1744.32
                             1759.10  1764.92  1788.24  1898.68  1925.41
                             1938.24  1964.71  2041.51  2074.17  2106.37
                             2122.74  2130.60  2132.83  2143.25  2145.06
                             2151.33  2160.47  2162.21  2224.31  2374.34
                             2389.45  2408.16  2411.04  4359.02  4398.21
                             4427.20  4427.72  4504.74  4526.88  4541.61
                             4550.90  4580.73  4601.87  4613.19  4625.86
                             4638.53  4667.08  5067.58  5172.19

 Zero-point correction=                           0.262808 (Hartree/Particle)
 Thermal correction to Energy=                    0.280044
 Thermal correction to Enthalpy=                  0.280989
 Thermal correction to Gibbs Free Energy=         0.216596
 Sum of electronic and zero-point Energies=          -3246.055833
 Sum of electronic and thermal Energies=             -3246.038597
 Sum of electronic and thermal Enthalpies=           -3246.037653
 Sum of electronic and thermal Free Energies=        -3246.102045

                     E (Thermal)             CV                S
                      KCal/Mol        Cal/Mol-Kelvin    Cal/Mol-Kelvin
 Total                  175.731             61.807            135.526
 Electronic               0.000              0.000              0.000
 Translational            0.889              2.981             42.840
 Rotational               0.889              2.981             33.071
 Vibrational            173.953             55.845             59.615
 Vibration     1          0.594              1.982              5.364
 Vibration     2          0.595              1.977              4.782
 Vibration     3          0.596              1.976              4.695
 Vibration     4          0.600              1.962              3.847
 Vibration     5          0.603              1.953              3.548
 Vibration     6          0.608              1.936              3.159
 Vibration     7          0.610              1.929              3.037
 Vibration     8          0.613              1.919              2.888
 Vibration     9          0.619              1.900              2.637
 Vibration    10          0.619              1.899              2.632
 Vibration    11          0.625              1.881              2.448
 Vibration    12          0.630              1.864              2.304
 Vibration    13          0.639              1.837              2.114
 Vibration    14          0.663              1.762              1.728
 Vibration    15          0.673              1.732              1.608
 Vibration    16          0.694              1.670              1.405
 Vibration    17          0.702              1.647              1.341
 Vibration    18          0.711              1.620              1.270
 Vibration    19          0.745              1.525              1.062
 Vibration    20          0.759              1.489              0.995
 Vibration    21          0.783              1.426              0.891
 Vibration    22          0.859              1.241              0.648
 Vibration    23          0.873              1.211              0.616
 Vibration    24          0.932              1.085              0.494

 Optimization completed.
    -- Stationary point found.
 Normal termination of Gaussian 16 at Mon Mar 29 08:11:58 2021.
