 Gaussian 16, Revision A.03,
 Gaussian 16:  ES64L-G16RevA.03 25-Dec-2016

 ----------------------------------------------------------------------
 # wB97XD def2tzvp, opt=(ts, noeigen, calcfc, maxcycles=70, maxstep=3),
  freq=noraman, scrf=(iefpcm, solvent=water)
 ----------------------------------------------------------------------

 ------------------------
 0_iteration/TS-623-0.out
 ------------------------
 Symbolic Z-matrix:
 Charge =  0 Multiplicity = 1

 SCF Done:  E(RwB97XD) =  -3418.19271317     A.U. after   16 cycles
 Optimization completed.
    -- Stationary point found.
 Normal termination of Gaussian 16 at Wed Apr 14 20:05:54 2021.

 ---------------------------------------------------------------------
 #N Geom=AllCheck Guess=TCheck SCRF=Check GenChk RwB97XD/def2TZVP Freq
 ---------------------------------------------------------------------

 Structure from the checkpoint file:  "/beegfs/scratch/user/q/tla25/Gau-16159.chk"
 ------------------------
 0_iteration/TS-623-0.out
 ------------------------
 Charge =  0 Multiplicity = 1

                         Standard orientation:
 ---------------------------------------------------------------------
 Center     Atomic      Atomic             Coordinates (Angstroms)
 Number     Number       Type             X           Y           Z
 ---------------------------------------------------------------------
      1          6           0       -0.988609   -1.480501   -0.016896
      2          6           0        0.444691   -1.729300   -0.118596
      3          8           0        0.879691   -2.728600   -0.693796
      4          6           0       -1.561610   -0.234901    0.157804
      5          6           0       -1.581510   -0.649001    2.901204
      6          1           0       -0.897210    0.134299    3.217504
      7          1           0       -2.180809   -0.970301    3.750904
      8          1           0       -1.005409   -1.495101    2.522504
      9          7           0       -2.430510   -0.167991    1.814604
     10          1           0       -3.210409   -0.797991    1.666404
     11          1           0       -2.828300    0.748609    1.990604
     12         35           0       -3.328310    0.040609   -0.882496
     13          6           0       -0.806700    1.051399    0.003304
     14          6           0       -0.182400    1.270300   -1.228596
     15          6           0        0.559000    2.412500   -1.456396
     16          6           0        0.686410    3.373390   -0.460296
     17          6           0        0.063200    3.175000    0.757704
     18          6           0       -0.681900    2.024099    0.988504
     19          1           0       -0.279000    0.524299   -2.006596
     20          1           0        1.040300    2.554690   -2.415196
     21          1           0        1.268409    4.268490   -0.636496
     22          1           0        0.152509    3.913400    1.543504
     23          1           0       -1.140400    1.913199    1.959504
     24          6           0       -1.854109   -2.703401   -0.193696
     25          1           0       -2.751909   -2.665991    0.427204
     26          1           0       -2.189619   -2.829391   -1.228096
     27          1           0       -1.299719   -3.598901    0.081604
     28          7           0        1.310591   -0.846610    0.499404
     29          6           0        2.667090   -0.631810    0.235304
     30          6           0        3.188900    0.619590    0.577404
     31          6           0        4.523900    0.910281    0.365104
     32          6           0        5.367590   -0.037019   -0.200896
     33          6           0        4.851591   -1.277619   -0.541596
     34          6           0        3.515691   -1.587110   -0.324496
     35          1           0        0.876690   -0.088210    0.994504
     36          1           0        2.532300    1.371990    1.000904
     37          1           0        4.904400    1.887081    0.636604
     38          1           0        6.411790    0.190081   -0.371496
     39          1           0        5.497691   -2.028719   -0.979796
     40          1           0        3.124091   -2.557210   -0.583596
 ---------------------------------------------------------------------

 SCF Done:  E(RwB97XD) =  -3418.19271317     A.U. after    1 cycles

 The electronic state is 1-A.
 Alpha  occ. eigenvalues -- -483.11724 -62.66568 -56.45656 -56.45345 -56.45335
 Alpha  occ. eigenvalues --  -19.20480 -14.50469 -14.45889 -10.40318 -10.38470
 Alpha  occ. eigenvalues --  -10.33537 -10.32420 -10.32224 -10.30640 -10.30072
 Alpha  occ. eigenvalues --  -10.29978 -10.29875 -10.29818 -10.28966 -10.28827
 Alpha  occ. eigenvalues --  -10.28716 -10.28216 -10.28136 -10.27108 -10.26872
 Alpha  occ. eigenvalues --   -8.80654  -6.62703  -6.61730  -6.61693  -2.73089
 Alpha  occ. eigenvalues --   -2.72834  -2.72804  -2.72017  -2.72016  -1.13405
 Alpha  occ. eigenvalues --   -1.05930  -1.03757  -0.98478  -0.95400  -0.92971
 Alpha  occ. eigenvalues --   -0.86739  -0.86263  -0.85798  -0.85020  -0.83842
 Alpha  occ. eigenvalues --   -0.79935  -0.78183  -0.74180  -0.71801  -0.71442
 Alpha  occ. eigenvalues --   -0.70601  -0.67702  -0.65760  -0.64397  -0.62541
 Alpha  occ. eigenvalues --   -0.61321  -0.59046  -0.58104  -0.57765  -0.56876
 Alpha  occ. eigenvalues --   -0.54823  -0.54001  -0.53210  -0.52590  -0.52190
 Alpha  occ. eigenvalues --   -0.51851  -0.51479  -0.50574  -0.49889  -0.48991
 Alpha  occ. eigenvalues --   -0.48631  -0.47484  -0.47105  -0.45908  -0.45253
 Alpha  occ. eigenvalues --   -0.44937  -0.44262  -0.43253  -0.43017  -0.42583
 Alpha  occ. eigenvalues --   -0.39226  -0.37571  -0.37023  -0.34961  -0.33990
 Alpha  occ. eigenvalues --   -0.33534  -0.33456  -0.30063  -0.26880
 Alpha virt. eigenvalues --    0.00492   0.04064   0.04783   0.05450   0.06538
 Alpha virt. eigenvalues --    0.07807   0.09968   0.12222   0.13060   0.13524
 Alpha virt. eigenvalues --    0.13751   0.15023   0.15483   0.16076   0.16542

 Mulliken charges:
               1
     1  C   -0.196866
     2  C    0.340867
     3  O   -0.519703
     4  C    0.176822
     5  C   -0.310199
     6  H    0.164025
     7  H    0.171511
     8  H    0.161258
     9  N   -0.281194
    10  H    0.287851
    11  H    0.296380
    12  Br  -0.214743
    13  C    0.038743
    14  C   -0.272527
    15  C   -0.100574
    16  C   -0.160419
    17  C   -0.152313
    18  C   -0.175970
    19  H    0.161853
    20  H    0.147206
    21  H    0.146910
    22  H    0.146461
    23  H    0.138730
    24  C   -0.388987
    25  H    0.115471
    26  H    0.127272
    27  H    0.133494
    28  N   -0.217048
    29  C    0.288633
    30  C   -0.302600
    31  C   -0.120450
    32  C   -0.190105
    33  C   -0.103935
    34  C   -0.317728
    35  H    0.251663
    36  H    0.160006
    37  H    0.139872
    38  H    0.139205
    39  H    0.140297
    40  H    0.150834
 Sum of Mulliken charges =  -0.00000

 Dipole moment (field-independent basis, Debye):
    X=             -3.8444    Y=              6.7518    Z=              8.1191  Tot=             11.2378
 Quadrupole moment (field-independent basis, Debye-Ang):
   XX=           -133.8193   YY=           -141.5128   ZZ=           -123.5037
   XY=             11.3925   XZ=            -18.5554   YZ=             -2.1233

  Exact polarizability: 409.549  13.733 350.574 -17.434  29.471 284.594
 Approx polarizability: 302.691   9.271 286.953 -16.585  27.551 247.956

 ******    1 imaginary frequencies (negative Signs) ******

                      1                      2                      3
                      A                      A                      A
 Frequencies --   -389.3236                19.9677                30.0768
 Red. masses --      5.5995                 4.7114                 5.2903
 Frc consts  --      0.5001                 0.0011                 0.0028
 IR Inten    --    503.8698                 0.3277                 1.0171

                      4                      5                      6
                      A                      A                      A
 Frequencies --     48.3262                62.4015                70.1345
 Red. masses --      4.4995                 4.1201                 6.3437
 Frc consts  --      0.0062                 0.0095                 0.0184
 IR Inten    --      2.1785                 2.2457                26.2728

                      7                      8                      9
                      A                      A                      A
 Frequencies --     87.5529               111.5407               119.6560
 Red. masses --      5.4770                 1.0828                 4.8374
 Frc consts  --      0.0247                 0.0079                 0.0408
 IR Inten    --      2.2830                 1.2397                 9.6723

                     10                     11                     12
                      A                      A                      A
 Frequencies --    121.7134               141.7217               153.8469
 Red. masses --      4.2607                 2.8898                 6.1187
 Frc consts  --      0.0372                 0.0342                 0.0853
 IR Inten    --      3.9999                 7.8421                33.3771

                     13                     14                     15
                      A                      A                      A
 Frequencies --    157.7851               177.1853               206.9429
 Red. masses --      1.6050                 1.8892                 4.8411
 Frc consts  --      0.0235                 0.0349                 0.1222
 IR Inten    --      3.5390                 5.9592                17.0181

                     16                     17                     18
                      A                      A                      A
 Frequencies --    239.7312               260.6036               275.3048
 Red. masses --      5.4539                 3.7314                 4.5955
 Frc consts  --      0.1847                 0.1493                 0.2052
 IR Inten    --     34.1844                22.7276                 1.5201

                     19                     20                     21
                      A                      A                      A
 Frequencies --    305.3830               313.8461               359.6332
 Red. masses --      2.9155                 3.3911                 4.5024
 Frc consts  --      0.1602                 0.1968                 0.3431
 IR Inten    --      6.5450                10.6220                 3.5456

                     22                     23                     24
                      A                      A                      A
 Frequencies --    366.0292               383.6276               413.5390
 Red. masses --      4.9924                 4.6751                 5.2648
 Frc consts  --      0.3941                 0.4054                 0.5305
 IR Inten    --     18.0301                22.8556                57.6885

                     25                     26                     27
                      A                      A                      A
 Frequencies --    421.5654               426.1935               520.5968
 Red. masses --      2.8668                 3.0032                 3.8642
 Frc consts  --      0.3002                 0.3214                 0.6170
 IR Inten    --      2.1136                 0.0624                43.5047

                     28                     29                     30
                      A                      A                      A
 Frequencies --    530.6562               569.5845               598.8551
 Red. masses --      2.8374                 4.5525                 4.8724
 Frc consts  --      0.4708                 0.8702                 1.0295
 IR Inten    --     16.3968               125.4830                 1.0407

                     31                     32                     33
                      A                      A                      A
 Frequencies --    620.8205               636.4335               637.7917
 Red. masses --      1.3405                 5.0694                 4.2745
 Frc consts  --      0.3044                 1.2098                 1.0245
 IR Inten    --    113.8869                15.6459                20.1183

                     34                     35                     36
                      A                      A                      A
 Frequencies --    650.2255               672.6927               715.3268
 Red. masses --      3.3059                 3.3547                 2.1566
 Frc consts  --      0.8235                 0.8944                 0.6502
 IR Inten    --      9.5623               420.5357                10.6149

                     37                     38                     39
                      A                      A                      A
 Frequencies --    722.7945               728.9754               775.2642
 Red. masses --      1.8657                 1.6020                 5.6856
 Frc consts  --      0.5743                 0.5016                 2.0134
 IR Inten    --     42.1256               300.6150                23.3246

                     40                     41                     42
                      A                      A                      A
 Frequencies --    783.9052               802.1400               844.0928
 Red. masses --      1.9334                 2.3883                 4.2052
 Frc consts  --      0.7000                 0.9054                 1.7653
 IR Inten    --     98.5397                 9.6169               112.1300

                     43                     44                     45
                      A                      A                      A
 Frequencies --    867.9806               870.8120               877.5881
 Red. masses --      1.2525                 1.3476                 3.1021
 Frc consts  --      0.5559                 0.6021                 1.4076
 IR Inten    --      0.8510                 6.4405                64.7942

                     46                     47                     48
                      A                      A                      A
 Frequencies --    932.9301               943.3061               960.7741
 Red. masses --      1.9494                 2.1066                 1.6106
 Frc consts  --      0.9997                 1.1044                 0.8760
 IR Inten    --     15.0542                17.1413                 0.2499

                     49                     50                     51
                      A                      A                      A
 Frequencies --   1002.8351              1004.8032              1017.0100
 Red. masses --      1.1591                 1.3394                 1.4148
 Frc consts  --      0.6868                 0.7968                 0.8622
 IR Inten    --     45.0149                 0.2000                16.4668

                     52                     53                     54
                      A                      A                      A
 Frequencies --   1018.3138              1020.7710              1024.1695
 Red. masses --      1.2958                 4.7903                 3.8195
 Frc consts  --      0.7917                 2.9408                 2.3605
 IR Inten    --      1.1627                17.5359                50.8268

                     55                     56                     57
                      A                      A                      A
 Frequencies --   1027.2037              1037.6379              1057.1774
 Red. masses --      2.4997                 1.3270                 1.4553
 Frc consts  --      1.5540                 0.8418                 0.9583
 IR Inten    --     79.0098                 0.7467                45.0368

                     58                     59                     60
                      A                      A                      A
 Frequencies --   1060.4297              1069.3747              1074.9656
 Red. masses --      2.0684                 2.2705                 3.1111
 Frc consts  --      1.3704                 1.5298                 2.1181
 IR Inten    --      5.2534                 4.5105                22.5166

                     61                     62                     63
                      A                      A                      A
 Frequencies --   1080.1781              1113.0246              1130.5320
 Red. masses --      1.2164                 1.6283                 1.6028
 Frc consts  --      0.8362                 1.1885                 1.2070
 IR Inten    --    139.3096                43.5727                12.9877

                     64                     65                     66
                      A                      A                      A
 Frequencies --   1144.1711              1181.0297              1188.3215
 Red. masses --      2.9942                 1.1226                 1.1300
 Frc consts  --      2.3095                 0.9226                 0.9402
 IR Inten    --    148.5714                 3.4243                 0.2270

                     67                     68                     69
                      A                      A                      A
 Frequencies --   1207.5730              1225.7118              1227.0488
 Red. masses --      1.1456                 1.9410                 1.3131
 Frc consts  --      0.9842                 1.7182                 1.1648
 IR Inten    --     10.0318                53.2502                29.4119

                     70                     71                     72
                      A                      A                      A
 Frequencies --   1240.1110              1273.2536              1312.3262
 Red. masses --      1.6575                 2.4983                 4.6944
 Frc consts  --      1.5018                 2.3863                 4.7634
 IR Inten    --     13.9089               480.7971               418.9560

                     73                     74                     75
                      A                      A                      A
 Frequencies --   1321.1352              1338.1543              1343.4990
 Red. masses --      4.8318                 1.3085                 3.4739
 Frc consts  --      4.9689                 1.3805                 3.6944
 IR Inten    --     34.2616                 7.5292               591.5996

                     76                     77                     78
                      A                      A                      A
 Frequencies --   1361.3166              1370.7843              1417.6503
 Red. masses --      1.7612                 1.3986                 1.2592
 Frc consts  --      1.9230                 1.5484                 1.4910
 IR Inten    --     10.6414                 7.8071                 0.4066

                     79                     80                     81
                      A                      A                      A
 Frequencies --   1446.0183              1465.2683              1472.3585
 Red. masses --      1.2329                 1.0857                 1.8772
 Frc consts  --      1.5189                 1.3734                 2.3976
 IR Inten    --     64.9861                63.8165               242.9383

                     82                     83                     84
                      A                      A                      A
 Frequencies --   1481.1974              1490.1347              1498.3475
 Red. masses --      1.7724                 1.8305                 1.0491
 Frc consts  --      2.2911                 2.3948                 1.3877
 IR Inten    --    100.4702                21.9087                49.6300

                     85                     86                     87
                      A                      A                      A
 Frequencies --   1504.8787              1509.0262              1543.8025
 Red. masses --      1.0755                 1.7540                 2.4186
 Frc consts  --      1.4351                 2.3533                 3.3963
 IR Inten    --     35.9487               378.4436               334.9914

                     88                     89                     90
                      A                      A                      A
 Frequencies --   1549.7494              1562.9607              1649.3067
 Red. masses --      2.5316                 2.0955                 3.0283
 Frc consts  --      3.5824                 3.0161                 4.8535
 IR Inten    --     39.6467               339.3032                57.5046

                     91                     92                     93
                      A                      A                      A
 Frequencies --   1656.5647              1660.8503              1668.7384
 Red. masses --      7.0811                 1.3430                 4.0326
 Frc consts  --     11.4490                 2.1827                 6.6162
 IR Inten    --    319.2537                61.8478               155.6229

                     94                     95                     96
                      A                      A                      A
 Frequencies --   1673.9267              1681.5237              3032.4350
 Red. masses --      5.1696                 6.0498                 1.0444
 Frc consts  --      8.5345                10.0786                 5.6587
 IR Inten    --      0.4703               541.5208                76.6208

                     97                     98                     99
                      A                      A                      A
 Frequencies --   3068.3177              3089.6249              3143.0465
 Red. masses --      1.0358                 1.0950                 1.0980
 Frc consts  --      5.7453                 6.1586                 6.3908
 IR Inten    --     35.3900                47.8141                27.7500

                    100                    101                    102
                      A                      A                      A
 Frequencies --   3149.9501              3177.5358              3185.7705
 Red. masses --      1.1010                 1.1064                 1.0881
 Frc consts  --      6.4366                 6.5816                 6.5064
 IR Inten    --      3.0403                14.9879                 9.7772

                    103                    104                    105
                      A                      A                      A
 Frequencies --   3195.3514              3203.1658              3205.7331
 Red. masses --      1.0882                 1.0865                 1.0928
 Frc consts  --      6.5464                 6.5680                 6.6169
 IR Inten    --      4.6823                 0.4027                27.1057

                    106                    107                    108
                      A                      A                      A
 Frequencies --   3210.7495              3219.1516              3221.0369
 Red. masses --      1.0893                 1.0939                 1.0979
 Frc consts  --      6.6163                 6.6787                 6.7110
 IR Inten    --      2.9565                15.4729                25.0138

                    109                    110                    111
                      A                      A                      A
 Frequencies --   3227.9121              3250.0857              3266.8704
 Red. masses --      1.0980                 1.0916                 1.0925
 Frc consts  --      6.7406                 6.7934                 6.8697
 IR Inten    --     17.8025                13.8781                 3.6237

                    112                    113                    114
                      A                      A                      A
 Frequencies --   3525.9064              3599.1194              3656.1962
 Red. masses --      1.0517                 1.0956                 1.0761
 Frc consts  --      7.7032                 8.3614                 8.4753
 IR Inten    --     49.4108                55.6344                73.4423

 - Thermochemistry -
 -------------------
 Temperature   298.150 Kelvin.  Pressure   1.00000 Atm.
 Atom     1 has atomic number  6 and mass  12.00000

 Molecular mass:   346.06807 amu.
 Principal axes and moments of inertia in atomic units:
                           1         2         3
     Eigenvalues --  4324.66375********************
           X            0.99957   0.01467  -0.02537
           Y           -0.01464   0.99989   0.00135
           Z            0.02539  -0.00098   0.99968
 This molecule is an asymmetric top.
 Rotational symmetry number  1.
 Warning -- assumption of classical behavior for rotation
           may cause significant error
 Rotational temperatures (Kelvin)      0.02003     0.00845     0.00719
 Rotational constants (GHZ):           0.41731     0.17612     0.14990
    1 imaginary frequencies ignored.
 Zero-point vibrational energy     864726.5 (Joules/Mol)
                                  206.67459 (Kcal/Mol)
 Warning -- explicit consideration of  29 degrees of freedom as
           vibrations may cause significant error
 Vibrational temperatures:     28.73    43.27    69.53    89.78   100.91
          (Kelvin)            125.97   160.48   172.16   175.12   203.91
                              221.35   227.02   254.93   297.74   344.92
                              374.95   396.10   439.38   451.55   517.43
                              526.63   551.95   594.99   606.54   613.20
                              749.02   763.50   819.51   861.62   893.22
                              915.69   917.64   935.53   967.85  1029.20
                             1039.94  1048.83  1115.43  1127.86  1154.10
                             1214.46  1248.83  1252.90  1262.65  1342.28
                             1357.21  1382.34  1442.86  1445.69  1463.25
                             1465.13  1468.66  1473.55  1477.92  1492.93
                             1521.04  1525.72  1538.59  1546.64  1554.14
                             1601.39  1626.58  1646.21  1699.24  1709.73
                             1737.43  1763.53  1765.45  1784.24  1831.93
                             1888.14  1900.82  1925.31  1933.00  1958.63
                             1972.25  2039.68  2080.50  2108.19  2118.40
                             2131.11  2143.97  2155.79  2165.18  2171.15
                             2221.19  2229.74  2248.75  2372.98  2383.43
                             2389.59  2400.94  2408.41  2419.34  4363.00
                             4414.62  4445.28  4522.14  4532.08  4571.77
                             4583.61  4597.40  4608.64  4612.33  4619.55
                             4631.64  4634.35  4644.25  4676.15  4700.30
                             5072.99  5178.33  5260.45

 Zero-point correction=                           0.329357 (Hartree/Particle)
 Thermal correction to Energy=                    0.349577
 Thermal correction to Enthalpy=                  0.350521
 Thermal correction to Gibbs Free Energy=         0.278543
 Sum of electronic and zero-point Energies=          -3417.863356
 Sum of electronic and thermal Energies=             -3417.843136
 Sum of electronic and thermal Enthalpies=           -3417.842192
 Sum of electronic and thermal Free Energies=        -3417.914170

                     E (Thermal)             CV                S
                      KCal/Mol        Cal/Mol-Kelvin    Cal/Mol-Kelvin
 Total                  219.363             76.037            151.491
 Electronic               0.000              0.000              0.000
 Translational            0.889              2.981             43.419
 Rotational               0.889              2.981             34.633
 Vibrational            217.586             70.075             73.439
 Vibration     1          0.593              1.986              6.637
 Vibration     2          0.594              1.984              5.824
 Vibration     3          0.595              1.978              4.885
 Vibration     4          0.597              1.972              4.380
 Vibration     5          0.598              1.968              4.150
 Vibration     6          0.601              1.958              3.714
 Vibration     7          0.607              1.940              3.242
 Vibration     8          0.609              1.933              3.106
 Vibration     9          0.609              1.931              3.073
 Vibration    10          0.615              1.912              2.780
 Vibration    11          0.619              1.898              2.624
 Vibration    12          0.621              1.894              2.576
 Vibration    13          0.628              1.870              2.358
 Vibration    14          0.641              1.830              2.070
 Vibration    15          0.657              1.780              1.805
 Vibration    16          0.669              1.745              1.658
 Vibration    17          0.677              1.719              1.563
 Vibration    18          0.696              1.663              1.387
 Vibration    19          0.702              1.647              1.342
 Vibration    20          0.734              1.555              1.124
 Vibration    21          0.739              1.542              1.096
 Vibration    22          0.753              1.505              1.025
 Vibration    23          0.777              1.441              0.914
 Vibration    24          0.784              1.423              0.887
 Vibration    25          0.788              1.413              0.871
 Vibration    26          0.876              1.204              0.609
 Vibration    27          0.886              1.182              0.586
 Vibration    28          0.926              1.097              0.505
 Vibration    29          0.957              1.034              0.452

 Optimization completed.
    -- Stationary point found.
 Normal termination of Gaussian 16 at Wed Apr 14 21:27:52 2021.
