 Gaussian 16, Revision A.03,
 Gaussian 16:  ES64L-G16RevA.03 25-Dec-2016

 ----------------------------------------------------------------------
 # wB97XD def2tzvp, opt=(ts, noeigen, calcfc, maxcycles=70, maxstep=8),
  freq=noraman, scrf=(iefpcm, solvent=water)
 ----------------------------------------------------------------------

 ------------------------
 1_iteration/TS-635-1.out
 ------------------------
 Symbolic Z-matrix:
 Charge =  0 Multiplicity = 1

 SCF Done:  E(RwB97XD) =  -3607.43961637     A.U. after   15 cycles
 SCF Done:  E(RwB97XD) =  -3607.43961624     A.U. after    7 cycles
 Optimization completed.
    -- Stationary point found.
 Normal termination of Gaussian 16 at Fri Feb 19 21:30:21 2021.

 ---------------------------------------------------------------------
 #N Geom=AllCheck Guess=TCheck SCRF=Check GenChk RwB97XD/def2TZVP Freq
 ---------------------------------------------------------------------

 Structure from the checkpoint file:  "/beegfs/scratch/user/q/tla25/Gau-33680.chk"
 ------------------------
 1_iteration/TS-635-1.out
 ------------------------
 Charge =  0 Multiplicity = 1

                         Standard orientation:
 ---------------------------------------------------------------------
 Center     Atomic      Atomic             Coordinates (Angstroms)
 Number     Number       Type             X           Y           Z
 ---------------------------------------------------------------------
      1          6           0        1.156663    0.693258   -0.250134
      2          6           0        0.871799    2.121267   -0.273527
      3          8           0       -0.193844    2.605860    0.117485
      4          6           0        0.239554   -0.270843    0.146478
      5          6           0        0.704222    0.478058    2.807395
      6          1           0        1.175992    0.230766    3.757296
      7          1           0        1.321427    1.202521    2.277283
      8          1           0       -0.274367    0.915234    2.986047
      9          7           0        0.573836   -0.708675    1.965619
     10          1           0        1.465354   -1.186776    1.890362
     11          1           0       -0.090754   -1.382829    2.330092
     12         35           0        0.560399   -2.111861   -0.527476
     13          6           0       -1.233344    0.002415    0.023948
     14          6           0       -1.702968    0.323892   -1.250758
     15          6           0       -3.046934    0.548911   -1.475993
     16          6           0       -3.956437    0.450426   -0.430281
     17          6           0       -3.502068    0.116764    0.833178
     18          6           0       -2.150746   -0.113412    1.058595
     19          1           0       -0.997441    0.403277   -2.067618
     20          1           0       -3.386862    0.802927   -2.471909
     21          1           0       -5.010092    0.627903   -0.603088
     22          1           0       -4.197888    0.031130    1.657861
     23          1           0       -1.848223   -0.370358    2.062154
     24         17           0        2.836040    0.209815   -0.467885
     25          7           0        1.855314    2.941250   -0.738194
     26          1           0        1.617941    3.909310   -0.859164
     27          1           0        2.666525    2.585852   -1.208868
 ---------------------------------------------------------------------

 SCF Done:  E(RwB97XD) =  -3607.43961624     A.U. after    1 cycles

 The electronic state is 1-A.
 Alpha  occ. eigenvalues -- -483.13162-101.69479 -62.68001 -56.47119 -56.46767
 Alpha  occ. eigenvalues --  -56.46751 -19.20135 -14.49999 -14.43933 -10.41005
 Alpha  occ. eigenvalues --  -10.38802 -10.32125 -10.31793 -10.31667 -10.29887
 Alpha  occ. eigenvalues --  -10.29435 -10.29408 -10.29315 -10.29258  -9.58018
 Alpha  occ. eigenvalues --   -8.82096  -7.32640  -7.31819  -7.31788  -6.64242
 Alpha  occ. eigenvalues --   -6.63129  -6.63078  -2.74621  -2.74319  -2.74278
 Alpha  occ. eigenvalues --   -2.73378  -2.73378  -1.13049  -1.05492  -1.00082
 Alpha  occ. eigenvalues --   -0.98353  -0.96199  -0.91500  -0.86172  -0.85717
 Alpha  occ. eigenvalues --   -0.82215  -0.79618  -0.74257  -0.71225  -0.70021
 Alpha  occ. eigenvalues --   -0.65414  -0.64457  -0.62301  -0.59696  -0.58360
 Alpha  occ. eigenvalues --   -0.57338  -0.56434  -0.54579  -0.53491  -0.52254
 Alpha  occ. eigenvalues --   -0.51305  -0.51045  -0.50449  -0.48479  -0.47642
 Alpha  occ. eigenvalues --   -0.46846  -0.45713  -0.44022  -0.43393  -0.42138
 Alpha  occ. eigenvalues --   -0.41267  -0.37743  -0.37489  -0.35613  -0.34952
 Alpha  occ. eigenvalues --   -0.33921  -0.31930  -0.27885
 Alpha virt. eigenvalues --    0.01287   0.04809   0.05156   0.07498   0.10389
 Alpha virt. eigenvalues --    0.12322   0.12934   0.13736   0.14560   0.15434
 Alpha virt. eigenvalues --    0.16261   0.16938   0.17548   0.18448   0.18883

 Mulliken charges:
               1
     1  C   -0.241510
     2  C    0.321995
     3  O   -0.515581
     4  C    0.172788
     5  C   -0.289650
     6  H    0.165430
     7  H    0.161515
     8  H    0.156434
     9  N   -0.322765
    10  H    0.288658
    11  H    0.294375
    12  Br  -0.121040
    13  C    0.279678
    14  C   -0.304589
    15  C   -0.123252
    16  C   -0.150600
    17  C   -0.166754
    18  C   -0.234267
    19  H    0.156814
    20  H    0.144808
    21  H    0.145783
    22  H    0.144862
    23  H    0.139796
    24  Cl  -0.162471
    25  N   -0.474436
    26  H    0.267554
    27  H    0.266428
 Sum of Mulliken charges =  -0.00000

 Dipole moment (field-independent basis, Debye):
    X=              0.5074    Y=             -2.3463    Z=              4.5682  Tot=              5.1606
 Quadrupole moment (field-independent basis, Debye-Ang):
   XX=           -100.1694   YY=           -112.9884   ZZ=            -88.2566
   XY=              6.1752   XZ=              1.4824   YZ=            -11.3338

  Exact polarizability: 269.590  -6.266 228.374 -13.538 -15.347 225.342
 Approx polarizability: 214.778  -7.989 184.985 -11.825 -11.046 194.153

 ******    1 imaginary frequencies (negative Signs) ******

                      1                      2                      3
                      A                      A                      A
 Frequencies --   -354.3387                41.0160                55.1789
 Red. masses --      5.2852                 3.9930                 7.6129
 Frc consts  --      0.3910                 0.0040                 0.0137
 IR Inten    --    557.5678                 1.3075                 1.1249

                      4                      5                      6
                      A                      A                      A
 Frequencies --     59.2159                82.0942               110.3314
 Red. masses --      4.9663                 6.0483                 3.1019
 Frc consts  --      0.0103                 0.0240                 0.0222
 IR Inten    --      5.2946                 4.7482                 7.1673

                      7                      8                      9
                      A                      A                      A
 Frequencies --    124.7218               144.4033               163.2712
 Red. masses --      4.3516                 2.2543                 2.8050
 Frc consts  --      0.0399                 0.0277                 0.0441
 IR Inten    --      7.0450                 3.9548                 2.9860

                     10                     11                     12
                      A                      A                      A
 Frequencies --    177.3580               211.7634               221.3382
 Red. masses --      4.0842                 1.2774                 7.4939
 Frc consts  --      0.0757                 0.0338                 0.2163
 IR Inten    --      1.0161               355.9404                11.6616

                     13                     14                     15
                      A                      A                      A
 Frequencies --    237.6466               261.0386               282.7936
 Red. masses --      2.9343                 5.2696                 4.7690
 Frc consts  --      0.0976                 0.2116                 0.2247
 IR Inten    --      5.7379                12.8812                13.9186

                     16                     17                     18
                      A                      A                      A
 Frequencies --    304.4651               336.4871               369.9063
 Red. masses --      3.7010                 5.2511                 4.9180
 Frc consts  --      0.2021                 0.3503                 0.3965
 IR Inten    --     20.2929                23.2362                26.7885

                     19                     20                     21
                      A                      A                      A
 Frequencies --    422.0536               455.4907               512.3758
 Red. masses --      2.8660                 9.5689                 3.4545
 Frc consts  --      0.3008                 1.1697                 0.5343
 IR Inten    --      0.2645                14.5550                38.6726

                     22                     23                     24
                      A                      A                      A
 Frequencies --    526.6054               563.6856               582.4616
 Red. masses --      1.3110                 2.7528                 2.5978
 Frc consts  --      0.2142                 0.5154                 0.5193
 IR Inten    --     32.6200               131.8830                38.0133

                     25                     26                     27
                      A                      A                      A
 Frequencies --    630.9933               643.7415               699.8560
 Red. masses --      5.4927                 6.2516                 1.7937
 Frc consts  --      1.2885                 1.5264                 0.5176
 IR Inten    --     61.7704                45.0009                27.1352

                     28                     29                     30
                      A                      A                      A
 Frequencies --    718.8514               754.3507               778.4745
 Red. masses --      1.7433                 2.3890                 8.5691
 Frc consts  --      0.5308                 0.8010                 3.0597
 IR Inten    --     52.5129               204.8409                49.5786

                     31                     32                     33
                      A                      A                      A
 Frequencies --    830.6927               864.2377               868.6633
 Red. masses --      3.2060                 1.4031                 3.4696
 Frc consts  --      1.3035                 0.6175                 1.5425
 IR Inten    --     25.5172                10.6001                76.2947

                     34                     35                     36
                      A                      A                      A
 Frequencies --    951.7497               999.5358              1009.1529
 Red. masses --      1.4766                 1.1564                 1.3441
 Frc consts  --      0.7880                 0.6807                 0.8065
 IR Inten    --      0.0719                24.1489                 2.4582

                     37                     38                     39
                      A                      A                      A
 Frequencies --   1025.0023              1029.3011              1048.3449
 Red. masses --      5.6983                 1.3134                 2.9902
 Frc consts  --      3.5273                 0.8199                 1.9363
 IR Inten    --      0.8762                 0.0798                15.8494

                     40                     41                     42
                      A                      A                      A
 Frequencies --   1067.0776              1071.7696              1079.2449
 Red. masses --      1.8720                 3.2141                 1.5654
 Frc consts  --      1.2559                 2.1753                 1.0742
 IR Inten    --      5.1709                26.8093               110.5272

                     43                     44                     45
                      A                      A                      A
 Frequencies --   1091.3382              1129.8803              1186.8153
 Red. masses --      2.2076                 1.5878                 1.1401
 Frc consts  --      1.5491                 1.1943                 0.9461
 IR Inten    --     27.1696                 9.6339                 0.6815

                     46                     47                     48
                      A                      A                      A
 Frequencies --   1211.6492              1227.0983              1241.0952
 Red. masses --      3.5000                 1.1487                 1.4269
 Frc consts  --      3.0274                 1.0191                 1.2950
 IR Inten    --    158.7854                 4.2766                26.2640

                     49                     50                     51
                      A                      A                      A
 Frequencies --   1318.3669              1342.2099              1370.6749
 Red. masses --      4.8080                 1.3193                 1.3971
 Frc consts  --      4.9237                 1.4003                 1.5464
 IR Inten    --     12.8180                 2.4942                 5.5851

                     52                     53                     54
                      A                      A                      A
 Frequencies --   1374.9897              1423.5042              1469.8708
 Red. masses --      4.2914                 4.8890                 1.2759
 Frc consts  --      4.7802                 5.8370                 1.6242
 IR Inten    --    684.0084               768.6582                33.4579

                     55                     56                     57
                      A                      A                      A
 Frequencies --   1489.2882              1491.5330              1505.3619
 Red. masses --      1.0511                 2.1655                 1.0382
 Frc consts  --      1.3736                 2.8384                 1.3862
 IR Inten    --     20.8720                35.1155                17.8741

                     58                     59                     60
                      A                      A                      A
 Frequencies --   1546.3762              1595.9457              1648.7995
 Red. masses --      2.2968                 1.3312                 1.6647
 Frc consts  --      3.2359                 1.9977                 2.6664
 IR Inten    --     30.9117               310.2266                70.2469

                     61                     62                     63
                      A                      A                      A
 Frequencies --   1658.3885              1668.5737              1675.6042
 Red. masses --      2.0603                 6.1415                 5.4171
 Frc consts  --      3.3385                10.0744                 8.9611
 IR Inten    --     28.3372               627.1830                 0.5213

                     64                     65                     66
                      A                      A                      A
 Frequencies --   3079.7118              3157.7555              3183.3344
 Red. masses --      1.0333                 1.1048                 1.1053
 Frc consts  --      5.7740                 6.4907                 6.5990
 IR Inten    --     30.1738                 5.9690                12.2396

                     67                     68                     69
                      A                      A                      A
 Frequencies --   3199.1271              3207.2113              3216.1517
 Red. masses --      1.0861                 1.0893                 1.0937
 Frc consts  --      6.5493                 6.6018                 6.6655
 IR Inten    --      0.6147                 4.9843                22.1992

                     70                     71                     72
                      A                      A                      A
 Frequencies --   3224.7296              3249.6539              3519.2623
 Red. masses --      1.0980                 1.0916                 1.0516
 Frc consts  --      6.7275                 6.7921                 7.6734
 IR Inten    --     22.0547                17.5306                50.8674

                     73                     74                     75
                      A                      A                      A
 Frequencies --   3594.3514              3630.3725              3757.2445
 Red. masses --      1.0956                 1.0455                 1.1048
 Frc consts  --      8.3395                 8.1183                 9.1894
 IR Inten    --     52.8816                91.1876                87.8895

 - Thermochemistry -
 -------------------
 Temperature   298.150 Kelvin.  Pressure   1.00000 Atm.
 Atom     1 has atomic number  6 and mass  12.00000

 Molecular mass:   289.98215 amu.
 Principal axes and moments of inertia in atomic units:
                           1         2         3
     Eigenvalues --  3574.625944762.081536102.30507
           X            0.99868   0.04964   0.01352
           Y           -0.04896   0.99769  -0.04714
           Z           -0.01583   0.04641   0.99880
 This molecule is an asymmetric top.
 Rotational symmetry number  1.
 Warning -- assumption of classical behavior for rotation
           may cause significant error
 Rotational temperatures (Kelvin)      0.02423     0.01819     0.01419
 Rotational constants (GHZ):           0.50488     0.37898     0.29575
    1 imaginary frequencies ignored.
 Zero-point vibrational energy     550300.2 (Joules/Mol)
                                  131.52491 (Kcal/Mol)
 Warning -- explicit consideration of  23 degrees of freedom as
           vibrations may cause significant error
 Vibrational temperatures:     59.01    79.39    85.20   118.12   158.74
          (Kelvin)            179.45   207.76   234.91   255.18   304.68
                              318.46   341.92   375.58   406.88   438.06
                              484.13   532.21   607.24   655.35   737.19
                              757.67   811.02   838.03   907.86   926.20
                             1006.94  1034.27  1085.34  1120.05  1195.18
                             1243.45  1249.81  1369.36  1438.11  1451.95
                             1474.75  1480.93  1508.33  1535.29  1542.04
                             1552.79  1570.19  1625.65  1707.56  1743.29
                             1765.52  1785.66  1896.84  1931.14  1972.10
                             1978.30  2048.11  2114.82  2142.75  2145.98
                             2165.88  2224.89  2296.21  2372.25  2386.05
                             2400.71  2410.82  4431.02  4543.31  4580.11
                             4602.83  4614.46  4627.32  4639.67  4675.53
                             5063.43  5171.47  5223.30  5405.84

 Zero-point correction=                           0.209598 (Hartree/Particle)
 Thermal correction to Energy=                    0.225264
 Thermal correction to Enthalpy=                  0.226208
 Thermal correction to Gibbs Free Energy=         0.165355
 Sum of electronic and zero-point Energies=          -3607.230018
 Sum of electronic and thermal Energies=             -3607.214352
 Sum of electronic and thermal Enthalpies=           -3607.213408
 Sum of electronic and thermal Free Energies=        -3607.274262

                     E (Thermal)             CV                S
                      KCal/Mol        Cal/Mol-Kelvin    Cal/Mol-Kelvin
 Total                  141.355             56.692            128.077
 Electronic               0.000              0.000              0.000
 Translational            0.889              2.981             42.892
 Rotational               0.889              2.981             33.007
 Vibrational            139.578             50.730             52.178
 Vibration     1          0.594              1.981              5.209
 Vibration     2          0.596              1.976              4.623
 Vibration     3          0.597              1.974              4.483
 Vibration     4          0.600              1.961              3.840
 Vibration     5          0.606              1.941              3.263
 Vibration     6          0.610              1.928              3.026
 Vibration     7          0.616              1.909              2.745
 Vibration     8          0.623              1.888              2.512
 Vibration     9          0.628              1.870              2.356
 Vibration    10          0.643              1.823              2.028
 Vibration    11          0.648              1.809              1.948
 Vibration    12          0.656              1.783              1.820
 Vibration    13          0.669              1.744              1.655
 Vibration    14          0.682              1.706              1.517
 Vibration    15          0.695              1.665              1.392
 Vibration    16          0.717              1.603              1.229
 Vibration    17          0.742              1.534              1.080
 Vibration    18          0.784              1.422              0.885
 Vibration    19          0.814              1.349              0.779
 Vibration    20          0.867              1.223              0.628
 Vibration    21          0.882              1.191              0.595
 Vibration    22          0.919              1.110              0.517
 Vibration    23          0.939              1.069              0.481

 Optimization completed.
    -- Stationary point found.
 Normal termination of Gaussian 16 at Fri Feb 19 22:31:22 2021.
