 Gaussian 16, Revision A.03,
 Gaussian 16:  ES64L-G16RevA.03 25-Dec-2016

 ----------------------------------------------------------------------
 # wB97XD def2tzvp, opt=(ts, noeigen, calcfc, maxcycles=70, maxstep=5),
  freq=noraman, scrf=(iefpcm, solvent=water)
 ----------------------------------------------------------------------

 ------------------------
 2_iteration/TS-614-2.out
 ------------------------
 Symbolic Z-matrix:
 Charge =  0 Multiplicity = 1

 SCF Done:  E(RwB97XD) =  -3226.44733796     A.U. after   15 cycles
 SCF Done:  E(RwB97XD) =  -3226.44764077     A.U. after   12 cycles
 SCF Done:  E(RwB97XD) =  -3226.44794601     A.U. after   11 cycles
 SCF Done:  E(RwB97XD) =  -3226.44821691     A.U. after   11 cycles
 SCF Done:  E(RwB97XD) =  -3226.44847795     A.U. after   11 cycles
 SCF Done:  E(RwB97XD) =  -3226.44869149     A.U. after   11 cycles
 SCF Done:  E(RwB97XD) =  -3226.44886413     A.U. after   10 cycles
 SCF Done:  E(RwB97XD) =  -3226.44900507     A.U. after   10 cycles
 SCF Done:  E(RwB97XD) =  -3226.44911608     A.U. after   10 cycles
 SCF Done:  E(RwB97XD) =  -3226.44920209     A.U. after   10 cycles
 SCF Done:  E(RwB97XD) =  -3226.44926661     A.U. after   10 cycles
 SCF Done:  E(RwB97XD) =  -3226.44928849     A.U. after   10 cycles
 SCF Done:  E(RwB97XD) =  -3226.44928258     A.U. after   11 cycles
 SCF Done:  E(RwB97XD) =  -3226.44929680     A.U. after   10 cycles
 SCF Done:  E(RwB97XD) =  -3226.44928221     A.U. after   11 cycles
 SCF Done:  E(RwB97XD) =  -3226.44929855     A.U. after   11 cycles
 SCF Done:  E(RwB97XD) =  -3226.44929857     A.U. after    7 cycles
 Optimization completed.
    -- Stationary point found.
 Normal termination of Gaussian 16 at Thu Apr  1 01:37:53 2021.

 ---------------------------------------------------------------------
 #N Geom=AllCheck Guess=TCheck SCRF=Check GenChk RwB97XD/def2TZVP Freq
 ---------------------------------------------------------------------

 Structure from the checkpoint file:  "/beegfs/scratch/user/q/tla25/Gau-2805.chk"
 ------------------------
 2_iteration/TS-614-2.out
 ------------------------
 Charge =  0 Multiplicity = 1

                         Standard orientation:
 ---------------------------------------------------------------------
 Center     Atomic      Atomic             Coordinates (Angstroms)
 Number     Number       Type             X           Y           Z
 ---------------------------------------------------------------------
      1          6           0        1.063382   -0.419220   -0.441851
      2          6           0        1.937944    0.519787    0.202308
      3          8           0        1.596445    1.148468    1.233004
      4          6           0       -0.278258   -0.498118   -0.042382
      5          6           0        0.500118   -2.067991    2.140448
      6          1           0        0.905783   -2.009351    3.150236
      7          1           0       -0.128385   -2.950907    2.051666
      8          1           0        1.330090   -2.139351    1.432516
      9          7           0       -0.265732   -0.877813    1.810534
     10          1           0       -1.175373   -0.862599    2.252918
     11          1           0        0.258319   -0.028114    2.041228
     12         35           0       -1.167092   -2.062765   -0.794531
     13          6           0       -1.208132    0.687890   -0.039012
     14          6           0       -0.825067    1.853769   -0.693668
     15          6           0       -1.665150    2.956286   -0.727060
     16          6           0       -2.908449    2.906379   -0.116339
     17          6           0       -3.310047    1.740382    0.520435
     18          6           0       -2.468843    0.641297    0.553573
     19          1           0        0.138317    1.890873   -1.182791
     20          1           0       -1.345640    3.855673   -1.238000
     21          1           0       -3.565920    3.765904   -0.144492
     22          1           0       -4.284727    1.682464    0.987622
     23          1           0       -2.817716   -0.268057    1.027059
     24          1           0        1.478276   -1.228418   -1.018587
     25          7           0        3.189572    0.701407   -0.319837
     26          6           0        3.633474    0.024282   -1.516769
     27          6           0        4.212696    1.374299    0.448190
     28          1           0        2.842899    0.007772   -2.265464
     29          1           0        4.481853    0.567962   -1.932383
     30          1           0        3.953393   -1.005884   -1.320841
     31          1           0        3.760727    1.826167    1.325343
     32          1           0        4.988887    0.670332    0.767689
     33          1           0        4.687005    2.155143   -0.151296
 ---------------------------------------------------------------------

 SCF Done:  E(RwB97XD) =  -3226.44929857     A.U. after    1 cycles

 The electronic state is 1-A.
 Alpha  occ. eigenvalues -- -483.13029 -62.67858 -56.46972 -56.46627 -56.46614
 Alpha  occ. eigenvalues --  -19.19505 -14.48045 -14.44854 -10.39840 -10.36924
 Alpha  occ. eigenvalues --  -10.31268 -10.31081 -10.30494 -10.29975 -10.29744
 Alpha  occ. eigenvalues --  -10.29423 -10.29379 -10.29362 -10.29230 -10.24736
 Alpha  occ. eigenvalues --   -8.81951  -6.64084  -6.62988  -6.62946  -2.74473
 Alpha  occ. eigenvalues --   -2.74163  -2.74132  -2.73245  -2.73244  -1.11994
 Alpha  occ. eigenvalues --   -1.03946  -1.02253  -0.97686  -0.92939  -0.86096
 Alpha  occ. eigenvalues --   -0.85683  -0.84012  -0.80884  -0.78981  -0.77792
 Alpha  occ. eigenvalues --   -0.72495  -0.70771  -0.66810  -0.63964  -0.62313
 Alpha  occ. eigenvalues --   -0.60720  -0.58256  -0.57080  -0.56607  -0.55649
 Alpha  occ. eigenvalues --   -0.55192  -0.54101  -0.53218  -0.51442  -0.50346
 Alpha  occ. eigenvalues --   -0.50007  -0.48224  -0.47990  -0.47607  -0.47247
 Alpha  occ. eigenvalues --   -0.46857  -0.45498  -0.45064  -0.43958  -0.43336
 Alpha  occ. eigenvalues --   -0.42684  -0.37981  -0.37142  -0.34452  -0.33742
 Alpha  occ. eigenvalues --   -0.32902  -0.31407  -0.27028
 Alpha virt. eigenvalues --    0.01872   0.05062   0.05527   0.09014   0.10619
 Alpha virt. eigenvalues --    0.12080   0.13597   0.14783   0.15150   0.15719
 Alpha virt. eigenvalues --    0.16615   0.16877   0.17429   0.17851   0.18509

 Mulliken charges:
               1
     1  C   -0.705822
     2  C    0.339905
     3  O   -0.613047
     4  C    0.418299
     5  C   -0.295832
     6  H    0.154761
     7  H    0.154608
     8  H    0.146179
     9  N   -0.289922
    10  H    0.270769
    11  H    0.279218
    12  Br  -0.118650
    13  C    0.111630
    14  C   -0.195645
    15  C   -0.151001
    16  C   -0.133744
    17  C   -0.166477
    18  C   -0.272037
    19  H    0.163293
    20  H    0.143885
    21  H    0.146526
    22  H    0.145286
    23  H    0.166100
    24  H    0.163558
    25  N   -0.099152
    26  C   -0.305253
    27  C   -0.279907
    28  H    0.148512
    29  H    0.142022
    30  H    0.133483
    31  H    0.143555
    32  H    0.124185
    33  H    0.130716
 Sum of Mulliken charges =  -0.00000

 Dipole moment (field-independent basis, Debye):
    X=             -0.2674    Y=             -1.8993    Z=              2.0475  Tot=              2.8056
 Quadrupole moment (field-independent basis, Debye-Ang):
   XX=            -93.2185   YY=           -105.5005   ZZ=           -103.9553
   XY=             -5.2016   XZ=            -10.9074   YZ=            -11.0575

  Exact polarizability: 295.104   5.909 268.505 -26.054 -10.744 217.265
 Approx polarizability: 223.575   5.216 215.373 -21.738  -6.411 187.212

 ******    1 imaginary frequencies (negative Signs) ******

                      1                      2                      3
                      A                      A                      A
 Frequencies --   -405.7956                42.3219                51.4987
 Red. masses --      5.2473                 3.3968                 3.3947
 Frc consts  --      0.5091                 0.0036                 0.0053
 IR Inten    --    708.0693                 3.9592                 2.9225

                      4                      5                      6
                      A                      A                      A
 Frequencies --     65.5613                83.1504               103.5916
 Red. masses --      2.8420                 4.0960                 1.6920
 Frc consts  --      0.0072                 0.0167                 0.0107
 IR Inten    --      0.6886                 1.6464                 1.6979

                      7                      8                      9
                      A                      A                      A
 Frequencies --    105.4627               120.5157               141.6870
 Red. masses --      2.6776                 3.7145                 2.9244
 Frc consts  --      0.0175                 0.0318                 0.0346
 IR Inten    --      1.0714                 5.0846                14.6218

                     10                     11                     12
                      A                      A                      A
 Frequencies --    155.1808               174.3029               184.4700
 Red. masses --      3.1068                 1.4777                 1.3580
 Frc consts  --      0.0441                 0.0265                 0.0272
 IR Inten    --     35.3837                 7.3128                 0.6066

                     13                     14                     15
                      A                      A                      A
 Frequencies --    217.1513               222.7292               247.6552
 Red. masses --      2.5309                 3.3564                 6.3094
 Frc consts  --      0.0703                 0.0981                 0.2280
 IR Inten    --      0.4665                10.9145                 0.9747

                     16                     17                     18
                      A                      A                      A
 Frequencies --    252.6187               277.9511               320.1838
 Red. masses --      2.2634                 4.5390                 3.3357
 Frc consts  --      0.0851                 0.2066                 0.2015
 IR Inten    --     19.6190                 4.2705                14.3419

                     19                     20                     21
                      A                      A                      A
 Frequencies --    347.0611               396.8174               426.7727
 Red. masses --      4.9834                 3.8513                 2.9459
 Frc consts  --      0.3537                 0.3573                 0.3161
 IR Inten    --      8.5216                46.6381                 0.2685

                     22                     23                     24
                      A                      A                      A
 Frequencies --    450.7596               473.7949               554.7091
 Red. masses --      3.1756                 3.3441                 3.2032
 Frc consts  --      0.3802                 0.4423                 0.5807
 IR Inten    --      9.1970                13.3801                67.9269

                     25                     26                     27
                      A                      A                      A
 Frequencies --    601.7049               625.0336               629.2276
 Red. masses --      3.0311                 3.4017                 1.6864
 Frc consts  --      0.6466                 0.7830                 0.3934
 IR Inten    --     13.8671                89.8779               106.2127

                     28                     29                     30
                      A                      A                      A
 Frequencies --    639.1986               679.8679               727.4158
 Red. masses --      6.0581                 2.5949                 1.6522
 Frc consts  --      1.4583                 0.7067                 0.5151
 IR Inten    --     12.9591                31.3093                98.7301

                     31                     32                     33
                      A                      A                      A
 Frequencies --    770.5664               788.2995               807.0875
 Red. masses --      2.3401                 5.3711                 2.2272
 Frc consts  --      0.8187                 1.9665                 0.8548
 IR Inten    --    188.7612                53.5287                 3.1247

                     34                     35                     36
                      A                      A                      A
 Frequencies --    834.4017               880.6514               933.7989
 Red. masses --      5.3337                 1.2419                 3.6460
 Frc consts  --      2.1879                 0.5675                 1.8731
 IR Inten    --     55.5368                 1.4307                99.7544

                     37                     38                     39
                      A                      A                      A
 Frequencies --    972.9547              1014.5077              1024.9935
 Red. masses --      1.4606                 1.2725                 2.4521
 Frc consts  --      0.8147                 0.7717                 1.5179
 IR Inten    --      5.1123                34.4510                23.5935

                     40                     41                     42
                      A                      A                      A
 Frequencies --   1028.6897              1030.0016              1035.8062
 Red. masses --      2.9345                 1.5689                 1.3218
 Frc consts  --      1.8296                 0.9807                 0.8356
 IR Inten    --     46.1655                37.2185                12.6892

                     43                     44                     45
                      A                      A                      A
 Frequencies --   1066.5215              1087.4596              1090.0136
 Red. masses --      2.1352                 1.4112                 3.0165
 Frc consts  --      1.4309                 0.9833                 2.1116
 IR Inten    --      4.1990                26.9040                22.5806

                     46                     47                     48
                      A                      A                      A
 Frequencies --   1108.1749              1122.6290              1131.2712
 Red. masses --      1.3984                 1.5765                 1.2349
 Frc consts  --      1.0118                 1.1706                 0.9311
 IR Inten    --    167.5262                 7.1952                 4.2297

                     49                     50                     51
                      A                      A                      A
 Frequencies --   1165.3938              1168.0055              1186.1122
 Red. masses --      1.7918                 2.0442                 1.1305
 Frc consts  --      1.4337                 1.6431                 0.9370
 IR Inten    --    203.4492                38.2921                 0.0179

                     52                     53                     54
                      A                      A                      A
 Frequencies --   1195.0658              1214.0477              1233.3500
 Red. masses --      1.7644                 1.1599                 1.3265
 Frc consts  --      1.4847                 1.0073                 1.1888
 IR Inten    --    227.8858                13.0083                59.2807

                     55                     56                     57
                      A                      A                      A
 Frequencies --   1312.8969              1325.1987              1336.2147
 Red. masses --      5.4984                 4.3132                 2.2523
 Frc consts  --      5.5840                 4.4628                 2.3693
 IR Inten    --     25.9032                 0.1071               171.3499

                     58                     59                     60
                      A                      A                      A
 Frequencies --   1357.2350              1368.8952              1419.8911
 Red. masses --      1.4024                 1.3280                 3.0445
 Frc consts  --      1.5221                 1.4661                 3.6164
 IR Inten    --     13.4431                 7.3493                50.7342

                     61                     62                     63
                      A                      A                      A
 Frequencies --   1430.8983              1447.6833              1458.3870
 Red. masses --      1.2660                 1.5644                 1.2781
 Frc consts  --      1.5272                 1.9317                 1.6017
 IR Inten    --    219.0634               648.6795                70.9307

                     64                     65                     66
                      A                      A                      A
 Frequencies --   1477.2167              1486.8278              1492.3555
 Red. masses --      1.3183                 1.0396                 1.1312
 Frc consts  --      1.6949                 1.3540                 1.4844
 IR Inten    --    243.2120                18.7408                11.1508

                     67                     68                     69
                      A                      A                      A
 Frequencies --   1493.0627              1494.2126              1503.3211
 Red. masses --      1.3698                 1.3527                 1.0360
 Frc consts  --      1.7991                 1.7794                 1.3794
 IR Inten    --     40.3093                72.8694                12.6282

                     70                     71                     72
                      A                      A                      A
 Frequencies --   1505.6363              1533.9113              1542.6101
 Red. masses --      1.1009                 1.4808                 2.2589
 Frc consts  --      1.4704                 2.0528                 3.1671
 IR Inten    --     10.3210               253.1690                11.1275

                     73                     74                     75
                      A                      A                      A
 Frequencies --   1588.3699              1643.9128              1653.6822
 Red. masses --      3.4273                 1.2470                 5.5243
 Frc consts  --      5.0946                 1.9855                 8.9009
 IR Inten    --    707.1735                12.7327                 2.2891

                     76                     77                     78
                      A                      A                      A
 Frequencies --   1673.5743              3017.5299              3023.8273
 Red. masses --      5.8638                 1.0478                 1.0465
 Frc consts  --      9.6765                 5.6215                 5.6377
 IR Inten    --      0.1646                73.3523               160.2716

                     79                     80                     81
                      A                      A                      A
 Frequencies --   3053.0514              3083.3048              3105.6832
 Red. masses --      1.0371                 1.0973                 1.0866
 Frc consts  --      5.6955                 6.1465                 6.1749
 IR Inten    --     47.5911                70.4378                39.1000

                     82                     83                     84
                      A                      A                      A
 Frequencies --   3127.4890              3147.8836              3168.5128
 Red. masses --      1.0998                 1.1037                 1.1048
 Frc consts  --      6.3381                 6.4438                 6.5348
 IR Inten    --     11.7764                20.5183                17.1689

                     85                     86                     87
                      A                      A                      A
 Frequencies --   3186.6253              3196.1984              3202.3601
 Red. masses --      1.0959                 1.0862                 1.0888
 Frc consts  --      6.5566                 6.5375                 6.5786
 IR Inten    --      4.7686                 3.2853                 4.6978

                     88                     89                     90
                      A                      A                      A
 Frequencies --   3211.7558              3222.2833              3230.9809
 Red. masses --      1.0929                 1.0967                 1.0948
 Frc consts  --      6.6421                 6.7091                 6.7337
 IR Inten    --     24.2684                20.3872                10.1546

                     91                     92                     93
                      A                      A                      A
 Frequencies --   3255.3632              3361.1442              3599.1817
 Red. masses --      1.0896                 1.0675                 1.0825
 Frc consts  --      6.8029                 7.1055                 8.2619
 IR Inten    --      0.6242               176.6416                91.7549

 - Thermochemistry -
 -------------------
 Temperature   298.150 Kelvin.  Pressure   1.00000 Atm.
 Atom     1 has atomic number  6 and mass  12.00000

 Molecular mass:   284.05242 amu.
 Principal axes and moments of inertia in atomic units:
                           1         2         3
     Eigenvalues --  3873.067505408.569357351.29285
           X            0.99705  -0.07348  -0.02223
           Y            0.07206   0.99565  -0.05908
           Z            0.02647   0.05731   0.99801
 This molecule is an asymmetric top.
 Rotational symmetry number  1.
 Warning -- assumption of classical behavior for rotation
           may cause significant error
 Rotational temperatures (Kelvin)      0.02236     0.01601     0.01178
 Rotational constants (GHZ):           0.46597     0.33368     0.24550
    1 imaginary frequencies ignored.
 Zero-point vibrational energy     723425.9 (Joules/Mol)
                                  172.90294 (Kcal/Mol)
 Warning -- explicit consideration of  24 degrees of freedom as
           vibrations may cause significant error
 Vibrational temperatures:     60.89    74.10    94.33   119.63   149.05
          (Kelvin)            151.74   173.40   203.86   223.27   250.78
                              265.41   312.43   320.46   356.32   363.46
                              399.91   460.67   499.34   570.93   614.03
                              648.54   681.69   798.10   865.72   899.28
                              905.32   919.66   978.18  1046.59  1108.67
                             1134.19  1161.22  1200.52  1267.06  1343.53
                             1399.86  1459.65  1474.74  1480.06  1481.94
                             1490.29  1534.49  1564.61  1568.29  1594.42
                             1615.21  1627.65  1676.74  1680.50  1706.55
                             1719.43  1746.74  1774.52  1888.97  1906.67
                             1922.51  1952.76  1969.53  2042.91  2058.74
                             2082.89  2098.29  2125.39  2139.21  2147.17
                             2148.18  2149.84  2162.94  2166.27  2206.96
                             2219.47  2285.31  2365.22  2379.28  2407.90
                             4341.55  4350.61  4392.66  4436.19  4468.39
                             4499.76  4529.10  4558.78  4584.84  4598.62
                             4607.48  4621.00  4636.15  4648.66  4683.74
                             4835.94  5178.42

 Zero-point correction=                           0.275538 (Hartree/Particle)
 Thermal correction to Energy=                    0.292605
 Thermal correction to Enthalpy=                  0.293549
 Thermal correction to Gibbs Free Energy=         0.229763
 Sum of electronic and zero-point Energies=          -3226.173760
 Sum of electronic and thermal Energies=             -3226.156693
 Sum of electronic and thermal Enthalpies=           -3226.155749
 Sum of electronic and thermal Free Energies=        -3226.219536

                     E (Thermal)             CV                S
                      KCal/Mol        Cal/Mol-Kelvin    Cal/Mol-Kelvin
 Total                  183.612             62.102            134.251
 Electronic               0.000              0.000              0.000
 Translational            0.889              2.981             42.830
 Rotational               0.889              2.981             33.398
 Vibrational            181.835             56.140             58.022
 Vibration     1          0.595              1.980              5.147
 Vibration     2          0.596              1.977              4.759
 Vibration     3          0.597              1.971              4.282
 Vibration     4          0.600              1.961              3.815
 Vibration     5          0.605              1.946              3.386
 Vibration     6          0.605              1.945              3.351
 Vibration     7          0.609              1.932              3.092
 Vibration     8          0.615              1.912              2.781
 Vibration     9          0.620              1.897              2.608
 Vibration    10          0.627              1.874              2.389
 Vibration    11          0.631              1.861              2.283
 Vibration    12          0.646              1.815              1.983
 Vibration    13          0.648              1.806              1.937
 Vibration    14          0.661              1.767              1.747
 Vibration    15          0.664              1.758              1.712
 Vibration    16          0.679              1.714              1.546
 Vibration    17          0.706              1.635              1.309
 Vibration    18          0.725              1.581              1.179
 Vibration    19          0.763              1.477              0.974
 Vibration    20          0.788              1.412              0.869
 Vibration    21          0.810              1.359              0.793
 Vibration    22          0.831              1.308              0.727
 Vibration    23          0.910              1.129              0.534
 Vibration    24          0.960              1.028              0.447

 Optimization completed.
    -- Stationary point found.
 Normal termination of Gaussian 16 at Thu Apr  1 03:00:58 2021.
