 Gaussian 16, Revision A.03,
 Gaussian 16:  ES64L-G16RevA.03 25-Dec-2016

 ----------------------------------------------------------------------
 # wB97XD def2tzvp, opt=(ts, noeigen, calcfc, maxcycles=70, maxstep=8),
  freq=noraman, scrf=(iefpcm, solvent=water)
 ----------------------------------------------------------------------

 ------------------------
 1_iteration/TS-683-1.out
 ------------------------
 Symbolic Z-matrix:
 Charge =  0 Multiplicity = 1

 SCF Done:  E(RwB97XD) =  -3187.15736104     A.U. after   14 cycles
 SCF Done:  E(RwB97XD) =  -3187.15747531     A.U. after   11 cycles
 SCF Done:  E(RwB97XD) =  -3187.15747837     A.U. after    9 cycles
 SCF Done:  E(RwB97XD) =  -3187.15747854     A.U. after    7 cycles
 Optimization completed.
    -- Stationary point found.
 Normal termination of Gaussian 16 at Sat Feb 20 10:34:46 2021.

 ---------------------------------------------------------------------
 #N Geom=AllCheck Guess=TCheck SCRF=Check GenChk RwB97XD/def2TZVP Freq
 ---------------------------------------------------------------------

 Structure from the checkpoint file:  "/beegfs/scratch/user/q/tla25/Gau-2662.chk"
 ------------------------
 1_iteration/TS-683-1.out
 ------------------------
 Charge =  0 Multiplicity = 1

                         Standard orientation:
 ---------------------------------------------------------------------
 Center     Atomic      Atomic             Coordinates (Angstroms)
 Number     Number       Type             X           Y           Z
 ---------------------------------------------------------------------
      1          6           0       -0.199892    0.803635   -0.339103
      2          6           0       -0.354647    2.182255   -0.760902
      3          8           0       -1.422996    2.756182   -1.016480
      4          6           0       -1.300846   -0.024288   -0.123744
      5          6           0       -1.770473    0.988223    2.412850
      6          1           0       -1.532820    0.913232    3.472855
      7          1           0       -1.124956    1.737455    1.950158
      8          1           0       -2.808063    1.289793    2.295837
      9          7           0       -1.551199   -0.281454    1.727461
     10          1           0       -0.687807   -0.720678    2.027715
     11          1           0       -2.303125   -0.942808    1.888365
     12         35           0       -0.989691   -1.962718   -0.514778
     13          6           0       -2.703992    0.325594   -0.532152
     14          1           0       -2.983095    1.291745   -0.122040
     15          1           0       -2.753935    0.405359   -1.617265
     16          1           0       -3.404587   -0.440475   -0.204849
     17          6           0        1.179713    0.302706   -0.056247
     18          6           0        1.974612   -0.219534   -1.078185
     19          6           0        3.259501   -0.676003   -0.828047
     20          6           0        3.780463   -0.620285    0.457839
     21          6           0        3.011007   -0.095035    1.484584
     22          6           0        1.727666    0.367142    1.224966
     23          1           0        1.569318   -0.269480   -2.081776
     24          1           0        3.855327   -1.078791   -1.637764
     25          1           0        4.782608   -0.979034    0.656054
     26          1           0        3.411203   -0.036447    2.489134
     27          1           0        1.150733    0.805174    2.031446
     28          7           0        0.808569    2.913831   -0.859567
     29          1           0        1.700425    2.452939   -0.889569
     30          1           0        0.731671    3.784580   -1.355605
 ---------------------------------------------------------------------

 SCF Done:  E(RwB97XD) =  -3187.15747854     A.U. after    1 cycles

 The electronic state is 1-A.
 Alpha  occ. eigenvalues -- -483.12066 -62.66921 -56.46015 -56.45695 -56.45680
 Alpha  occ. eigenvalues --  -19.19132 -14.49524 -14.42979 -10.39788 -10.37475
 Alpha  occ. eigenvalues --  -10.31999 -10.29899 -10.29015 -10.28961 -10.28903
 Alpha  occ. eigenvalues --  -10.28889 -10.28680 -10.28246 -10.26169  -8.81022
 Alpha  occ. eigenvalues --   -6.63099  -6.62093  -6.62043  -2.73490  -2.73218
 Alpha  occ. eigenvalues --   -2.73179  -2.72364  -2.72363  -1.11771  -1.05064
 Alpha  occ. eigenvalues --   -0.98692  -0.96564  -0.93101  -0.86837  -0.84989
 Alpha  occ. eigenvalues --   -0.83843  -0.79841  -0.79385  -0.70647  -0.70140
 Alpha  occ. eigenvalues --   -0.69490  -0.63986  -0.63319  -0.61586  -0.59623
 Alpha  occ. eigenvalues --   -0.57938  -0.56333  -0.55540  -0.54101  -0.53322
 Alpha  occ. eigenvalues --   -0.52208  -0.50813  -0.50294  -0.49712  -0.48904
 Alpha  occ. eigenvalues --   -0.47809  -0.47459  -0.46368  -0.44529  -0.43457
 Alpha  occ. eigenvalues --   -0.42380  -0.42248  -0.37248  -0.36894  -0.34809
 Alpha  occ. eigenvalues --   -0.34260  -0.33385  -0.31761  -0.27348
 Alpha virt. eigenvalues --    0.04607   0.05035   0.05114   0.07120   0.10050
 Alpha virt. eigenvalues --    0.12823   0.13448   0.14007   0.14321   0.15603
 Alpha virt. eigenvalues --    0.16407   0.16854   0.17892   0.18331   0.18480

 Mulliken charges:
               1
     1  C   -0.249555
     2  C    0.317058
     3  O   -0.545645
     4  C    0.118011
     5  C   -0.332505
     6  H    0.168355
     7  H    0.163056
     8  H    0.171426
     9  N   -0.295707
    10  H    0.286031
    11  H    0.293607
    12  Br  -0.168570
    13  C   -0.338616
    14  H    0.153251
    15  H    0.145994
    16  H    0.143536
    17  C    0.130138
    18  C   -0.233932
    19  C   -0.134922
    20  C   -0.132224
    21  C   -0.173062
    22  C   -0.266290
    23  H    0.137836
    24  H    0.140935
    25  H    0.143573
    26  H    0.140028
    27  H    0.172186
    28  N   -0.479964
    29  H    0.270448
    30  H    0.255521
 Sum of Mulliken charges =  -0.00000

 Dipole moment (field-independent basis, Debye):
    X=              0.5722    Y=             -2.6817    Z=              6.2110  Tot=              6.7894
 Quadrupole moment (field-independent basis, Debye-Ang):
   XX=            -90.9196   YY=           -116.3938   ZZ=            -88.7025
   XY=              8.5293   XZ=            -12.9554   YZ=              1.4095

  Exact polarizability: 254.982  -7.895 237.063  -4.651  -0.899 228.048
 Approx polarizability: 201.889 -10.003 190.421  -2.148   0.916 193.050

 ******    1 imaginary frequencies (negative Signs) ******

                      1                      2                      3
                      A                      A                      A
 Frequencies --   -378.3272                44.8384                58.7327
 Red. masses --      5.4617                 4.4153                 5.1002
 Frc consts  --      0.4606                 0.0052                 0.0104
 IR Inten    --    622.3882                 3.3378                 9.4104

                      4                      5                      6
                      A                      A                      A
 Frequencies --     68.5935                73.0369               102.6801
 Red. masses --      5.9661                 4.6676                 3.9412
 Frc consts  --      0.0165                 0.0147                 0.0245
 IR Inten    --      1.9531                11.7210                 1.1763

                      7                      8                      9
                      A                      A                      A
 Frequencies --    142.4491               164.9063               176.6435
 Red. masses --      2.6397                 4.7357                 3.5459
 Frc consts  --      0.0316                 0.0759                 0.0652
 IR Inten    --      6.3200                 1.1788                 2.9634

                     10                     11                     12
                      A                      A                      A
 Frequencies --    204.5347               209.0074               257.8691
 Red. masses --      1.4981                 2.4208                 2.5169
 Frc consts  --      0.0369                 0.0623                 0.0986
 IR Inten    --      9.9475                 8.3431                23.0231

                     13                     14                     15
                      A                      A                      A
 Frequencies --    284.8908               293.6454               304.5040
 Red. masses --      2.4610                 2.6795                 2.2587
 Frc consts  --      0.1177                 0.1361                 0.1234
 IR Inten    --     26.9501                18.4051                33.5981

                     16                     17                     18
                      A                      A                      A
 Frequencies --    339.6335               359.0234               371.5546
 Red. masses --      1.3787                 2.2236                 3.2620
 Frc consts  --      0.0937                 0.1689                 0.2653
 IR Inten    --    396.9093                 5.5485                33.0895

                     19                     20                     21
                      A                      A                      A
 Frequencies --    397.4869               427.2033               461.3697
 Red. masses --      4.2864                 2.8987                 3.2801
 Frc consts  --      0.3990                 0.3117                 0.4114
 IR Inten    --     38.5141                 0.1530                19.6562

                     22                     23                     24
                      A                      A                      A
 Frequencies --    495.4463               542.3219               581.8513
 Red. masses --      1.2555                 3.2277                 3.3963
 Frc consts  --      0.1816                 0.5593                 0.6775
 IR Inten    --     53.3472                27.0065                93.3172

                     25                     26                     27
                      A                      A                      A
 Frequencies --    591.8559               640.6952               673.1728
 Red. masses --      2.9957                 6.2205                 5.4528
 Frc consts  --      0.6183                 1.5044                 1.4559
 IR Inten    --    130.1831                 1.2966                 6.3950

                     28                     29                     30
                      A                      A                      A
 Frequencies --    703.7857               734.1248               765.5309
 Red. masses --      1.5877                 1.5131                 3.3332
 Frc consts  --      0.4633                 0.4804                 1.1509
 IR Inten    --     59.8778                89.4229               105.6777

                     31                     32                     33
                      A                      A                      A
 Frequencies --    796.1286               799.2164               884.2763
 Red. masses --      4.0650                 3.1845                 1.2454
 Frc consts  --      1.5180                 1.1984                 0.5738
 IR Inten    --     27.3511                28.7457                 0.0410

                     34                     35                     36
                      A                      A                      A
 Frequencies --    958.2158               974.6152              1009.7457
 Red. masses --      1.4523                 4.3861                 1.1163
 Frc consts  --      0.7856                 2.4547                 0.6706
 IR Inten    --      6.5351                31.8413                19.4628

                     37                     38                     39
                      A                      A                      A
 Frequencies --   1016.8064              1027.3431              1030.5232
 Red. masses --      1.4290                 3.7015                 1.4189
 Frc consts  --      0.8705                 2.3017                 0.8878
 IR Inten    --      0.8531                 0.8534                 0.7564

                     40                     41                     42
                      A                      A                      A
 Frequencies --   1048.0215              1061.4832              1067.5085
 Red. masses --      1.2405                 2.0079                 1.7907
 Frc consts  --      0.8028                 1.3329                 1.2023
 IR Inten    --     11.8615                58.2582                53.4935

                     43                     44                     45
                      A                      A                      A
 Frequencies --   1071.5543              1080.3005              1107.9020
 Red. masses --      1.6151                 3.2153                 1.7522
 Frc consts  --      1.0927                 2.2108                 1.2672
 IR Inten    --    131.7432                 1.2859                22.0297

                     46                     47                     48
                      A                      A                      A
 Frequencies --   1111.5935              1139.3461              1182.8003
 Red. masses --      1.5869                 3.0697                 1.1333
 Frc consts  --      1.1553                 2.3478                 0.9341
 IR Inten    --     27.3049               115.9177                 0.0962

                     49                     50                     51
                      A                      A                      A
 Frequencies --   1210.0940              1226.7072              1276.8259
 Red. masses --      1.1264                 1.3822                 3.8226
 Frc consts  --      0.9718                 1.2255                 3.6717
 IR Inten    --      0.1810                43.4357                12.6155

                     52                     53                     54
                      A                      A                      A
 Frequencies --   1304.5016              1338.8422              1357.0475
 Red. masses --      4.6310                 1.3210                 1.8929
 Frc consts  --      4.6431                 1.3951                 2.0539
 IR Inten    --      2.2707                 1.0447               315.1930

                     55                     56                     57
                      A                      A                      A
 Frequencies --   1362.2099              1411.1545              1440.1991
 Red. masses --      2.7051                 1.5253                 1.7637
 Frc consts  --      2.9575                 1.7896                 2.1554
 IR Inten    --    610.5360               331.8264               295.8452

                     58                     59                     60
                      A                      A                      A
 Frequencies --   1460.0470              1463.4525              1485.0496
 Red. masses --      1.4205                 1.0752                 1.4105
 Frc consts  --      1.7842                 1.3567                 1.8328
 IR Inten    --    172.5978                 9.9443                42.3407

                     61                     62                     63
                      A                      A                      A
 Frequencies --   1486.6264              1498.8198              1504.7582
 Red. masses --      1.6483                 1.0418                 1.0383
 Frc consts  --      2.1463                 1.3790                 1.3851
 IR Inten    --     37.2292                 9.1488                17.3203

                     64                     65                     66
                      A                      A                      A
 Frequencies --   1544.2838              1615.8799              1643.6729
 Red. masses --      2.3948                 1.3242                 4.9724
 Frc consts  --      3.3650                 2.0371                 7.9149
 IR Inten    --     31.3783               326.2103                 8.2218

                     67                     68                     69
                      A                      A                      A
 Frequencies --   1646.9642              1658.0072              1672.3031
 Red. masses --      1.1153                 5.0003                 5.8302
 Frc consts  --      1.7824                 8.0988                 9.6064
 IR Inten    --     59.1961               711.2268                 8.5084

                     70                     71                     72
                      A                      A                      A
 Frequencies --   3065.7660              3082.4678              3143.4552
 Red. masses --      1.0357                 1.0368                 1.1021
 Frc consts  --      5.7354                 5.8044                 6.4161
 IR Inten    --     34.7229                16.4974                 7.3306

                     73                     74                     75
                      A                      A                      A
 Frequencies --   3157.4828              3176.8662              3187.3007
 Red. masses --      1.1034                 1.1052                 1.1008
 Frc consts  --      6.4813                 6.5719                 6.5887
 IR Inten    --     15.4691                11.8945                 1.7472

                     76                     77                     78
                      A                      A                      A
 Frequencies --   3188.9181              3191.9363              3201.6251
 Red. masses --      1.0858                 1.0878                 1.0912
 Frc consts  --      6.5055                 6.5301                 6.5899
 IR Inten    --      9.2969                 1.9203                14.6243

                     79                     80                     81
                      A                      A                      A
 Frequencies --   3208.9496              3219.9953              3518.0700
 Red. masses --      1.0951                 1.0988                 1.0511
 Frc consts  --      6.6438                 6.7126                 7.6648
 IR Inten    --     45.8651                17.8616                40.9093

                     82                     83                     84
                      A                      A                      A
 Frequencies --   3599.2156              3616.9323              3738.0606
 Red. masses --      1.0965                 1.0459                 1.1030
 Frc consts  --      8.3687                 8.0619                 9.0807
 IR Inten    --     70.0239                54.0442                75.4776

 - Thermochemistry -
 -------------------
 Temperature   298.150 Kelvin.  Pressure   1.00000 Atm.
 Atom     1 has atomic number  6 and mass  12.00000

 Molecular mass:   270.03677 amu.
 Principal axes and moments of inertia in atomic units:
                           1         2         3
     Eigenvalues --  3413.425844301.560185632.07509
           X            0.99412  -0.10521  -0.02577
           Y            0.10485   0.99438  -0.01495
           Z            0.02720   0.01216   0.99956
 This molecule is an asymmetric top.
 Rotational symmetry number  1.
 Warning -- assumption of classical behavior for rotation
           may cause significant error
 Rotational temperatures (Kelvin)      0.02537     0.02014     0.01538
 Rotational constants (GHZ):           0.52872     0.41956     0.32044
    1 imaginary frequencies ignored.
 Zero-point vibrational energy     650429.1 (Joules/Mol)
                                  155.45629 (Kcal/Mol)
 Warning -- explicit consideration of  24 degrees of freedom as
           vibrations may cause significant error
 Vibrational temperatures:     64.51    84.50    98.69   105.08   147.73
          (Kelvin)            204.95   237.26   254.15   294.28   300.71
                              371.02   409.89   422.49   438.11   488.66
                              516.55   534.58   571.90   614.65   663.81
                              712.84   780.28   837.15   851.55   921.82
                              968.55  1012.59  1056.24  1101.43  1145.45
                             1149.89  1272.28  1378.66  1402.25  1452.80
                             1462.96  1478.12  1482.69  1507.87  1527.24
                             1535.91  1541.73  1554.31  1594.02  1599.34
                             1639.26  1701.79  1741.06  1764.96  1837.07
                             1876.89  1926.30  1952.49  1959.92  2030.34
                             2072.13  2100.68  2105.58  2136.66  2138.92
                             2156.47  2165.01  2221.88  2324.89  2364.88
                             2369.61  2385.50  2406.07  4410.95  4434.98
                             4522.73  4542.91  4570.80  4585.81  4588.14
                             4592.48  4606.42  4616.96  4632.86  5061.72
                             5178.47  5203.96  5378.24

 Zero-point correction=                           0.247735 (Hartree/Particle)
 Thermal correction to Energy=                    0.263316
 Thermal correction to Enthalpy=                  0.264260
 Thermal correction to Gibbs Free Energy=         0.204285
 Sum of electronic and zero-point Energies=          -3186.909743
 Sum of electronic and thermal Energies=             -3186.894163
 Sum of electronic and thermal Enthalpies=           -3186.893219
 Sum of electronic and thermal Free Energies=        -3186.953193

                     E (Thermal)             CV                S
                      KCal/Mol        Cal/Mol-Kelvin    Cal/Mol-Kelvin
 Total                  165.233             58.161            126.227
 Electronic               0.000              0.000              0.000
 Translational            0.889              2.981             42.679
 Rotational               0.889              2.981             32.780
 Vibrational            163.456             52.200             50.767
 Vibration     1          0.595              1.979              5.033
 Vibration     2          0.596              1.974              4.499
 Vibration     3          0.598              1.969              4.193
 Vibration     4          0.599              1.967              4.070
 Vibration     5          0.605              1.947              3.403
 Vibration     6          0.616              1.911              2.771
 Vibration     7          0.623              1.886              2.493
 Vibration     8          0.628              1.871              2.364
 Vibration     9          0.640              1.833              2.092
 Vibration    10          0.642              1.827              2.052
 Vibration    11          0.667              1.749              1.676
 Vibration    12          0.683              1.702              1.504
 Vibration    13          0.688              1.686              1.453
 Vibration    14          0.695              1.665              1.392
 Vibration    15          0.720              1.596              1.214
 Vibration    16          0.734              1.557              1.126
 Vibration    17          0.743              1.531              1.073
 Vibration    18          0.764              1.476              0.972
 Vibration    19          0.789              1.411              0.868
 Vibration    20          0.819              1.336              0.762
 Vibration    21          0.851              1.260              0.670
 Vibration    22          0.897              1.157              0.560
 Vibration    23          0.939              1.071              0.482
 Vibration    24          0.949              1.049              0.464

 Optimization completed.
    -- Stationary point found.
 Normal termination of Gaussian 16 at Sat Feb 20 11:43:48 2021.
