 Gaussian 16, Revision A.03,
 Gaussian 16:  ES64L-G16RevA.03 25-Dec-2016

 ----------------------------------------------------------------------
 # wB97XD def2tzvp, opt=(ts, noeigen, calcfc, maxcycles=70, maxstep=8),
  freq=noraman, scrf=(iefpcm, solvent=water)
 ----------------------------------------------------------------------

 ------------------------
 1_iteration/TS-604-1.out
 ------------------------
 Symbolic Z-matrix:
 Charge =  0 Multiplicity = 1

 SCF Done:  E(RwB97XD) =  -3438.04865254     A.U. after   16 cycles
 Optimization completed.
    -- Stationary point found.
 Normal termination of Gaussian 16 at Sun Mar 28 23:33:21 2021.

 ---------------------------------------------------------------------
 #N Geom=AllCheck Guess=TCheck SCRF=Check GenChk RwB97XD/def2TZVP Freq
 ---------------------------------------------------------------------

 Structure from the checkpoint file:  "/beegfs/scratch/user/q/tla25/Gau-79618.chk"
 ------------------------
 1_iteration/TS-604-1.out
 ------------------------
 Charge =  0 Multiplicity = 1

                         Standard orientation:
 ---------------------------------------------------------------------
 Center     Atomic      Atomic             Coordinates (Angstroms)
 Number     Number       Type             X           Y           Z
 ---------------------------------------------------------------------
      1          6           0        0.531109    0.561890    0.054971
      2          6           0       -0.057180    1.905121   -0.065419
      3          8           0        0.327270    2.887430    0.540261
      4          6           0       -0.301171   -0.553679    0.149951
      5          6           0        0.260199   -0.582349    2.878341
      6          1           0        1.051889   -1.045910    3.461371
      7          1           0        0.615919    0.371000    2.480251
      8          1           0       -0.602841   -0.410619    3.514531
      9          7           0       -0.104812   -1.439809    1.744661
     10          1           0        0.581548   -2.166540    1.582931
     11          1           0       -0.993662   -1.907259    1.890081
     12         35           0        0.276528   -2.177979   -0.978609
     13          6           0       -1.798221   -0.383639    0.121291
     14          6           0       -2.401591    0.336062    1.153731
     15          6           0       -3.765831    0.568962    1.156441
     16          6           0       -4.556801    0.083012    0.125981
     17          6           0       -3.967191   -0.635398   -0.901649
     18          6           0       -2.600521   -0.871538   -0.901989
     19          1           0       -1.799621    0.750901    1.951031
     20          1           0       -4.208591    1.135902    1.965171
     21          1           0       -5.624041    0.263373    0.124891
     22          1           0       -4.571751   -1.017438   -1.714239
     23          1           0       -2.159912   -1.427139   -1.716559
     24          6           0        2.006239    0.514080    0.036941
     25          6           0        2.768749   -0.490030    0.643811
     26          6           0        4.154489   -0.508621    0.566521
     27          6           0        4.836409    0.482569   -0.117809
     28          6           0        4.104100    1.491059   -0.731939
     29          6           0        2.723750    1.501760   -0.658679
     30          1           0        2.299209   -1.289150    1.194411
     31          1           0        4.699269   -1.307981    1.053771
     32          1           0        5.917189    0.470408   -0.176139
     33          1           0        4.612470    2.272769   -1.283319
     34          1           0        2.185720    2.294900   -1.161269
     35          8           0       -1.052180    1.994391   -0.963839
     36          6           0       -1.796960    3.206861   -0.974019
     37          1           0       -2.574410    3.070102   -1.721089
     38          1           0       -2.247350    3.386542    0.003251
     39          1           0       -1.164019    4.052791   -1.240549
 ---------------------------------------------------------------------

 SCF Done:  E(RwB97XD) =  -3438.04865254     A.U. after    1 cycles

 The electronic state is 1-A.
 Alpha  occ. eigenvalues -- -483.11793 -62.66633 -56.45723 -56.45412 -56.45401
 Alpha  occ. eigenvalues --  -19.28841 -19.22471 -14.51434 -10.40882 -10.40791
 Alpha  occ. eigenvalues --  -10.32818 -10.32596 -10.31668 -10.30430 -10.29880
 Alpha  occ. eigenvalues --  -10.29586 -10.29582 -10.29507 -10.29450 -10.28618
 Alpha  occ. eigenvalues --  -10.28541 -10.28510 -10.28211 -10.28182 -10.27564
 Alpha  occ. eigenvalues --   -8.80718  -6.62769  -6.61796  -6.61757  -2.73156
 Alpha  occ. eigenvalues --   -2.72900  -2.72867  -2.72081  -2.72081  -1.20623
 Alpha  occ. eigenvalues --   -1.10978  -1.06699  -0.98077  -0.96462  -0.92761
 Alpha  occ. eigenvalues --   -0.87507  -0.86340  -0.85398  -0.84618  -0.83553
 Alpha  occ. eigenvalues --   -0.80411  -0.80301  -0.74149  -0.71249  -0.70715
 Alpha  occ. eigenvalues --   -0.69252  -0.67796  -0.65910  -0.64142  -0.61937
 Alpha  occ. eigenvalues --   -0.61203  -0.59182  -0.58374  -0.57236  -0.57090
 Alpha  occ. eigenvalues --   -0.55860  -0.55318  -0.54551  -0.53765  -0.52823
 Alpha  occ. eigenvalues --   -0.51762  -0.51496  -0.50634  -0.50340  -0.49316
 Alpha  occ. eigenvalues --   -0.48343  -0.46940  -0.46534  -0.46491  -0.45476
 Alpha  occ. eigenvalues --   -0.44148  -0.43806  -0.42933  -0.42358  -0.42160
 Alpha  occ. eigenvalues --   -0.38799  -0.37645  -0.37047  -0.36775  -0.34585
 Alpha  occ. eigenvalues --   -0.34279  -0.33614  -0.33115  -0.26194
 Alpha virt. eigenvalues --    0.01545   0.03529   0.04719   0.05819   0.06863
 Alpha virt. eigenvalues --    0.07307   0.10126   0.12139   0.12645   0.13444
 Alpha virt. eigenvalues --    0.14011   0.14744   0.15103   0.15980   0.16624

 Mulliken charges:
               1
     1  C   -0.238315
     2  C    0.343834
     3  O   -0.447830
     4  C    0.315479
     5  C   -0.326760
     6  H    0.176577
     7  H    0.166438
     8  H    0.177891
     9  N   -0.261100
    10  H    0.284298
    11  H    0.302444
    12  Br  -0.216785
    13  C    0.065748
    14  C   -0.277607
    15  C   -0.153916
    16  C   -0.131805
    17  C   -0.148155
    18  C   -0.238081
    19  H    0.183100
    20  H    0.145472
    21  H    0.146718
    22  H    0.144421
    23  H    0.148747
    24  C    0.187985
    25  C   -0.197426
    26  C   -0.192062
    27  C   -0.158832
    28  C   -0.160163
    29  C   -0.237011
    30  H    0.111235
    31  H    0.136724
    32  H    0.138914
    33  H    0.137333
    34  H    0.139669
    35  O   -0.277105
    36  C   -0.204093
    37  H    0.142799
    38  H    0.134417
    39  H    0.136802
 Sum of Mulliken charges =   0.00000

 Dipole moment (field-independent basis, Debye):
    X=             -4.9803    Y=             -4.2850    Z=              5.1837  Tot=              8.3687
 Quadrupole moment (field-independent basis, Debye-Ang):
   XX=           -121.4110   YY=           -139.7116   ZZ=           -123.1409
   XY=             -7.9342   XZ=              0.0979   YZ=            -15.4746

  Exact polarizability: 416.678  -0.003 324.212   1.994   6.383 283.311
 Approx polarizability: 305.532  -2.698 267.653   2.630   7.086 245.366

 ******    1 imaginary frequencies (negative Signs) ******

                      1                      2                      3
                      A                      A                      A
 Frequencies --   -345.5679                20.5617                28.8089
 Red. masses --      6.0689                 4.5352                 4.5329
 Frc consts  --      0.4270                 0.0011                 0.0022
 IR Inten    --    379.5937                 0.7461                 2.3654

                      4                      5                      6
                      A                      A                      A
 Frequencies --     52.1480                68.9644                72.7608
 Red. masses --      5.1958                 4.2449                 4.4508
 Frc consts  --      0.0083                 0.0119                 0.0139
 IR Inten    --      3.4660                 2.4402                 0.6931

                      7                      8                      9
                      A                      A                      A
 Frequencies --     81.9898               112.5132               118.3682
 Red. masses --      4.2789                 3.3345                 3.2056
 Frc consts  --      0.0169                 0.0249                 0.0265
 IR Inten    --      4.7857                 0.5192                 1.5501

                     10                     11                     12
                      A                      A                      A
 Frequencies --    140.2304               166.7069               172.7735
 Red. masses --      6.0203                 1.3064                 3.6688
 Frc consts  --      0.0698                 0.0214                 0.0645
 IR Inten    --      5.9673                 0.6999                 5.3569

                     13                     14                     15
                      A                      A                      A
 Frequencies --    179.9250               193.8587               223.0750
 Red. masses --      3.2373                 1.8070                 2.1828
 Frc consts  --      0.0617                 0.0400                 0.0640
 IR Inten    --     10.9790                 4.7949                 6.6077

                     16                     17                     18
                      A                      A                      A
 Frequencies --    230.6115               244.0430               251.0577
 Red. masses --      5.5723                 5.2074                 4.3540
 Frc consts  --      0.1746                 0.1827                 0.1617
 IR Inten    --     31.6356                43.5558                10.8648

                     19                     20                     21
                      A                      A                      A
 Frequencies --    278.6378               296.1797               321.4261
 Red. masses --      3.8260                 3.9621                 5.0434
 Frc consts  --      0.1750                 0.2048                 0.3070
 IR Inten    --     17.9158                23.0010                 2.5280

                     22                     23                     24
                      A                      A                      A
 Frequencies --    345.5874               369.8944               412.4571
 Red. masses --      3.6262                 4.9919                 4.8912
 Frc consts  --      0.2552                 0.4024                 0.4903
 IR Inten    --     26.7863                20.4927                44.2637

                     25                     26                     27
                      A                      A                      A
 Frequencies --    424.4126               426.7609               501.7162
 Red. masses --      2.9320                 2.9419                 4.0788
 Frc consts  --      0.3112                 0.3157                 0.6049
 IR Inten    --      4.1345                 1.0683                15.8305

                     28                     29                     30
                      A                      A                      A
 Frequencies --    556.2990               571.4356               631.5114
 Red. masses --      3.2012                 4.8826                 6.3794
 Frc consts  --      0.5837                 0.9394                 1.4990
 IR Inten    --     39.4947                24.0808                59.9751

                     31                     32                     33
                      A                      A                      A
 Frequencies --    638.2441               649.4308               652.9681
 Red. masses --      6.2216                 5.4128                 4.6487
 Frc consts  --      1.4932                 1.3450                 1.1678
 IR Inten    --     16.0518                98.4386               231.6735

                     34                     35                     36
                      A                      A                      A
 Frequencies --    693.0164               710.5219               724.0624
 Red. masses --      4.0618                 2.0485                 1.5992
 Frc consts  --      1.1494                 0.6093                 0.4940
 IR Inten    --    188.4977                37.6987               110.9437

                     37                     38                     39
                      A                      A                      A
 Frequencies --    727.5850               789.4219               791.1291
 Red. masses --      1.5509                 2.2572                 3.1269
 Frc consts  --      0.4837                 0.8288                 1.1531
 IR Inten    --     91.9829                46.7554                19.5934

                     40                     41                     42
                      A                      A                      A
 Frequencies --    804.5766               844.6282               864.3334
 Red. masses --      4.0511                 4.4858                 1.3021
 Frc consts  --      1.5451                 1.8855                 0.5731
 IR Inten    --     81.5957                87.8339                 5.0769

                     43                     44                     45
                      A                      A                      A
 Frequencies --    874.5427               879.6007               934.3309
 Red. masses --      1.4327                 3.2023                 1.5141
 Frc consts  --      0.6456                 1.4598                 0.7787
 IR Inten    --      3.1094                 6.4305                 4.1160

                     46                     47                     48
                      A                      A                      A
 Frequencies --    962.7662               972.1710              1002.2637
 Red. masses --      1.6514                 3.4236                 1.3698
 Frc consts  --      0.9019                 1.9064                 0.8107
 IR Inten    --      7.4976                42.1622                 0.4770

                     49                     50                     51
                      A                      A                      A
 Frequencies --   1016.6829              1017.2420              1021.3445
 Red. masses --      1.3880                 1.3016                 5.3730
 Frc consts  --      0.8453                 0.7935                 3.3023
 IR Inten    --      1.2794                 0.5019                 3.1627

                     52                     53                     54
                      A                      A                      A
 Frequencies --   1026.2026              1034.9509              1055.4705
 Red. masses --      5.4779                 1.3219                 2.8123
 Frc consts  --      3.3988                 0.8342                 1.8459
 IR Inten    --      2.2963                 0.2267                42.8787

                     55                     56                     57
                      A                      A                      A
 Frequencies --   1063.3395              1066.1578              1071.6073
 Red. masses --      2.6635                 2.0874                 1.5410
 Frc consts  --      1.7744                 1.3980                 1.0426
 IR Inten    --     22.8217                31.7295                17.4453

                     58                     59                     60
                      A                      A                      A
 Frequencies --   1096.2227              1112.8957              1123.2279
 Red. masses --      2.9067                 1.2469                 1.5472
 Frc consts  --      2.0580                 0.9099                 1.1501
 IR Inten    --     84.2742                61.2707                 2.9000

                     61                     62                     63
                      A                      A                      A
 Frequencies --   1129.7268              1179.4587              1185.6162
 Red. masses --      1.6368                 1.2928                 1.1348
 Frc consts  --      1.2308                 1.0596                 0.9398
 IR Inten    --     25.8185                 6.7675                 3.1628

                     64                     65                     66
                      A                      A                      A
 Frequencies --   1186.2422              1194.8909              1217.1190
 Red. masses --      1.1280                 2.4886                 1.1280
 Frc consts  --      0.9352                 2.0934                 0.9845
 IR Inten    --      0.7511                69.3590                 4.2775

                     67                     68                     69
                      A                      A                      A
 Frequencies --   1223.1765              1229.7822              1236.1892
 Red. masses --      1.7446                 1.2374                 1.4524
 Frc consts  --      1.5379                 1.1026                 1.3077
 IR Inten    --     30.4564                33.0548                33.4212

                     70                     71                     72
                      A                      A                      A
 Frequencies --   1247.2694              1289.3250              1310.0771
 Red. masses --      3.5065                 5.3267                 1.3085
 Frc consts  --      3.2140                 5.2172                 1.3231
 IR Inten    --    407.6219               722.0026                11.8474

                     73                     74                     75
                      A                      A                      A
 Frequencies --   1319.4010              1329.7284              1362.6207
 Red. masses --      4.4658                 6.0434                 1.4632
 Frc consts  --      4.5804                 6.2959                 1.6007
 IR Inten    --     12.3263               170.9117                 4.5891

                     76                     77                     78
                      A                      A                      A
 Frequencies --   1377.3862              1434.7889              1467.9293
 Red. masses --      1.4171                 3.4680                 1.2507
 Frc consts  --      1.5840                 4.2064                 1.5879
 IR Inten    --     39.3856               622.7681                38.0198

                     79                     80                     81
                      A                      A                      A
 Frequencies --   1478.4629              1481.4490              1489.5768
 Red. masses --      1.2302                 1.0451                 2.2513
 Frc consts  --      1.5844                 1.3514                 2.9431
 IR Inten    --     64.7597                12.4687                16.2095

                     82                     83                     84
                      A                      A                      A
 Frequencies --   1492.3641              1495.3892              1498.6878
 Red. masses --      1.1566                 2.0235                 1.0442
 Frc consts  --      1.5176                 2.6660                 1.3818
 IR Inten    --      6.4662                94.5583                 9.4855

                     85                     86                     87
                      A                      A                      A
 Frequencies --   1516.4397              1544.2335              1546.7795
 Red. masses --      1.0438                 2.2715                 2.1967
 Frc consts  --      1.4143                 3.1915                 3.0965
 IR Inten    --     21.5489                24.4913               115.0210

                     88                     89                     90
                      A                      A                      A
 Frequencies --   1637.3066              1649.5194              1651.6898
 Red. masses --      2.5106                 1.4789                 4.7155
 Frc consts  --      3.9655                 2.3709                 7.5794
 IR Inten    --     13.2135                97.2288                 1.7993

                     91                     92                     93
                      A                      A                      A
 Frequencies --   1669.7188              1675.0181              1715.1290
 Red. masses --      5.7550                 5.9731                11.4050
 Frc consts  --      9.4533                 9.8739                19.7670
 IR Inten    --     73.8105                 2.0438               748.6503

                     94                     95                     96
                      A                      A                      A
 Frequencies --   3061.0208              3061.6643              3139.9484
 Red. masses --      1.0406                 1.0323                 1.1059
 Frc consts  --      5.7446                 5.7013                 6.4240
 IR Inten    --     33.6984                51.8788                35.8627

                     97                     98                     99
                      A                      A                      A
 Frequencies --   3152.2580              3174.6920              3189.9299
 Red. masses --      1.0943                 1.1056                 1.1076
 Frc consts  --      6.4067                 6.5654                 6.6405
 IR Inten    --      1.5053                22.4204                10.4518

                    100                    101                    102
                      A                      A                      A
 Frequencies --   3190.6283              3198.4109              3200.7891
 Red. masses --      1.0858                 1.0896                 1.0863
 Frc consts  --      6.5126                 6.5671                 6.5574
 IR Inten    --      7.1122                10.4751                 0.4954

                    103                    104                    105
                      A                      A                      A
 Frequencies --   3209.4762              3211.1130              3219.6289
 Red. masses --      1.0900                 1.0928                 1.0978
 Frc consts  --      6.6150                 6.6393                 6.7049
 IR Inten    --     11.1741                33.5219                31.2734

                    106                    107                    108
                      A                      A                      A
 Frequencies --   3220.5699              3229.4712              3240.0434
 Red. masses --      1.0937                 1.0957                 1.0932
 Frc consts  --      6.6838                 6.7331                 6.7618
 IR Inten    --     23.3370                11.8572                 3.2722

                    109                    110                    111
                      A                      A                      A
 Frequencies --   3269.8161              3521.9646              3596.4089
 Red. masses --      1.0878                 1.0528                 1.0960
 Frc consts  --      6.8524                 7.6945                 8.3522
 IR Inten    --     37.2117                63.6407                71.3619

 - Thermochemistry -
 -------------------
 Temperature   298.150 Kelvin.  Pressure   1.00000 Atm.
 Atom     1 has atomic number  6 and mass  12.00000

 Molecular mass:   347.05209 amu.
 Principal axes and moments of inertia in atomic units:
                           1         2         3
     Eigenvalues --  4682.113988387.35412**********
           X            0.99997  -0.00524   0.00481
           Y            0.00558   0.99743  -0.07145
           Z           -0.00442   0.07148   0.99743
 This molecule is an asymmetric top.
 Rotational symmetry number  1.
 Warning -- assumption of classical behavior for rotation
           may cause significant error
 Rotational temperatures (Kelvin)      0.01850     0.01033     0.00835
 Rotational constants (GHZ):           0.38545     0.21517     0.17407
    1 imaginary frequencies ignored.
 Zero-point vibrational energy     832995.5 (Joules/Mol)
                                  199.09071 (Kcal/Mol)
 Warning -- explicit consideration of  28 degrees of freedom as
           vibrations may cause significant error
 Vibrational temperatures:     29.58    41.45    75.03    99.22   104.69
          (Kelvin)            117.96   161.88   170.31   201.76   239.85
                              248.58   258.87   278.92   320.96   331.80
                              351.12   361.22   400.90   426.14   462.46
                              497.22   532.20   593.43   610.64   614.01
                              721.86   800.39   822.17   908.60   918.29
                              934.39   939.48   997.10  1022.28  1041.76
                             1046.83  1135.80  1138.26  1157.61  1215.23
                             1243.58  1258.27  1265.55  1344.29  1385.21
                             1398.74  1442.03  1462.78  1463.58  1469.49
                             1476.48  1489.06  1518.59  1529.91  1533.96
                             1541.80  1577.22  1601.21  1616.07  1625.42
                             1696.98  1705.84  1706.74  1719.18  1751.16
                             1759.88  1769.38  1778.60  1794.54  1855.05
                             1884.91  1898.32  1913.18  1960.51  1981.75
                             2064.34  2112.02  2127.18  2131.47  2143.17
                             2147.18  2151.53  2156.28  2181.82  2221.81
                             2225.47  2355.72  2373.29  2376.41  2402.35
                             2409.98  2467.69  4404.13  4405.05  4517.69
                             4535.40  4567.67  4589.60  4590.60  4601.80
                             4605.22  4617.72  4620.08  4632.33  4633.68
                             4646.49  4661.70  4704.54  5067.32  5174.43

 Zero-point correction=                           0.317271 (Hartree/Particle)
 Thermal correction to Energy=                    0.337251
 Thermal correction to Enthalpy=                  0.338195
 Thermal correction to Gibbs Free Energy=         0.266981
 Sum of electronic and zero-point Energies=          -3437.731381
 Sum of electronic and thermal Energies=             -3437.711402
 Sum of electronic and thermal Enthalpies=           -3437.710458
 Sum of electronic and thermal Free Energies=        -3437.781671

                     E (Thermal)             CV                S
                      KCal/Mol        Cal/Mol-Kelvin    Cal/Mol-Kelvin
 Total                  211.628             74.655            149.882
 Electronic               0.000              0.000              0.000
 Translational            0.889              2.981             43.427
 Rotational               0.889              2.981             34.364
 Vibrational            209.851             68.693             72.091
 Vibration     1          0.593              1.986              6.579
 Vibration     2          0.593              1.984              5.910
 Vibration     3          0.596              1.977              4.734
 Vibration     4          0.598              1.969              4.183
 Vibration     5          0.599              1.967              4.077
 Vibration     6          0.600              1.961              3.843
 Vibration     7          0.607              1.939              3.225
 Vibration     8          0.609              1.934              3.127
 Vibration     9          0.615              1.913              2.801
 Vibration    10          0.624              1.883              2.472
 Vibration    11          0.626              1.876              2.405
 Vibration    12          0.629              1.867              2.329
 Vibration    13          0.635              1.848              2.191
 Vibration    14          0.649              1.806              1.934
 Vibration    15          0.652              1.794              1.874
 Vibration    16          0.659              1.773              1.773
 Vibration    17          0.663              1.761              1.723
 Vibration    18          0.679              1.713              1.542
 Vibration    19          0.690              1.681              1.438
 Vibration    20          0.707              1.632              1.303
 Vibration    21          0.724              1.584              1.186
 Vibration    22          0.742              1.534              1.080
 Vibration    23          0.776              1.443              0.918
 Vibration    24          0.786              1.417              0.877
 Vibration    25          0.788              1.412              0.869
 Vibration    26          0.857              1.246              0.654
 Vibration    27          0.912              1.126              0.531
 Vibration    28          0.928              1.093              0.501

 Optimization completed.
    -- Stationary point found.
 Normal termination of Gaussian 16 at Mon Mar 29 02:41:46 2021.
