 Gaussian 16, Revision A.03,
 Gaussian 16:  ES64L-G16RevA.03 25-Dec-2016

 ----------------------------------------------------------------------
 # wB97XD def2tzvp, opt=(ts, noeigen, calcfc, maxcycles=70, maxstep=8),
  freq=noraman, scrf=(iefpcm, solvent=water)
 ----------------------------------------------------------------------

 ------------------------
 1_iteration/TS-662-1.out
 ------------------------
 Symbolic Z-matrix:
 Charge =  0 Multiplicity = 1

 SCF Done:  E(RwB97XD) =  -3034.70535852     A.U. after   14 cycles
 SCF Done:  E(RwB97XD) =  -3034.70536788     A.U. after   11 cycles
 SCF Done:  E(RwB97XD) =  -3034.70537683     A.U. after   10 cycles
 SCF Done:  E(RwB97XD) =  -3034.70537143     A.U. after   10 cycles
 SCF Done:  E(RwB97XD) =  -3034.70537812     A.U. after    9 cycles
 SCF Done:  E(RwB97XD) =  -3034.70537820     A.U. after    7 cycles
 Optimization completed.
    -- Stationary point found.
 Normal termination of Gaussian 16 at Fri Feb 19 10:57:38 2021.

 ---------------------------------------------------------------------
 #N Geom=AllCheck Guess=TCheck SCRF=Check GenChk RwB97XD/def2TZVP Freq
 ---------------------------------------------------------------------

 Structure from the checkpoint file:  "/beegfs/scratch/user/q/tla25/Gau-7077.chk"
 ------------------------
 1_iteration/TS-662-1.out
 ------------------------
 Charge =  0 Multiplicity = 1

                         Standard orientation:
 ---------------------------------------------------------------------
 Center     Atomic      Atomic             Coordinates (Angstroms)
 Number     Number       Type             X           Y           Z
 ---------------------------------------------------------------------
      1          6           0        0.492797   -0.735759    0.539614
      2          6           0        1.905727   -0.398700    0.481812
      3          8           0        2.686438   -0.745099    1.381311
      4          6           0       -0.426763    0.152414    0.032339
      5          6           0       -1.790371    2.493713    0.865487
      6          1           0       -2.090484    3.128609    1.698756
      7          1           0       -1.093023    3.040233    0.232548
      8          1           0       -2.668736    2.225331    0.282944
      9          7           0       -1.140359    1.271016    1.339294
     10          1           0       -0.316792    1.480043    1.893343
     11          1           0       -1.764237    0.711876    1.911368
     12         35           0       -2.146184   -0.523980   -0.695096
     13          1           0       -0.095410    0.947843   -0.618790
     14          6           0        0.091218   -1.841775    1.476440
     15          1           0       -0.886759   -2.245190    1.206175
     16          1           0        0.812792   -2.659084    1.445015
     17          1           0        0.030224   -1.514301    2.521161
     18          7           0        2.391941    0.332834   -0.584320
     19          6           0        1.881541    0.225330   -1.936688
     20          6           0        3.742538    0.843287   -0.498791
     21          1           0        1.072160   -0.498923   -1.982109
     22          1           0        1.518643    1.186457   -2.314387
     23          1           0        2.679938   -0.115541   -2.603370
     24          1           0        3.970668    1.128548    0.524730
     25          1           0        4.484883    0.104671   -0.824598
     26          1           0        3.829876    1.721524   -1.140999
 ---------------------------------------------------------------------

 SCF Done:  E(RwB97XD) =  -3034.70537820     A.U. after    1 cycles

 The electronic state is 1-A.
 Alpha  occ. eigenvalues -- -483.12147 -62.67010 -56.46100 -56.45782 -56.45772
 Alpha  occ. eigenvalues --  -19.19266 -14.49582 -14.44429 -10.37847 -10.36652
 Alpha  occ. eigenvalues --  -10.32226 -10.30495 -10.29890 -10.26542 -10.25310
 Alpha  occ. eigenvalues --   -8.81121  -6.63194  -6.62188  -6.62151  -2.73587
 Alpha  occ. eigenvalues --   -2.73309  -2.73280  -2.72466  -2.72466  -1.11881
 Alpha  occ. eigenvalues --   -1.04905  -1.01881  -0.91985  -0.85662  -0.81041
 Alpha  occ. eigenvalues --   -0.79678  -0.78798  -0.76180  -0.67850  -0.64042
 Alpha  occ. eigenvalues --   -0.61942  -0.59737  -0.56565  -0.55755  -0.55289
 Alpha  occ. eigenvalues --   -0.53765  -0.50694  -0.50240  -0.48685  -0.48445
 Alpha  occ. eigenvalues --   -0.48075  -0.47454  -0.45822  -0.44853  -0.44699
 Alpha  occ. eigenvalues --   -0.44366  -0.43186  -0.37149  -0.36719  -0.33454
 Alpha  occ. eigenvalues --   -0.30947  -0.25870
 Alpha virt. eigenvalues --    0.05090   0.07607   0.09859   0.12118   0.13519
 Alpha virt. eigenvalues --    0.14352   0.15628   0.16267   0.16570   0.17284
 Alpha virt. eigenvalues --    0.18305   0.18880   0.19136   0.19579   0.20283

 Mulliken charges:
               1
     1  C   -0.168307
     2  C    0.270680
     3  O   -0.545491
     4  C   -0.099593
     5  C   -0.277820
     6  H    0.159953
     7  H    0.154087
     8  H    0.153342
     9  N   -0.281613
    10  H    0.287614
    11  H    0.291037
    12  Br  -0.175433
    13  H    0.196081
    14  C   -0.398159
    15  H    0.122120
    16  H    0.121520
    17  H    0.111923
    18  N   -0.139201
    19  C   -0.313082
    20  C   -0.293805
    21  H    0.153968
    22  H    0.142405
    23  H    0.135246
    24  H    0.133822
    25  H    0.124183
    26  H    0.134524
 Sum of Mulliken charges =  -0.00000

 Dipole moment (field-independent basis, Debye):
    X=             -4.8796    Y=              7.3134    Z=             -0.2201  Tot=              8.7945
 Quadrupole moment (field-independent basis, Debye-Ang):
   XX=            -90.3135   YY=            -75.3156   ZZ=            -78.6516
   XY=              0.8892   XZ=            -18.1855   YZ=              7.4049

  Exact polarizability: 221.616 -11.530 165.032   8.285  -2.641 165.623
 Approx polarizability: 164.368  -6.366 135.192   9.287  -2.474 137.561

 ******    1 imaginary frequencies (negative Signs) ******

                      1                      2                      3
                      A                      A                      A
 Frequencies --   -385.7364                45.4611                67.2629
 Red. masses --      6.5932                 3.6722                 2.5147
 Frc consts  --      0.5780                 0.0045                 0.0067
 IR Inten    --    753.3894                 4.3560                 6.1223

                      4                      5                      6
                      A                      A                      A
 Frequencies --     76.9617                96.9952               116.8023
 Red. masses --      2.6431                 4.8143                 1.9078
 Frc consts  --      0.0092                 0.0267                 0.0153
 IR Inten    --      0.4828                 5.4880                 5.3911

                      7                      8                      9
                      A                      A                      A
 Frequencies --    132.5528               148.5565               156.3010
 Red. masses --      1.7643                 1.5042                 1.5469
 Frc consts  --      0.0183                 0.0196                 0.0223
 IR Inten    --      2.6015                 0.3332                 0.7015

                     10                     11                     12
                      A                      A                      A
 Frequencies --    178.4108               186.4900               211.5415
 Red. masses --      1.5432                 1.8416                 1.6606
 Frc consts  --      0.0289                 0.0377                 0.0438
 IR Inten    --      4.3529                12.7859                 5.5376

                     13                     14                     15
                      A                      A                      A
 Frequencies --    228.3849               249.5297               302.1503
 Red. masses --      2.3480                 2.7152                 2.9523
 Frc consts  --      0.0722                 0.0996                 0.1588
 IR Inten    --      2.2377                22.9616                13.1904

                     16                     17                     18
                      A                      A                      A
 Frequencies --    311.1129               356.2068               404.7470
 Red. masses --      2.9378                 3.3779                 2.7857
 Frc consts  --      0.1675                 0.2525                 0.2689
 IR Inten    --     13.6972                 5.8829                 9.8567

                     19                     20                     21
                      A                      A                      A
 Frequencies --    483.1247               512.3722               572.4321
 Red. masses --      4.3890                 3.9322                 4.0494
 Frc consts  --      0.6036                 0.6082                 0.7818
 IR Inten    --    118.9853                47.1462               199.1367

                     22                     23                     24
                      A                      A                      A
 Frequencies --    654.4255               749.3195               766.1750
 Red. masses --      2.7468                 2.3406                 2.8466
 Frc consts  --      0.6931                 0.7743                 0.9845
 IR Inten    --     29.0730               305.5192                16.6444

                     25                     26                     27
                      A                      A                      A
 Frequencies --    796.3517               938.1520              1011.8726
 Red. masses --      5.1870                 3.0656                 1.1613
 Frc consts  --      1.9381                 1.5897                 0.7005
 IR Inten    --     45.1505                49.4246                45.8826

                     28                     29                     30
                      A                      A                      A
 Frequencies --   1020.6773              1052.1668              1062.2740
 Red. masses --      1.5408                 1.6861                 1.3389
 Frc consts  --      0.9457                 1.0998                 0.8902
 IR Inten    --     64.8231                 3.4681               120.8307

                     31                     32                     33
                      A                      A                      A
 Frequencies --   1081.1439              1086.7967              1095.8698
 Red. masses --      1.9754                 1.4574                 1.7899
 Frc consts  --      1.3604                 1.0142                 1.2665
 IR Inten    --    161.9077                44.3924               199.6990

                     34                     35                     36
                      A                      A                      A
 Frequencies --   1135.5115              1152.3704              1167.9229
 Red. masses --      1.2290                 1.1921                 1.3845
 Frc consts  --      0.9336                 0.9327                 1.1127
 IR Inten    --      0.2428                44.4569                17.9517

                     37                     38                     39
                      A                      A                      A
 Frequencies --   1222.5216              1244.2447              1302.5348
 Red. masses --      1.5459                 1.3736                 3.6007
 Frc consts  --      1.3613                 1.2529                 3.5993
 IR Inten    --     75.7376                50.6753                12.2053

                     40                     41                     42
                      A                      A                      A
 Frequencies --   1330.7220              1344.9432              1397.3393
 Red. masses --      2.4975                 1.3070                 2.9729
 Frc consts  --      2.6057                 1.3929                 3.4201
 IR Inten    --    206.3878                 0.4762               797.6736

                     43                     44                     45
                      A                      A                      A
 Frequencies --   1413.8672              1445.0145              1457.1353
 Red. masses --      1.2888                 1.1561                 1.5356
 Frc consts  --      1.5180                 1.4222                 1.9210
 IR Inten    --      7.4265                 5.4379               220.5318

                     46                     47                     48
                      A                      A                      A
 Frequencies --   1466.5922              1472.0481              1479.6047
 Red. masses --      1.2908                 1.0673                 1.2036
 Frc consts  --      1.6358                 1.3627                 1.5524
 IR Inten    --    126.1427                25.3971                40.8638

                     49                     50                     51
                      A                      A                      A
 Frequencies --   1485.7859              1491.2840              1492.8147
 Red. masses --      1.2027                 1.0518                 1.0404
 Frc consts  --      1.5643                 1.3781                 1.3661
 IR Inten    --      4.8520                23.1378                18.6340

                     52                     53                     54
                      A                      A                      A
 Frequencies --   1503.4391              1505.2980              1513.6246
 Red. masses --      1.0635                 1.0392                 1.3799
 Frc consts  --      1.4163                 1.3874                 1.8627
 IR Inten    --     37.2201                29.4065               268.1798

                     55                     56                     57
                      A                      A                      A
 Frequencies --   1532.8931              1621.1191              1645.9947
 Red. masses --      1.3349                 8.8401                 1.0855
 Frc consts  --      1.8481                13.6880                 1.7327
 IR Inten    --    124.9775               854.2867                45.1305

                     58                     59                     60
                      A                      A                      A
 Frequencies --   3011.6638              3012.7720              3021.9483
 Red. masses --      1.0514                 1.0498                 1.0401
 Frc consts  --      5.6189                 5.6143                 5.5961
 IR Inten    --    121.7387                99.6813               108.5557

                     61                     62                     63
                      A                      A                      A
 Frequencies --   3069.9823              3074.5550              3084.1611
 Red. masses --      1.1031                 1.0333                 1.0831
 Frc consts  --      6.1256                 5.7552                 6.0703
 IR Inten    --     72.8284                37.0357                44.9869

                     64                     65                     66
                      A                      A                      A
 Frequencies --   3095.0904              3126.7080              3154.4738
 Red. masses --      1.0893                 1.1014                 1.1057
 Frc consts  --      6.1480                 6.3440                 6.4824
 IR Inten    --     41.7812                32.9198                12.8238

                     67                     68                     69
                      A                      A                      A
 Frequencies --   3161.8590              3167.2095              3175.3379
 Red. masses --      1.0971                 1.0993                 1.1055
 Frc consts  --      6.4621                 6.4968                 6.5673
 IR Inten    --     12.9258                17.7335                 9.1366

                     70                     71                     72
                      A                      A                      A
 Frequencies --   3229.6553              3514.3575              3597.3687
 Red. masses --      1.0915                 1.0511                 1.0968
 Frc consts  --      6.7079                 7.6486                 8.3629
 IR Inten    --      2.4135                34.3069                54.1777

 - Thermochemistry -
 -------------------
 Temperature   298.150 Kelvin.  Pressure   1.00000 Atm.
 Atom     1 has atomic number  6 and mass  12.00000

 Molecular mass:   222.03677 amu.
 Principal axes and moments of inertia in atomic units:
                           1         2         3
     Eigenvalues --  1642.104414198.143604249.77779
           X            0.99837  -0.03815  -0.04236
           Y            0.01939   0.92602  -0.37698
           Z            0.05361   0.37554   0.92525
 This molecule is an asymmetric top.
 Rotational symmetry number  1.
 Warning -- assumption of classical behavior for rotation
           may cause significant error
 Rotational temperatures (Kelvin)      0.05275     0.02063     0.02038
 Rotational constants (GHZ):           1.09904     0.42989     0.42467
    1 imaginary frequencies ignored.
 Zero-point vibrational energy     583026.3 (Joules/Mol)
                                  139.34664 (Kcal/Mol)
 Warning -- explicit consideration of  20 degrees of freedom as
           vibrations may cause significant error
 Vibrational temperatures:     65.41    96.78   110.73   139.55   168.05
          (Kelvin)            190.71   213.74   224.88   256.69   268.32
                              304.36   328.59   359.02   434.73   447.62
                              512.50   582.34   695.11   737.19   823.60
                              941.57  1078.10  1102.35  1145.77  1349.79
                             1455.86  1468.53  1513.83  1528.38  1555.52
                             1563.66  1576.71  1633.75  1658.00  1680.38
                             1758.94  1790.19  1874.06  1914.61  1935.07
                             2010.46  2034.24  2079.05  2096.49  2110.10
                             2117.95  2128.82  2137.71  2145.63  2147.83
                             2163.11  2165.79  2177.77  2205.49  2332.43
                             2368.22  4333.11  4334.71  4347.91  4417.02
                             4423.60  4437.42  4453.14  4498.64  4538.58
                             4549.21  4556.91  4568.60  4646.75  5056.38
                             5175.81

 Zero-point correction=                           0.222063 (Hartree/Particle)
 Thermal correction to Energy=                    0.236402
 Thermal correction to Enthalpy=                  0.237347
 Thermal correction to Gibbs Free Energy=         0.179833
 Sum of electronic and zero-point Energies=          -3034.483315
 Sum of electronic and thermal Energies=             -3034.468976
 Sum of electronic and thermal Enthalpies=           -3034.468032
 Sum of electronic and thermal Free Energies=        -3034.525545

                     E (Thermal)             CV                S
                      KCal/Mol        Cal/Mol-Kelvin    Cal/Mol-Kelvin
 Total                  148.345             48.978            121.048
 Electronic               0.000              0.000              0.000
 Translational            0.889              2.981             42.096
 Rotational               0.889              2.981             31.749
 Vibrational            146.567             43.016             47.202
 Vibration     1          0.595              1.979              5.006
 Vibration     2          0.598              1.970              4.232
 Vibration     3          0.599              1.965              3.967
 Vibration     4          0.603              1.951              3.514
 Vibration     5          0.608              1.935              3.153
 Vibration     6          0.613              1.921              2.909
 Vibration     7          0.618              1.904              2.691
 Vibration     8          0.620              1.896              2.594
 Vibration     9          0.629              1.869              2.345
 Vibration    10          0.632              1.858              2.262
 Vibration    11          0.643              1.823              2.030
 Vibration    12          0.651              1.798              1.892
 Vibration    13          0.662              1.764              1.734
 Vibration    14          0.694              1.670              1.405
 Vibration    15          0.700              1.653              1.356
 Vibration    16          0.732              1.563              1.139
 Vibration    17          0.770              1.460              0.945
 Vibration    18          0.839              1.287              0.702
 Vibration    19          0.867              1.223              0.628
 Vibration    20          0.929              1.091              0.500

 Optimization completed.
    -- Stationary point found.
 Normal termination of Gaussian 16 at Fri Feb 19 11:26:18 2021.
