 Gaussian 16, Revision A.03,
 Gaussian 16:  ES64L-G16RevA.03 25-Dec-2016

 ----------------------------------------------------------------------
 # wB97XD def2tzvp, opt=(ts, noeigen, calcfc, maxcycles=70, maxstep=1),
  freq=noraman, scrf=(iefpcm, solvent=water)
 ----------------------------------------------------------------------

 -----------------------
 0_iteration/TS-69-0.out
 -----------------------
 Symbolic Z-matrix:
 Charge =  0 Multiplicity = 1

 SCF Done:  E(RwB97XD) =  -3187.15098908     A.U. after   14 cycles
 SCF Done:  E(RwB97XD) =  -3187.15096512     A.U. after   10 cycles
 SCF Done:  E(RwB97XD) =  -3187.15095765     A.U. after   10 cycles
 SCF Done:  E(RwB97XD) =  -3187.15092963     A.U. after   10 cycles
 SCF Done:  E(RwB97XD) =  -3187.15090587     A.U. after   10 cycles
 SCF Done:  E(RwB97XD) =  -3187.15088331     A.U. after   10 cycles
 SCF Done:  E(RwB97XD) =  -3187.15086398     A.U. after   10 cycles
 SCF Done:  E(RwB97XD) =  -3187.15084963     A.U. after   10 cycles
 SCF Done:  E(RwB97XD) =  -3187.15084704     A.U. after   10 cycles
 SCF Done:  E(RwB97XD) =  -3187.15083827     A.U. after   10 cycles
 SCF Done:  E(RwB97XD) =  -3187.15083529     A.U. after   10 cycles
 SCF Done:  E(RwB97XD) =  -3187.15083504     A.U. after   10 cycles
 SCF Done:  E(RwB97XD) =  -3187.15083512     A.U. after    7 cycles
 SCF Done:  E(RwB97XD) =  -3187.15083515     A.U. after    7 cycles
 SCF Done:  E(RwB97XD) =  -3187.15083512     A.U. after    7 cycles
 Optimization completed.
    -- Stationary point found.
 Normal termination of Gaussian 16 at Sat Jan 30 18:49:41 2021.

 ---------------------------------------------------------------------
 #N Geom=AllCheck Guess=TCheck SCRF=Check GenChk RwB97XD/def2TZVP Freq
 ---------------------------------------------------------------------

 Structure from the checkpoint file:  "/beegfs/scratch/user/q/tla25/Gau-43234.chk"
 -----------------------
 0_iteration/TS-69-0.out
 -----------------------
 Charge =  0 Multiplicity = 1

                         Standard orientation:
 ---------------------------------------------------------------------
 Center     Atomic      Atomic             Coordinates (Angstroms)
 Number     Number       Type             X           Y           Z
 ---------------------------------------------------------------------
      1          6           0       -0.843934   -0.040645   -0.284272
      2          6           0       -2.152431   -0.591246   -0.494043
      3          8           0       -2.301506   -1.825607   -0.635099
      4          6           0        0.250933   -0.927489   -0.312366
      5          6           0       -0.111987   -1.500914    2.407394
      6          1           0       -0.559344   -2.221392    3.091106
      7          1           0        0.822539   -1.140559    2.829474
      8          1           0       -0.798675   -0.664035    2.272846
      9          7           0        0.133713   -2.098366    1.098705
     10          1           0        0.925365   -2.731564    1.101756
     11          1           0       -0.691628   -2.598922    0.776590
     12          6           0        1.675475   -0.485564   -0.339078
     13          6           0        2.268049    0.250252    0.684793
     14          6           0        3.600897    0.622091    0.605667
     15          6           0        4.360775    0.273636   -0.502056
     16          6           0        3.781219   -0.458832   -1.527045
     17          6           0        2.451516   -0.842323   -1.439244
     18          1           0        1.688430    0.542449    1.548991
     19          1           0        4.046435    1.189789    1.412690
     20          1           0        5.400511    0.568831   -0.563466
     21          1           0        4.365535   -0.739992   -2.393944
     22          1           0        2.007497   -1.424963   -2.237683
     23          1           0        0.076960   -1.726868   -1.026655
     24         35           0       -0.675353    1.785881    0.270297
     25          7           0       -3.238815    0.225896   -0.517908
     26          6           0       -4.558913   -0.275474   -0.812265
     27          1           0       -3.089920    1.218348   -0.532225
     28          1           0       -4.644994   -0.639622   -1.840219
     29          1           0       -4.816505   -1.095962   -0.141988
     30          1           0       -5.276687    0.529821   -0.667380
 ---------------------------------------------------------------------

 SCF Done:  E(RwB97XD) =  -3187.15083512     A.U. after    1 cycles

 The electronic state is 1-A.
 Alpha  occ. eigenvalues -- -483.12009 -62.66834 -56.45932 -56.45611 -56.45598
 Alpha  occ. eigenvalues --  -19.19570 -14.48880 -14.44002 -10.37116 -10.34416
 Alpha  occ. eigenvalues --  -10.31762 -10.30732 -10.30428 -10.29456 -10.29407
 Alpha  occ. eigenvalues --  -10.29344 -10.29301 -10.29258 -10.29216  -8.80943
 Alpha  occ. eigenvalues --   -6.63030  -6.62004  -6.61965  -2.73431  -2.73135
 Alpha  occ. eigenvalues --   -2.73103  -2.72273  -2.72273  -1.12016  -1.04426
 Alpha  occ. eigenvalues --   -1.00718  -0.97374  -0.91949  -0.87430  -0.85492
 Alpha  occ. eigenvalues --   -0.82316  -0.80258  -0.78682  -0.72722  -0.70960
 Alpha  occ. eigenvalues --   -0.68072  -0.65411  -0.63467  -0.60641  -0.59408
 Alpha  occ. eigenvalues --   -0.57606  -0.55991  -0.55139  -0.54041  -0.53719
 Alpha  occ. eigenvalues --   -0.52355  -0.51343  -0.50842  -0.49503  -0.48219
 Alpha  occ. eigenvalues --   -0.47513  -0.47029  -0.46396  -0.45042  -0.44265
 Alpha  occ. eigenvalues --   -0.42887  -0.42322  -0.39081  -0.37708  -0.34174
 Alpha  occ. eigenvalues --   -0.33604  -0.33504  -0.32807  -0.25775
 Alpha virt. eigenvalues --    0.03304   0.04983   0.08085   0.09870   0.11050
 Alpha virt. eigenvalues --    0.12885   0.13160   0.13934   0.15275   0.15478
 Alpha virt. eigenvalues --    0.16715   0.16943   0.17776   0.17992   0.19345

 Mulliken charges:
               1
     1  C   -0.323480
     2  C    0.400222
     3  O   -0.602958
     4  C    0.038613
     5  C   -0.313193
     6  H    0.159619
     7  H    0.157918
     8  H    0.155696
     9  N   -0.266656
    10  H    0.285084
    11  H    0.281109
    12  C    0.205175
    13  C   -0.279292
    14  C   -0.135337
    15  C   -0.155370
    16  C   -0.132607
    17  C   -0.258062
    18  H    0.178647
    19  H    0.144359
    20  H    0.145727
    21  H    0.144729
    22  H    0.144693
    23  H    0.147752
    24  Br  -0.170094
    25  N   -0.336727
    26  C   -0.247034
    27  H    0.247408
    28  H    0.120560
    29  H    0.125711
    30  H    0.137788
 Sum of Mulliken charges =  -0.00000

 Dipole moment (field-independent basis, Debye):
    X=              3.5939    Y=             -2.5351    Z=              3.6440  Tot=              5.7116
 Quadrupole moment (field-independent basis, Debye-Ang):
   XX=            -92.2868   YY=            -99.5280   ZZ=            -94.7485
   XY=            -10.3834   XZ=             -1.3935   YZ=             -6.2886

  Exact polarizability: 289.389   4.322 217.992   5.488  14.091 205.935
 Approx polarizability: 212.481   5.108 186.914   1.657  15.063 176.485

 ******    1 imaginary frequencies (negative Signs) ******

                      1                      2                      3
                      A                      A                      A
 Frequencies --   -354.9875                33.0808                41.9430
 Red. masses --      6.0344                 4.0993                 4.2719
 Frc consts  --      0.4480                 0.0026                 0.0044
 IR Inten    --    719.4358                 1.4722                 0.0603

                      4                      5                      6
                      A                      A                      A
 Frequencies --     57.3036                80.6348                84.1075
 Red. masses --      3.4028                 3.3762                 2.0235
 Frc consts  --      0.0066                 0.0129                 0.0084
 IR Inten    --     14.0368                15.9691                 4.0146

                      7                      8                      9
                      A                      A                      A
 Frequencies --     96.7470               124.6309               131.1291
 Red. masses --      3.0084                 3.0911                 2.3341
 Frc consts  --      0.0166                 0.0283                 0.0236
 IR Inten    --     18.9714                 9.8116                29.6997

                     10                     11                     12
                      A                      A                      A
 Frequencies --    139.0125               165.1691               217.3215
 Red. masses --      2.8940                 3.4727                 2.2490
 Frc consts  --      0.0330                 0.0558                 0.0626
 IR Inten    --     17.6059                 4.9830                 2.5825

                     13                     14                     15
                      A                      A                      A
 Frequencies --    221.6843               268.4117               272.6747
 Red. masses --      2.0370                 4.6686                 2.7291
 Frc consts  --      0.0590                 0.1982                 0.1196
 IR Inten    --      0.5638                11.8328                41.8201

                     16                     17                     18
                      A                      A                      A
 Frequencies --    299.1133               313.7963               385.6476
 Red. masses --      3.9836                 4.5422                 2.8276
 Frc consts  --      0.2100                 0.2635                 0.2478
 IR Inten    --     11.2200                20.9271                49.0020

                     19                     20                     21
                      A                      A                      A
 Frequencies --    407.9069               427.5815               440.2458
 Red. masses --      1.6483                 3.0585                 4.8041
 Frc consts  --      0.1616                 0.3295                 0.5486
 IR Inten    --    105.3127                 5.8241                31.6073

                     22                     23                     24
                      A                      A                      A
 Frequencies --    574.2164               585.0245               634.0288
 Red. masses --      3.5515                 3.5470                 6.3272
 Frc consts  --      0.6899                 0.7152                 1.4986
 IR Inten    --    129.5153                12.3621                 0.3580

                     25                     26                     27
                      A                      A                      A
 Frequencies --    689.1990               730.0243               733.1710
 Red. masses --      3.5346                 2.2727                 1.7085
 Frc consts  --      0.9892                 0.7136                 0.5411
 IR Inten    --     27.9893                47.1456               126.2701

                     28                     29                     30
                      A                      A                      A
 Frequencies --    750.1257               779.5943               801.2937
 Red. masses --      3.2928                 7.4061                 2.1221
 Frc consts  --      1.0917                 2.6520                 0.8028
 IR Inten    --     20.2076                28.0150                16.8994

                     31                     32                     33
                      A                      A                      A
 Frequencies --    872.0732               885.6646               967.5852
 Red. masses --      3.3062                 1.2504                 1.4390
 Frc consts  --      1.4814                 0.5779                 0.7938
 IR Inten    --     20.6248                 0.4424                 2.5122

                     34                     35                     36
                      A                      A                      A
 Frequencies --    998.7560              1020.6027              1027.1473
 Red. masses --      3.1037                 1.3641                 3.8565
 Frc consts  --      1.8241                 0.8371                 2.3972
 IR Inten    --     10.2574                 0.7461                 1.9842

                     37                     38                     39
                      A                      A                      A
 Frequencies --   1027.8108              1036.7947              1045.5847
 Red. masses --      1.2294                 1.3060                 3.3579
 Frc consts  --      0.7652                 0.8271                 2.1629
 IR Inten    --     47.1221                 0.4052               169.9828

                     40                     41                     42
                      A                      A                      A
 Frequencies --   1065.0849              1091.4205              1117.9253
 Red. masses --      2.1922                 1.1906                 1.6567
 Frc consts  --      1.4652                 0.8356                 1.2199
 IR Inten    --      6.2412                70.2035                 7.8776

                     43                     44                     45
                      A                      A                      A
 Frequencies --   1152.7119              1156.5964              1181.1572
 Red. masses --      1.6373                 2.2575                 1.7261
 Frc consts  --      1.2818                 1.7793                 1.4188
 IR Inten    --     16.7335                39.0994                32.2011

                     46                     47                     48
                      A                      A                      A
 Frequencies --   1185.2831              1215.8144              1223.7102
 Red. masses --      1.1401                 1.1712                 2.0931
 Frc consts  --      0.9437                 1.0200                 1.8467
 IR Inten    --      0.5796                13.6541                32.1553

                     49                     50                     51
                      A                      A                      A
 Frequencies --   1236.6473              1244.9067              1292.4225
 Red. masses --      1.3829                 1.9909                 1.2301
 Frc consts  --      1.2461                 1.8179                 1.2106
 IR Inten    --     89.6917                82.6636                84.0037

                     52                     53                     54
                      A                      A                      A
 Frequencies --   1316.6070              1333.8161              1362.4107
 Red. masses --      2.1666                 4.0420                 1.3295
 Frc consts  --      2.2128                 4.2368                 1.4540
 IR Inten    --    339.4655                44.0605                15.4447

                     55                     56                     57
                      A                      A                      A
 Frequencies --   1371.0138              1444.0882              1454.2925
 Red. masses --      1.3585                 2.0114                 1.2494
 Frc consts  --      1.5045                 2.4713                 1.5569
 IR Inten    --     44.6069               299.3273                24.6423

                     58                     59                     60
                      A                      A                      A
 Frequencies --   1461.4886              1477.5901              1496.0549
 Red. masses --      1.4361                 1.0692                 1.0446
 Frc consts  --      1.8072                 1.3754                 1.3775
 IR Inten    --    103.0775                30.8837                19.3872

                     61                     62                     63
                      A                      A                      A
 Frequencies --   1502.0908              1506.1469              1507.0741
 Red. masses --      2.0009                 1.0696                 1.1189
 Frc consts  --      2.6599                 1.4295                 1.4973
 IR Inten    --     35.2401                 1.5050                32.2420

                     64                     65                     66
                      A                      A                      A
 Frequencies --   1552.0364              1555.8404              1597.8747
 Red. masses --      2.4164                 2.1284                 4.8631
 Frc consts  --      3.4294                 3.0355                 7.3155
 IR Inten    --     35.5819               812.8638               509.4331

                     67                     68                     69
                      A                      A                      A
 Frequencies --   1647.5485              1655.3107              1679.6652
 Red. masses --      1.1509                 5.4289                 5.8461
 Frc consts  --      1.8406                 8.7644                 9.7177
 IR Inten    --     13.0337                 0.7281                 0.2133

                     70                     71                     72
                      A                      A                      A
 Frequencies --   3037.6843              3069.2363              3106.4017
 Red. masses --      1.0435                 1.0338                 1.0943
 Frc consts  --      5.6731                 5.7377                 6.2215
 IR Inten    --    106.8595                33.0464                45.0462

                     73                     74                     75
                      A                      A                      A
 Frequencies --   3143.9154              3146.3049              3155.1282
 Red. masses --      1.1046                 1.0878                 1.1024
 Frc consts  --      6.4325                 6.3444                 6.4657
 IR Inten    --     11.3677                 8.0594                25.6703

                     76                     77                     78
                      A                      A                      A
 Frequencies --   3174.3328              3193.8208              3201.1159
 Red. masses --      1.1051                 1.0870                 1.0887
 Frc consts  --      6.5606                 6.5331                 6.5728
 IR Inten    --     14.8416                 4.5703                 1.7872

                     79                     80                     81
                      A                      A                      A
 Frequencies --   3210.8839              3221.8232              3237.2006
 Red. masses --      1.0929                 1.0974                 1.0935
 Frc consts  --      6.6389                 6.7113                 6.7517
 IR Inten    --     27.5177                26.5119                 6.2388

                     82                     83                     84
                      A                      A                      A
 Frequencies --   3479.5650              3584.8335              3674.7700
 Red. masses --      1.0555                 1.0926                 1.0776
 Frc consts  --      7.5293                 8.2731                 8.5734
 IR Inten    --     55.7965                80.4052                68.2670

 - Thermochemistry -
 -------------------
 Temperature   298.150 Kelvin.  Pressure   1.00000 Atm.
 Atom     1 has atomic number  6 and mass  12.00000

 Molecular mass:   270.03677 amu.
 Principal axes and moments of inertia in atomic units:
                           1         2         3
     Eigenvalues --  2454.955126037.888966867.26106
           X            0.99988   0.01479   0.00390
           Y           -0.01457   0.99863  -0.05023
           Z           -0.00463   0.05017   0.99873
 This molecule is an asymmetric top.
 Rotational symmetry number  1.
 Warning -- assumption of classical behavior for rotation
           may cause significant error
 Rotational temperatures (Kelvin)      0.03528     0.01435     0.01261
 Rotational constants (GHZ):           0.73514     0.29890     0.26280
    1 imaginary frequencies ignored.
 Zero-point vibrational energy     652494.0 (Joules/Mol)
                                  155.94982 (Kcal/Mol)
 Warning -- explicit consideration of  22 degrees of freedom as
           vibrations may cause significant error
 Vibrational temperatures:     47.60    60.35    82.45   116.02   121.01
          (Kelvin)            139.20   179.32   188.67   200.01   237.64
                              312.68   318.95   386.18   392.32   430.36
                              451.48   554.86   586.89   615.19   633.42
                              826.17   841.72   912.23   991.60  1050.34
                             1054.87  1079.26  1121.66  1152.88  1254.72
                             1274.27  1392.14  1436.99  1468.42  1477.84
                             1478.79  1491.72  1504.36  1532.42  1570.31
                             1608.45  1658.50  1664.08  1699.42  1705.36
                             1749.29  1760.65  1779.26  1791.14  1859.51
                             1894.30  1919.06  1960.21  1972.58  2077.72
                             2092.40  2102.76  2125.92  2152.49  2161.17
                             2167.01  2168.34  2233.03  2238.51  2298.99
                             2370.45  2381.62  2416.66  4370.55  4415.95
                             4469.42  4523.39  4526.83  4539.53  4567.16
                             4595.20  4605.69  4619.75  4635.49  4657.61
                             5006.32  5157.78  5287.17

 Zero-point correction=                           0.248522 (Hartree/Particle)
 Thermal correction to Energy=                    0.264547
 Thermal correction to Enthalpy=                  0.265491
 Thermal correction to Gibbs Free Energy=         0.202960
 Sum of electronic and zero-point Energies=          -3186.902313
 Sum of electronic and thermal Energies=             -3186.886288
 Sum of electronic and thermal Enthalpies=           -3186.885344
 Sum of electronic and thermal Free Energies=        -3186.947875

                     E (Thermal)             CV                S
                      KCal/Mol        Cal/Mol-Kelvin    Cal/Mol-Kelvin
 Total                  166.006             56.835            131.606
 Electronic               0.000              0.000              0.000
 Translational            0.889              2.981             42.679
 Rotational               0.889              2.981             32.987
 Vibrational            164.228             50.873             55.940
 Vibration     1          0.594              1.983              5.636
 Vibration     2          0.595              1.980              5.165
 Vibration     3          0.596              1.975              4.548
 Vibration     4          0.600              1.962              3.875
 Vibration     5          0.601              1.960              3.793
 Vibration     6          0.603              1.951              3.519
 Vibration     7          0.610              1.928              3.027
 Vibration     8          0.612              1.922              2.929
 Vibration     9          0.615              1.914              2.817
 Vibration    10          0.624              1.885              2.490
 Vibration    11          0.646              1.815              1.981
 Vibration    12          0.648              1.808              1.945
 Vibration    13          0.673              1.731              1.606
 Vibration    14          0.676              1.724              1.579
 Vibration    15          0.692              1.675              1.422
 Vibration    16          0.702              1.647              1.342
 Vibration    17          0.754              1.501              1.017
 Vibration    18          0.772              1.453              0.934
 Vibration    19          0.789              1.410              0.867
 Vibration    20          0.800              1.382              0.826
 Vibration    21          0.931              1.087              0.496
 Vibration    22          0.942              1.064              0.476

 Optimization completed.
    -- Stationary point found.
 Normal termination of Gaussian 16 at Sat Jan 30 19:49:43 2021.
