 Gaussian 16, Revision A.03,
 Gaussian 16:  ES64L-G16RevA.03 25-Dec-2016

 ----------------------------------------------------------------------
 # wB97XD def2tzvp, opt=(ts, noeigen, calcfc, maxcycles=70, maxstep=3),
  freq=noraman, scrf=(iefpcm, solvent=water)
 ----------------------------------------------------------------------

 ------------------------
 0_iteration/TS-687-0.out
 ------------------------
 Symbolic Z-matrix:
 Charge =  0 Multiplicity = 1

 SCF Done:  E(RwB97XD) =  -3418.20420349     A.U. after   14 cycles
 SCF Done:  E(RwB97XD) =  -3418.20420349     A.U. after    6 cycles
 Optimization completed.
    -- Stationary point found.
 Normal termination of Gaussian 16 at Sun Mar 28 08:12:35 2021.

 ---------------------------------------------------------------------
 #N Geom=AllCheck Guess=TCheck SCRF=Check GenChk RwB97XD/def2TZVP Freq
 ---------------------------------------------------------------------

 Structure from the checkpoint file:  "/beegfs/scratch/user/q/tla25/Gau-95232.chk"
 ------------------------
 0_iteration/TS-687-0.out
 ------------------------
 Charge =  0 Multiplicity = 1

                         Standard orientation:
 ---------------------------------------------------------------------
 Center     Atomic      Atomic             Coordinates (Angstroms)
 Number     Number       Type             X           Y           Z
 ---------------------------------------------------------------------
      1          6           0        0.575345   -0.372594   -0.091629
      2          6           0       -0.763960   -0.927716   -0.157809
      3          8           0       -1.048652   -2.121372   -0.288040
      4          6           0        1.701880   -1.197805   -0.109876
      5          6           0        1.468691   -1.793341    2.591695
      6          1           0        1.733235   -1.503154    3.607341
      7          1           0        0.494691   -1.370346    2.337800
      8          1           0        1.414008   -2.876930    2.528697
      9          7           0        2.443180   -1.296053    1.625698
     10          1           0        2.712082   -0.339640    1.829241
     11          1           0        3.290121   -1.854032    1.609001
     12         35           0        3.323637   -0.385148   -0.941125
     13          6           0        1.667025   -2.659546   -0.458616
     14          1           0        1.330730   -2.775692   -1.488054
     15          1           0        2.656416   -3.102523   -0.361147
     16          1           0        0.957585   -3.181993    0.176351
     17          6           0        0.738202    1.103826    0.080247
     18          6           0        0.849690    1.680870    1.345622
     19          6           0        0.991855    3.053353    1.501477
     20          6           0        1.011065    3.879525    0.388583
     21          6           0        0.883338    3.325509   -0.878381
     22          6           0        0.748801    1.954253   -1.027197
     23          1           0        0.802360    1.051419    2.226717
     24          1           0        1.079293    3.475835    2.494618
     25          1           0        1.118311    4.950368    0.506657
     26          1           0        0.890109    3.964156   -1.752869
     27          1           0        0.651852    1.524304   -2.016845
     28          7           0       -1.773611    0.022288   -0.069970
     29          6           0       -3.157356   -0.135520   -0.119300
     30          6           0       -3.815039   -1.361386   -0.247952
     31          6           0       -5.202560   -1.400271   -0.284168
     32          6           0       -5.961310   -0.244194   -0.194270
     33          6           0       -5.308552    0.975262   -0.065285
     34          6           0       -3.928002    1.030702   -0.028446
     35          1           0       -1.468144    0.974689    0.035199
     36          1           0       -3.237179   -2.267490   -0.317879
     37          1           0       -5.693514   -2.360825   -0.384738
     38          1           0       -7.042145   -0.289603   -0.223712
     39          1           0       -5.877784    1.893763    0.007112
     40          1           0       -3.431750    1.989659    0.071918
 ---------------------------------------------------------------------

 SCF Done:  E(RwB97XD) =  -3418.20420349     A.U. after    1 cycles

 The electronic state is 1-A.
 Alpha  occ. eigenvalues -- -483.12266 -62.67118 -56.46216 -56.45892 -56.45876
 Alpha  occ. eigenvalues --  -19.19839 -14.49605 -14.45654 -10.39988 -10.38331
 Alpha  occ. eigenvalues --  -10.33584 -10.32065 -10.30146 -10.29181 -10.29127
 Alpha  occ. eigenvalues --  -10.29102 -10.29054 -10.28879 -10.28879 -10.28710
 Alpha  occ. eigenvalues --  -10.28594 -10.28365 -10.28020 -10.27881 -10.26609
 Alpha  occ. eigenvalues --   -8.81218  -6.63304  -6.62285  -6.62233  -2.73695
 Alpha  occ. eigenvalues --   -2.73419  -2.73378  -2.72552  -2.72551  -1.12953
 Alpha  occ. eigenvalues --   -1.05128  -1.03447  -0.97173  -0.95128  -0.93354
 Alpha  occ. eigenvalues --   -0.87624  -0.85176  -0.84870  -0.84378  -0.83844
 Alpha  occ. eigenvalues --   -0.79834  -0.79446  -0.73351  -0.71182  -0.70491
 Alpha  occ. eigenvalues --   -0.69817  -0.67203  -0.64087  -0.63819  -0.62103
 Alpha  occ. eigenvalues --   -0.61408  -0.58702  -0.57783  -0.56860  -0.55997
 Alpha  occ. eigenvalues --   -0.54568  -0.54100  -0.53154  -0.52547  -0.51806
 Alpha  occ. eigenvalues --   -0.51500  -0.51071  -0.50891  -0.49827  -0.49677
 Alpha  occ. eigenvalues --   -0.48509  -0.47788  -0.46586  -0.46174  -0.44750
 Alpha  occ. eigenvalues --   -0.44462  -0.43606  -0.42688  -0.42506  -0.42391
 Alpha  occ. eigenvalues --   -0.39285  -0.37374  -0.37025  -0.34478  -0.33834
 Alpha  occ. eigenvalues --   -0.33568  -0.31984  -0.30205  -0.26846
 Alpha virt. eigenvalues --    0.04032   0.04651   0.04827   0.05348   0.05584
 Alpha virt. eigenvalues --    0.08856   0.09960   0.12208   0.13205   0.13704
 Alpha virt. eigenvalues --    0.14209   0.14298   0.15171   0.16419   0.16516

 Mulliken charges:
               1
     1  C   -0.267343
     2  C    0.403255
     3  O   -0.549880
     4  C    0.127447
     5  C   -0.331313
     6  H    0.169662
     7  H    0.162122
     8  H    0.171075
     9  N   -0.297572
    10  H    0.287158
    11  H    0.294524
    12  Br  -0.154917
    13  C   -0.340350
    14  H    0.146897
    15  H    0.146020
    16  H    0.152977
    17  C    0.088729
    18  C   -0.257995
    19  C   -0.178017
    20  C   -0.119286
    21  C   -0.146086
    22  C   -0.218175
    23  H    0.171895
    24  H    0.141099
    25  H    0.144314
    26  H    0.141644
    27  H    0.139939
    28  N   -0.250977
    29  C    0.288477
    30  C   -0.295437
    31  C   -0.116244
    32  C   -0.199332
    33  C   -0.104024
    34  C   -0.316233
    35  H    0.246434
    36  H    0.158968
    37  H    0.139152
    38  H    0.138971
    39  H    0.141517
    40  H    0.140906
 Sum of Mulliken charges =  -0.00000

 Dipole moment (field-independent basis, Debye):
    X=              5.6909    Y=              1.4789    Z=              6.1243  Tot=              8.4900
 Quadrupole moment (field-independent basis, Debye-Ang):
   XX=           -135.5031   YY=           -125.9684   ZZ=           -126.7979
   XY=            -14.1484   XZ=             13.1908   YZ=             -7.1630

  Exact polarizability: 408.108  -0.954 353.686   5.562  -1.907 275.243
 Approx polarizability: 295.267   3.799 290.635   3.617  -0.671 237.735

 ******    1 imaginary frequencies (negative Signs) ******

                      1                      2                      3
                      A                      A                      A
 Frequencies --   -374.8579                15.8515                26.1764
 Red. masses --      5.7472                 3.9047                 5.4955
 Frc consts  --      0.4758                 0.0006                 0.0022
 IR Inten    --    852.0651                 1.0386                 0.9114

                      4                      5                      6
                      A                      A                      A
 Frequencies --     34.4928                51.8875                58.7831
 Red. masses --      4.1586                 5.2124                 6.5012
 Frc consts  --      0.0029                 0.0083                 0.0132
 IR Inten    --      3.3356                 0.1761                13.2217

                      7                      8                      9
                      A                      A                      A
 Frequencies --     67.8272                85.7980                99.3819
 Red. masses --      4.7873                 6.1764                 4.1099
 Frc consts  --      0.0130                 0.0268                 0.0239
 IR Inten    --      1.1961                 1.3654                 1.0998

                     10                     11                     12
                      A                      A                      A
 Frequencies --    132.5113               151.9233               186.5553
 Red. masses --      2.8788                 4.3677                 5.0823
 Frc consts  --      0.0298                 0.0594                 0.1042
 IR Inten    --      6.2536                 2.5578                13.5612

                     13                     14                     15
                      A                      A                      A
 Frequencies --    201.2449               208.3771               238.3737
 Red. masses --      1.4137                 2.4928                 4.4580
 Frc consts  --      0.0337                 0.0638                 0.1492
 IR Inten    --      4.9687                 1.6437                 3.3531

                     16                     17                     18
                      A                      A                      A
 Frequencies --    241.8780               263.8202               287.3542
 Red. masses --      4.4787                 2.8757                 2.0486
 Frc consts  --      0.1544                 0.1179                 0.0997
 IR Inten    --      3.0032                21.0599                31.3213

                     19                     20                     21
                      A                      A                      A
 Frequencies --    294.7632               320.9972               366.8259
 Red. masses --      3.1426                 2.2764                 4.1579
 Frc consts  --      0.1609                 0.1382                 0.3296
 IR Inten    --     18.4785                 5.3564                20.0016

                     22                     23                     24
                      A                      A                      A
 Frequencies --    395.2306               413.1070               424.0923
 Red. masses --      4.9883                 2.8115                 2.9999
 Frc consts  --      0.4591                 0.2827                 0.3179
 IR Inten    --      6.1139                31.7441                 0.0370

                     25                     26                     27
                      A                      A                      A
 Frequencies --    424.5416               436.0682               516.2595
 Red. masses --      2.8853                 3.3456                 4.2492
 Frc consts  --      0.3064                 0.3748                 0.6673
 IR Inten    --      0.1586                 5.5902                90.2348

                     28                     29                     30
                      A                      A                      A
 Frequencies --    528.8522               556.3374               569.1887
 Red. masses --      2.9921                 1.2976                 3.5148
 Frc consts  --      0.4931                 0.2366                 0.6709
 IR Inten    --     40.4451                38.6613               110.4084

                     31                     32                     33
                      A                      A                      A
 Frequencies --    586.5007               635.3177               640.0885
 Red. masses --      3.5847                 6.3142                 6.5115
 Frc consts  --      0.7265                 1.5016                 1.5718
 IR Inten    --     98.8023                 7.2904                 1.6822

                     34                     35                     36
                      A                      A                      A
 Frequencies --    651.8402               683.8008               718.7644
 Red. masses --      3.4087                 4.7954                 1.7808
 Frc consts  --      0.8533                 1.3211                 0.5421
 IR Inten    --     64.6409                 8.3192               195.2484

                     37                     38                     39
                      A                      A                      A
 Frequencies --    718.8678               733.3585               782.7847
 Red. masses --      1.8853                 1.5395                 1.8514
 Frc consts  --      0.5740                 0.4878                 0.6684
 IR Inten    --     88.0566                49.5325                63.6371

                     40                     41                     42
                      A                      A                      A
 Frequencies --    787.2587               798.5001               857.1734
 Red. masses --      7.1270                 2.3444                 4.3923
 Frc consts  --      2.6025                 0.8807                 1.9014
 IR Inten    --     74.0066                 8.2400                59.5412

                     43                     44                     45
                      A                      A                      A
 Frequencies --    861.2787               877.1675               883.4420
 Red. masses --      1.2686                 5.8130                 1.2608
 Frc consts  --      0.5545                 2.6352                 0.5798
 IR Inten    --      0.2981                 0.8329                 0.0172

                     46                     47                     48
                      A                      A                      A
 Frequencies --    930.2475               958.4398               991.0437
 Red. masses --      1.4733                 1.4748                 4.2283
 Frc consts  --      0.7512                 0.7982                 2.4468
 IR Inten    --     14.4895                16.9078                70.3132

                     49                     50                     51
                      A                      A                      A
 Frequencies --    999.8313              1012.9692              1015.0754
 Red. masses --      1.3414                 1.2009                 1.2786
 Frc consts  --      0.7901                 0.7260                 0.7762
 IR Inten    --      0.0336                16.4378                 0.9799

                     52                     53                     54
                      A                      A                      A
 Frequencies --   1017.4917              1019.1376              1027.7092
 Red. masses --      1.4647                 4.5921                 4.5403
 Frc consts  --      0.8934                 2.8101                 2.8254
 IR Inten    --      1.7530                12.3491                 2.3886

                     55                     56                     57
                      A                      A                      A
 Frequencies --   1032.3592              1048.6390              1057.0405
 Red. masses --      1.3403                 1.2523                 2.2315
 Frc consts  --      0.8416                 0.8114                 1.4690
 IR Inten    --      0.3987                 4.1920                12.1871

                     58                     59                     60
                      A                      A                      A
 Frequencies --   1060.8595              1071.6961              1074.3337
 Red. masses --      2.0600                 1.5399                 2.0043
 Frc consts  --      1.3660                 1.0420                 1.3630
 IR Inten    --     52.7626               149.9224                42.2483

                     61                     62                     63
                      A                      A                      A
 Frequencies --   1079.7681              1109.2663              1115.3937
 Red. masses --      2.7385                 1.5604                 1.5863
 Frc consts  --      1.8811                 1.1313                 1.1628
 IR Inten    --      9.6215                24.3300                20.7509

                     64                     65                     66
                      A                      A                      A
 Frequencies --   1132.1886              1180.2666              1183.8019
 Red. masses --      2.6485                 1.1191                 1.1355
 Frc consts  --      2.0003                 0.9185                 0.9376
 IR Inten    --     44.1232                 4.0198                 0.1183

                     67                     68                     69
                      A                      A                      A
 Frequencies --   1205.2166              1207.3982              1229.0536
 Red. masses --      1.1667                 1.1201                 1.4036
 Frc consts  --      0.9985                 0.9621                 1.2492
 IR Inten    --     69.5891                 0.0841                36.3313

                     70                     71                     72
                      A                      A                      A
 Frequencies --   1233.4572              1273.3807              1304.1419
 Red. masses --      3.4130                 2.9869                 4.5162
 Frc consts  --      3.0594                 2.8535                 4.5256
 IR Inten    --    354.3920               821.3538                11.6869

                     73                     74                     75
                      A                      A                      A
 Frequencies --   1312.8818              1336.5369              1341.2644
 Red. masses --      5.6090                 1.3745                 2.5277
 Frc consts  --      5.6962                 1.4466                 2.6792
 IR Inten    --    522.5447                79.1257               559.1563

                     76                     77                     78
                      A                      A                      A
 Frequencies --   1355.7250              1359.2348              1414.2420
 Red. masses --      1.4599                 1.9365                 1.4978
 Frc consts  --      1.5809                 2.1079                 1.7650
 IR Inten    --      2.8227                34.4499               238.0382

                     79                     80                     81
                      A                      A                      A
 Frequencies --   1441.9063              1464.0974              1473.9573
 Red. masses --      1.9767                 1.3018                 1.1011
 Frc consts  --      2.4213                 1.6441                 1.4095
 IR Inten    --    328.6757                90.9753                95.4219

                     82                     83                     84
                      A                      A                      A
 Frequencies --   1478.4626              1485.5770              1487.0607
 Red. masses --      1.9163                 1.4011                 1.6603
 Frc consts  --      2.4679                 1.8219                 2.1632
 IR Inten    --    155.3202                62.2478                53.7343

                     85                     86                     87
                      A                      A                      A
 Frequencies --   1499.1224              1507.5893              1542.2373
 Red. masses --      1.0418                 1.0360                 2.4060
 Frc consts  --      1.3795                 1.3873                 3.3717
 IR Inten    --     12.2991                15.8112               100.4951

                     88                     89                     90
                      A                      A                      A
 Frequencies --   1544.9254              1571.8802              1643.0528
 Red. masses --      2.5315                 1.9641                 4.7442
 Frc consts  --      3.5599                 2.8593                 7.5460
 IR Inten    --    199.1737               513.9246                 6.5355

                     91                     92                     93
                      A                      A                      A
 Frequencies --   1644.9614              1657.0281              1670.9475
 Red. masses --      1.1281                 6.0664                 5.8494
 Frc consts  --      1.7986                 9.8139                 9.6224
 IR Inten    --     71.7342               143.1116                28.5711

                     94                     95                     96
                      A                      A                      A
 Frequencies --   1672.1770              1688.1092              3066.5822
 Red. masses --      4.5324                 5.2390                 1.0354
 Frc consts  --      7.4669                 8.7963                 5.7369
 IR Inten    --     36.6873               787.9406                32.5527

                     97                     98                     99
                      A                      A                      A
 Frequencies --   3084.4269              3143.3530              3159.1355
 Red. masses --      1.0368                 1.1026                 1.1033
 Frc consts  --      5.8117                 6.4186                 6.4876
 IR Inten    --     15.3538                 6.7600                16.9811

                    100                    101                    102
                      A                      A                      A
 Frequencies --   3177.8819              3183.9421              3188.9893
 Red. masses --      1.1050                 1.0879                 1.0870
 Frc consts  --      6.5748                 6.4980                 6.5131
 IR Inten    --     11.4127                15.3969                 9.1445

                    103                    104                    105
                      A                      A                      A
 Frequencies --   3189.9431              3193.0265              3194.1048
 Red. masses --      1.1005                 1.0876                 1.0883
 Frc consts  --      6.5981                 6.5329                 6.5415
 IR Inten    --      2.7604                 1.2410                 4.1963

                    106                    107                    108
                      A                      A                      A
 Frequencies --   3202.8016              3204.1481              3210.3142
 Red. masses --      1.0911                 1.0930                 1.0951
 Frc consts  --      6.5942                 6.6112                 6.6496
 IR Inten    --     11.8893                30.6675                40.8360

                    109                    110                    111
                      A                      A                      A
 Frequencies --   3220.3879              3221.1142              3275.6609
 Red. masses --      1.0978                 1.0988                 1.0920
 Frc consts  --      6.7081                 6.7174                 6.9035
 IR Inten    --     25.0730                18.4182                 6.5529

                    112                    113                    114
                      A                      A                      A
 Frequencies --   3517.5348              3598.1992              3645.3521
 Red. masses --      1.0512                 1.0965                 1.0759
 Frc consts  --      7.6630                 8.3643                 8.4240
 IR Inten    --     49.6699                69.0203               110.1458

 - Thermochemistry -
 -------------------
 Temperature   298.150 Kelvin.  Pressure   1.00000 Atm.
 Atom     1 has atomic number  6 and mass  12.00000

 Molecular mass:   346.06807 amu.
 Principal axes and moments of inertia in atomic units:
                           1         2         3
     Eigenvalues --  4596.17081********************
           X            0.99981   0.00056   0.01948
           Y           -0.00018   0.99982  -0.01918
           Z           -0.01948   0.01917   0.99963
 This molecule is an asymmetric top.
 Rotational symmetry number  1.
 Warning -- assumption of classical behavior for rotation
           may cause significant error
 Rotational temperatures (Kelvin)      0.01884     0.00749     0.00623
 Rotational constants (GHZ):           0.39266     0.15598     0.12982
    1 imaginary frequencies ignored.
 Zero-point vibrational energy     865227.4 (Joules/Mol)
                                  206.79431 (Kcal/Mol)
 Warning -- explicit consideration of  30 degrees of freedom as
           vibrations may cause significant error
 Vibrational temperatures:     22.81    37.66    49.63    74.65    84.58
          (Kelvin)             97.59   123.44   142.99   190.65   218.58
                              268.41   289.55   299.81   342.97   348.01
                              379.58   413.44   424.10   461.84   527.78
                              568.65   594.37   610.17   610.82   627.40
                              742.78   760.90   800.45   818.94   843.84
                              914.08   920.94   937.85   983.84  1034.14
                             1034.29  1055.14  1126.25  1132.69  1148.86
                             1233.28  1239.19  1262.05  1271.08  1338.42
                             1378.98  1425.89  1438.53  1457.44  1460.47
                             1463.94  1466.31  1478.64  1485.33  1508.76
                             1520.85  1526.34  1541.93  1545.73  1553.55
                             1595.99  1604.80  1628.97  1698.14  1703.23
                             1734.04  1737.18  1768.33  1774.67  1832.11
                             1876.37  1888.94  1922.98  1929.78  1950.59
                             1955.64  2034.78  2074.58  2106.51  2120.70
                             2127.18  2137.41  2139.55  2156.90  2169.08
                             2218.94  2222.80  2261.59  2363.99  2366.73
                             2384.09  2404.12  2405.89  2428.81  4412.13
                             4437.80  4522.58  4545.29  4572.26  4580.98
                             4588.24  4589.62  4594.05  4595.60  4608.12
                             4610.05  4618.93  4633.42  4634.46  4712.95
                             5060.95  5177.01  5244.85

 Zero-point correction=                           0.329548 (Hartree/Particle)
 Thermal correction to Energy=                    0.349653
 Thermal correction to Enthalpy=                  0.350597
 Thermal correction to Gibbs Free Energy=         0.277751
 Sum of electronic and zero-point Energies=          -3417.874656
 Sum of electronic and thermal Energies=             -3417.854551
 Sum of electronic and thermal Enthalpies=           -3417.853607
 Sum of electronic and thermal Free Energies=        -3417.926452

                     E (Thermal)             CV                S
                      KCal/Mol        Cal/Mol-Kelvin    Cal/Mol-Kelvin
 Total                  219.410             75.780            153.317
 Electronic               0.000              0.000              0.000
 Translational            0.889              2.981             43.419
 Rotational               0.889              2.981             34.957
 Vibrational            217.633             69.818             74.941
 Vibration     1          0.593              1.986              7.096
 Vibration     2          0.593              1.985              6.100
 Vibration     3          0.594              1.983              5.553
 Vibration     4          0.596              1.977              4.744
 Vibration     5          0.596              1.974              4.498
 Vibration     6          0.598              1.970              4.215
 Vibration     7          0.601              1.959              3.754
 Vibration     8          0.604              1.950              3.466
 Vibration     9          0.613              1.921              2.909
 Vibration    10          0.619              1.901              2.648
 Vibration    11          0.632              1.858              2.262
 Vibration    12          0.638              1.838              2.122
 Vibration    13          0.642              1.828              2.058
 Vibration    14          0.656              1.782              1.815
 Vibration    15          0.658              1.776              1.789
 Vibration    16          0.670              1.739              1.636
 Vibration    17          0.685              1.697              1.489
 Vibration    18          0.689              1.683              1.446
 Vibration    19          0.706              1.633              1.305
 Vibration    20          0.740              1.540              1.093
 Vibration    21          0.762              1.480              0.980
 Vibration    22          0.777              1.442              0.916
 Vibration    23          0.786              1.418              0.878
 Vibration    24          0.787              1.417              0.877
 Vibration    25          0.797              1.392              0.839
 Vibration    26          0.871              1.214              0.619
 Vibration    27          0.884              1.186              0.590
 Vibration    28          0.912              1.126              0.531
 Vibration    29          0.925              1.098              0.506
 Vibration    30          0.944              1.061              0.473

 Optimization completed.
    -- Stationary point found.
 Normal termination of Gaussian 16 at Sun Mar 28 10:57:12 2021.
