 Gaussian 16, Revision A.03,
 Gaussian 16:  ES64L-G16RevA.03 25-Dec-2016

 ----------------------------------------------------------------------
 # wB97XD def2tzvp, opt=(ts, noeigen, calcfc, maxcycles=70, maxstep=3),
  freq=noraman, scrf=(iefpcm, solvent=water)
 ----------------------------------------------------------------------

 ------------------------
 3_iteration/TS-640-3.out
 ------------------------
 Symbolic Z-matrix:
 Charge =  0 Multiplicity = 1

 SCF Done:  E(RwB97XD) =  -3783.10641266     A.U. after   15 cycles
 Optimization completed.
    -- Stationary point found.
 Normal termination of Gaussian 16 at Sun Feb 21 05:44:36 2021.

 ---------------------------------------------------------------------
 #N Geom=AllCheck Guess=TCheck SCRF=Check GenChk RwB97XD/def2TZVP Freq
 ---------------------------------------------------------------------

 Structure from the checkpoint file:  "/beegfs/scratch/user/q/tla25/Gau-46583.chk"
 ------------------------
 3_iteration/TS-640-3.out
 ------------------------
 Charge =  0 Multiplicity = 1

                         Standard orientation:
 ---------------------------------------------------------------------
 Center     Atomic      Atomic             Coordinates (Angstroms)
 Number     Number       Type             X           Y           Z
 ---------------------------------------------------------------------
      1          6           0        0.316309   -0.581249    0.156539
      2          6           0        1.170311    0.531550    0.510829
      3          8           0        0.757362    1.542760    1.072849
      4          6           0       -1.068570   -0.492468    0.125059
      5          6           0       -1.047911   -0.578178    3.003299
      6          1           0       -1.205481   -1.157888    3.912879
      7          1           0        0.018759   -0.540179    2.785629
      8          1           0       -1.409740    0.436272    3.149979
      9          7           0       -1.727031   -1.184807    1.863349
     10          1           0       -1.460832   -2.158648    1.768499
     11          1           0       -2.737021   -1.161916    1.948019
     12         35           0       -2.015532   -1.831327   -0.947581
     13          6           0       -1.726329    0.840543   -0.078521
     14          6           0       -2.721659    1.362334    0.735959
     15          6           0       -3.303077    2.587844    0.441359
     16          6           0       -2.908437    3.301924   -0.677081
     17          6           0       -1.927267    2.777653   -1.507921
     18          6           0       -1.346088    1.558412   -1.213861
     19          1           0       -3.061479    0.839954    1.616469
     20          1           0       -4.070267    2.980645    1.096059
     21          1           0       -3.364006    4.257144   -0.904001
     22          1           0       -1.612817    3.320112   -2.390301
     23          1           0       -0.582749    1.153341   -1.865731
     24         17           0        1.065138   -2.162960    0.024519
     25          6           0        2.625270    0.471078    0.140919
     26          6           0        3.577411    0.853147    1.079409
     27          6           0        4.921931    0.876376    0.741959
     28          6           0        5.320171    0.544526   -0.545691
     29          6           0        4.371160    0.181666   -1.491941
     30          6           0        3.029710    0.133878   -1.146751
     31          1           0        3.258801    1.129068    2.076889
     32          1           0        5.659341    1.159675    1.482269
     33          1           0        6.369061    0.571144   -0.812821
     34          1           0        4.677140   -0.067304   -2.500151
     35          1           0        2.290280   -0.157281   -1.882841
 ---------------------------------------------------------------------

 SCF Done:  E(RwB97XD) =  -3783.10641266     A.U. after    1 cycles

 The electronic state is 1-A.
 Alpha  occ. eigenvalues -- -483.13702-101.69568 -62.68532 -56.47657 -56.47297
 Alpha  occ. eigenvalues --  -56.47278 -19.22524 -14.48926 -10.41110 -10.37526
 Alpha  occ. eigenvalues --  -10.32526 -10.31966 -10.31789 -10.30004 -10.29982
 Alpha  occ. eigenvalues --  -10.29676 -10.29529 -10.29506 -10.29464 -10.29428
 Alpha  occ. eigenvalues --  -10.29404 -10.29353 -10.29234 -10.29216  -9.58105
 Alpha  occ. eigenvalues --   -8.82624  -7.32744  -7.31888  -7.31874  -6.64791
 Alpha  occ. eigenvalues --   -6.63652  -6.63590  -2.75171  -2.74859  -2.74810
 Alpha  occ. eigenvalues --   -2.73888  -2.73888  -1.13594  -1.04503  -0.99009
 Alpha  occ. eigenvalues --   -0.97351  -0.96549  -0.92075  -0.86804  -0.86414
 Alpha  occ. eigenvalues --   -0.85876  -0.85446  -0.82472  -0.79101  -0.75633
 Alpha  occ. eigenvalues --   -0.71686  -0.71205  -0.70772  -0.68112  -0.64997
 Alpha  occ. eigenvalues --   -0.63244  -0.61558  -0.58932  -0.57926  -0.57268
 Alpha  occ. eigenvalues --   -0.56467  -0.55365  -0.54856  -0.54076  -0.53549
 Alpha  occ. eigenvalues --   -0.52588  -0.51415  -0.51322  -0.51118  -0.48795
 Alpha  occ. eigenvalues --   -0.48635  -0.47788  -0.46963  -0.46705  -0.45184
 Alpha  occ. eigenvalues --   -0.44422  -0.44213  -0.43552  -0.42884  -0.41986
 Alpha  occ. eigenvalues --   -0.41185  -0.37869  -0.37696  -0.35388  -0.34344
 Alpha  occ. eigenvalues --   -0.33934  -0.33500  -0.32016  -0.28708
 Alpha virt. eigenvalues --    0.00767   0.01716   0.04631   0.04902   0.05234
 Alpha virt. eigenvalues --    0.07562   0.10218   0.12048   0.12564   0.13442
 Alpha virt. eigenvalues --    0.14264   0.14597   0.15089   0.15744   0.16804

 Mulliken charges:
               1
     1  C   -0.241628
     2  C    0.289187
     3  O   -0.446433
     4  C    0.201493
     5  C   -0.275143
     6  H    0.159327
     7  H    0.154934
     8  H    0.152489
     9  N   -0.368252
    10  H    0.283132
    11  H    0.290109
    12  Br  -0.084447
    13  C    0.225676
    14  C   -0.208546
    15  C   -0.165724
    16  C   -0.142785
    17  C   -0.134925
    18  C   -0.281842
    19  H    0.140080
    20  H    0.145450
    21  H    0.146466
    22  H    0.145142
    23  H    0.161950
    24  Cl  -0.135240
    25  C    0.156447
    26  C   -0.237320
    27  C   -0.146666
    28  C   -0.131986
    29  C   -0.139780
    30  C   -0.254129
    31  H    0.142573
    32  H    0.144093
    33  H    0.146882
    34  H    0.144468
    35  H    0.164949
 Sum of Mulliken charges =  -0.00000

 Dipole moment (field-independent basis, Debye):
    X=             -3.8778    Y=             -1.8329    Z=              3.2280  Tot=              5.3682
 Quadrupole moment (field-independent basis, Debye-Ang):
   XX=           -117.5031   YY=           -138.5820   ZZ=           -118.7512
   XY=             -0.6347   XZ=            -13.7576   YZ=            -10.4698

  Exact polarizability: 373.486  -0.937 306.568 -25.431   9.891 303.009
 Approx polarizability: 282.341  -2.779 254.424 -20.380  11.131 261.489

 ******    1 imaginary frequencies (negative Signs) ******

                      1                      2                      3
                      A                      A                      A
 Frequencies --   -357.1348                26.3224                38.9213
 Red. masses --      5.3492                 5.9806                 3.7000
 Frc consts  --      0.4020                 0.0024                 0.0033
 IR Inten    --    720.8271                 2.0124                 0.1971

                      4                      5                      6
                      A                      A                      A
 Frequencies --     45.1537                52.4478                74.3245
 Red. masses --      6.4449                 4.6476                 6.3767
 Frc consts  --      0.0077                 0.0075                 0.0208
 IR Inten    --      0.7194                 1.6017                 1.2075

                      7                      8                      9
                      A                      A                      A
 Frequencies --     99.6723               116.6774               131.4560
 Red. masses --      8.1638                 3.9423                 3.8194
 Frc consts  --      0.0478                 0.0316                 0.0389
 IR Inten    --      0.5796                 2.7606                 5.6672

                     10                     11                     12
                      A                      A                      A
 Frequencies --    154.0887               156.7766               173.7746
 Red. masses --      5.3512                 8.2932                 1.2566
 Frc consts  --      0.0749                 0.1201                 0.0224
 IR Inten    --      5.2105                 4.6282                 1.5673

                     13                     14                     15
                      A                      A                      A
 Frequencies --    197.1774               213.2611               225.2940
 Red. masses --      5.9571                 6.1696                 3.2662
 Frc consts  --      0.1365                 0.1653                 0.0977
 IR Inten    --      1.4695                 1.6288                 7.2348

                     16                     17                     18
                      A                      A                      A
 Frequencies --    242.7889               261.2298               273.6470
 Red. masses --      4.1276                 5.4261                 4.5736
 Frc consts  --      0.1434                 0.2182                 0.2018
 IR Inten    --      6.4406                 3.0129                17.5572

                     19                     20                     21
                      A                      A                      A
 Frequencies --    300.7769               351.1982               395.6517
 Red. masses --      4.5522                 8.3081                 6.3716
 Frc consts  --      0.2426                 0.6038                 0.5877
 IR Inten    --     10.6288                16.7948                13.2951

                     22                     23                     24
                      A                      A                      A
 Frequencies --    420.5884               421.5715               442.4305
 Red. masses --      2.8798                 2.9267                 5.2353
 Frc consts  --      0.3001                 0.3065                 0.6038
 IR Inten    --      0.4130                 1.2193                25.6280

                     25                     26                     27
                      A                      A                      A
 Frequencies --    506.4961               547.8608               567.6627
 Red. masses --      4.2339                 3.8816                 5.7887
 Frc consts  --      0.6399                 0.6864                 1.0990
 IR Inten    --     21.0523               122.9785                89.9808

                     28                     29                     30
                      A                      A                      A
 Frequencies --    589.8925               635.6871               637.2258
 Red. masses --      2.6651                 6.4299                 6.3067
 Frc consts  --      0.5464                 1.5309                 1.5088
 IR Inten    --     26.7311                 0.0957                25.2249

                     31                     32                     33
                      A                      A                      A
 Frequencies --    650.0985               675.1576               718.9171
 Red. masses --      5.8126                 2.2576                 1.8358
 Frc consts  --      1.4474                 0.6063                 0.5590
 IR Inten    --    119.1849                46.3886                39.9190

                     34                     35                     36
                      A                      A                      A
 Frequencies --    724.8213               733.5811               752.0682
 Red. masses --      1.6663                 3.1295                 3.5605
 Frc consts  --      0.5158                 0.9923                 1.1865
 IR Inten    --     82.8566               137.5529                88.5336

                     37                     38                     39
                      A                      A                      A
 Frequencies --    797.2521               822.4648               867.0656
 Red. masses --      2.3710                 2.9201                 1.3386
 Frc consts  --      0.8879                 1.1638                 0.5929
 IR Inten    --     11.0384                25.4694                 7.4163

                     40                     41                     42
                      A                      A                      A
 Frequencies --    871.5395               880.5930               938.3727
 Red. masses --      4.3088                 1.2473                 2.3286
 Frc consts  --      1.9283                 0.5699                 1.2081
 IR Inten    --     85.5945                 0.8657                 2.4677

                     43                     44                     45
                      A                      A                      A
 Frequencies --    964.9642               968.1557               986.6359
 Red. masses --      1.9344                 1.7307                 1.0943
 Frc consts  --      1.0613                 0.9558                 0.6276
 IR Inten    --      2.2828                 3.1957                46.3407

                     46                     47                     48
                      A                      A                      A
 Frequencies --   1010.6455              1014.7115              1024.8825
 Red. masses --      1.3649                 1.3831                 5.4597
 Frc consts  --      0.8214                 0.8390                 3.3788
 IR Inten    --      0.3361                 1.0947                 2.6001

                     49                     50                     51
                      A                      A                      A
 Frequencies --   1026.3444              1030.6781              1032.8287
 Red. masses --      5.9172                 1.3144                 1.3212
 Frc consts  --      3.6724                 0.8227                 0.8304
 IR Inten    --      2.1637                 0.2701                 0.3149

                     52                     53                     54
                      A                      A                      A
 Frequencies --   1052.7539              1059.9700              1067.8624
 Red. masses --      1.1944                 2.1429                 2.2502
 Frc consts  --      0.7799                 1.4185                 1.5118
 IR Inten    --    108.4821                16.8185                 8.1289

                     55                     56                     57
                      A                      A                      A
 Frequencies --   1074.6295              1111.1591              1128.9096
 Red. masses --      4.9076                 1.5619                 1.6415
 Frc consts  --      3.3392                 1.1362                 1.2326
 IR Inten    --     32.8020                20.8299                 8.3615

                     58                     59                     60
                      A                      A                      A
 Frequencies --   1143.7200              1184.2147              1186.2553
 Red. masses --      3.7833                 1.1385                 1.1363
 Frc consts  --      2.9158                 0.9407                 0.9421
 IR Inten    --     17.6391                 0.4584                 0.1714

                     61                     62                     63
                      A                      A                      A
 Frequencies --   1205.0667              1210.5052              1219.8580
 Red. masses --      1.1286                 3.3601                 1.3914
 Frc consts  --      0.9656                 2.9009                 1.2199
 IR Inten    --      5.3748               209.7682                16.2142

                     64                     65                     66
                      A                      A                      A
 Frequencies --   1228.0804              1305.8834              1317.7251
 Red. masses --      1.2079                 4.9594                 4.6945
 Frc consts  --      1.0733                 4.9829                 4.8027
 IR Inten    --      6.0251               316.8163               155.8147

                     67                     68                     69
                      A                      A                      A
 Frequencies --   1332.9001              1341.9962              1358.1956
 Red. masses --      4.9898                 1.3566                 1.4488
 Frc consts  --      5.2231                 1.4395                 1.5746
 IR Inten    --    139.9264                32.9875                 4.6203

                     70                     71                     72
                      A                      A                      A
 Frequencies --   1368.8513              1407.0961              1464.6148
 Red. masses --      1.4070                 5.3777                 1.2473
 Frc consts  --      1.5534                 6.2733                 1.5764
 IR Inten    --      8.1620              1051.7791                28.3786

                     73                     74                     75
                      A                      A                      A
 Frequencies --   1486.7253              1490.3218              1490.9412
 Red. masses --      1.0408                 2.2065                 2.2322
 Frc consts  --      1.3554                 2.8875                 2.9235
 IR Inten    --     21.0727                30.8297                31.0737

                     76                     77                     78
                      A                      A                      A
 Frequencies --   1502.4710              1540.0440              1545.3089
 Red. masses --      1.0403                 2.3082                 2.2887
 Frc consts  --      1.3837                 3.2255                 3.2201
 IR Inten    --     14.0091                 2.1813                29.9644

                     79                     80                     81
                      A                      A                      A
 Frequencies --   1648.0387              1650.0900              1657.4423
 Red. masses --      2.4192                 3.5070                 1.8358
 Frc consts  --      3.8713                 5.6260                 2.9713
 IR Inten    --    101.1834                25.6565                23.8248

                     82                     83                     84
                      A                      A                      A
 Frequencies --   1672.8183              1674.7038              1676.5119
 Red. masses --      6.5046                 5.4534                 9.4677
 Frc consts  --     10.7242                 9.0115                15.6786
 IR Inten    --     94.8225                 2.0773               289.5414

                     85                     86                     87
                      A                      A                      A
 Frequencies --   3073.1889              3149.9273              3176.4884
 Red. masses --      1.0341                 1.1038                 1.1051
 Frc consts  --      5.7543                 6.4530                 6.5695
 IR Inten    --     35.6704                 9.3034                13.7380

                     88                     89                     90
                      A                      A                      A
 Frequencies --   3194.3518              3198.8974              3199.7019
 Red. masses --      1.0860                 1.0862                 1.0882
 Frc consts  --      6.5288                 6.5490                 6.5639
 IR Inten    --      1.6521                 0.4360                 0.7155

                     91                     92                     93
                      A                      A                      A
 Frequencies --   3206.7881              3207.0156              3214.6957
 Red. masses --      1.0894                 1.0916                 1.0952
 Frc consts  --      6.6006                 6.6149                 6.6687
 IR Inten    --      3.9226                10.0607                32.4763

                     94                     95                     96
                      A                      A                      A
 Frequencies --   3215.2935              3223.0315              3224.2933
 Red. masses --      1.0939                 1.0989                 1.0982
 Frc consts  --      6.6627                 6.7258                 6.7268
 IR Inten    --     23.4307                19.7222                20.8017

                     97                     98                     99
                      A                      A                      A
 Frequencies --   3257.2479              3522.7406              3599.6405
 Red. masses --      1.0911                 1.0514                 1.0954
 Frc consts  --      6.8205                 7.6873                 8.3627
 IR Inten    --     16.9811                50.5406                47.0407

 - Thermochemistry -
 -------------------
 Temperature   298.150 Kelvin.  Pressure   1.00000 Atm.
 Atom     1 has atomic number  6 and mass  12.00000

 Molecular mass:   351.00255 amu.
 Principal axes and moments of inertia in atomic units:
                           1         2         3
     Eigenvalues --  4934.115999624.60869**********
           X            0.99917  -0.03502  -0.02088
           Y            0.03375   0.99772  -0.05838
           Z            0.02288   0.05763   0.99808
 This molecule is an asymmetric top.
 Rotational symmetry number  1.
 Warning -- assumption of classical behavior for rotation
           may cause significant error
 Rotational temperatures (Kelvin)      0.01755     0.00900     0.00761
 Rotational constants (GHZ):           0.36577     0.18751     0.15846
    1 imaginary frequencies ignored.
 Zero-point vibrational energy     719319.3 (Joules/Mol)
                                  171.92145 (Kcal/Mol)
 Warning -- explicit consideration of  27 degrees of freedom as
           vibrations may cause significant error
 Vibrational temperatures:     37.87    56.00    64.97    75.46   106.94
          (Kelvin)            143.41   167.87   189.14   221.70   225.57
                              250.02   283.69   306.84   324.15   349.32
                              375.85   393.72   432.75   505.30   569.25
                              605.13   606.55   636.56   728.73   788.25
                              816.74   848.72   914.61   916.83   935.35
                              971.40  1034.36  1042.86  1055.46  1082.06
                             1147.07  1183.34  1247.51  1253.95  1266.98
                             1350.11  1388.37  1392.96  1419.55  1454.09
                             1459.94  1474.58  1476.68  1482.92  1486.01
                             1514.68  1525.06  1536.42  1546.15  1598.71
                             1624.25  1645.56  1703.82  1706.76  1733.82
                             1741.65  1755.10  1766.93  1878.88  1895.91
                             1917.75  1930.83  1954.14  1969.47  2024.50
                             2107.25  2139.07  2144.24  2145.13  2161.72
                             2215.78  2223.35  2371.16  2374.11  2384.69
                             2406.81  2409.53  2412.13  4421.63  4532.04
                             4570.26  4595.96  4602.50  4603.66  4613.85
                             4614.18  4625.23  4626.09  4637.22  4639.04
                             4686.45  5068.44  5179.08

 Zero-point correction=                           0.273974 (Hartree/Particle)
 Thermal correction to Energy=                    0.292779
 Thermal correction to Enthalpy=                  0.293724
 Thermal correction to Gibbs Free Energy=         0.224734
 Sum of electronic and zero-point Energies=          -3782.832438
 Sum of electronic and thermal Energies=             -3782.813633
 Sum of electronic and thermal Enthalpies=           -3782.812689
 Sum of electronic and thermal Free Energies=        -3782.881678

                     E (Thermal)             CV                S
                      KCal/Mol        Cal/Mol-Kelvin    Cal/Mol-Kelvin
 Total                  183.722             69.872            145.200
 Electronic               0.000              0.000              0.000
 Translational            0.889              2.981             43.461
 Rotational               0.889              2.981             34.646
 Vibrational            181.944             63.910             67.093
 Vibration     1          0.593              1.985              6.089
 Vibration     2          0.594              1.981              5.313
 Vibration     3          0.595              1.979              5.019
 Vibration     4          0.596              1.977              4.723
 Vibration     5          0.599              1.966              4.035
 Vibration     6          0.604              1.949              3.461
 Vibration     7          0.608              1.936              3.155
 Vibration     8          0.612              1.922              2.925
 Vibration     9          0.620              1.898              2.621
 Vibration    10          0.620              1.895              2.588
 Vibration    11          0.627              1.875              2.394
 Vibration    12          0.637              1.844              2.159
 Vibration    13          0.644              1.821              2.016
 Vibration    14          0.650              1.803              1.916
 Vibration    15          0.659              1.775              1.782
 Vibration    16          0.669              1.744              1.654
 Vibration    17          0.676              1.722              1.573
 Vibration    18          0.693              1.672              1.413
 Vibration    19          0.728              1.573              1.161
 Vibration    20          0.762              1.479              0.979
 Vibration    21          0.783              1.425              0.890
 Vibration    22          0.784              1.423              0.887
 Vibration    23          0.802              1.378              0.819
 Vibration    24          0.862              1.236              0.642
 Vibration    25          0.903              1.144              0.549
 Vibration    26          0.924              1.101              0.509
 Vibration    27          0.947              1.053              0.467

 Optimization completed.
    -- Stationary point found.
 Normal termination of Gaussian 16 at Sun Feb 21 07:57:13 2021.
