 Gaussian 16, Revision A.03,
 Gaussian 16:  ES64L-G16RevA.03 25-Dec-2016

 ----------------------------------------------------------------------
 # wB97XD def2tzvp, opt=(ts, noeigen, calcfc, maxcycles=70, maxstep=8),
  freq=noraman, scrf=(iefpcm, solvent=water)
 ----------------------------------------------------------------------

 ------------------------
 1_iteration/TS-617-1.out
 ------------------------
 Symbolic Z-matrix:
 Charge =  0 Multiplicity = 1

 SCF Done:  E(RwB97XD) =  -3131.76375491     A.U. after   15 cycles
 SCF Done:  E(RwB97XD) =  -3131.76375953     A.U. after   11 cycles
 SCF Done:  E(RwB97XD) =  -3131.76376047     A.U. after    9 cycles
 Optimization completed on the basis of negligible forces.
    -- Stationary point found.
 Normal termination of Gaussian 16 at Sat Feb 20 11:46:37 2021.

 ---------------------------------------------------------------------
 #N Geom=AllCheck Guess=TCheck SCRF=Check GenChk RwB97XD/def2TZVP Freq
 ---------------------------------------------------------------------

 Structure from the checkpoint file:  "/beegfs/scratch/user/q/tla25/Gau-4925.chk"
 ------------------------
 1_iteration/TS-617-1.out
 ------------------------
 Charge =  0 Multiplicity = 1

                         Standard orientation:
 ---------------------------------------------------------------------
 Center     Atomic      Atomic             Coordinates (Angstroms)
 Number     Number       Type             X           Y           Z
 ---------------------------------------------------------------------
      1          6           0        1.228138    0.981923   -0.506261
      2          6           0        0.636590    2.258045   -0.725066
      3          8           0        1.215058    3.256006   -1.165550
      4          6           0        0.451490   -0.027325    0.055941
      5          6           0        1.067492    1.113760    2.575211
      6          1           0        1.547667    1.809615    1.886514
      7          1           0        0.075529    1.490031    2.812508
      8          1           0        1.658082    1.046474    3.487813
      9          7           0        0.968548   -0.182858    1.916043
     10          1           0        1.882590   -0.612564    1.833701
     11          1           0        0.380220   -0.840739    2.415264
     12         35           0        1.014064   -1.887128   -0.394875
     13          6           0       -1.049048    0.027683    0.041336
     14          6           0       -1.662503    0.013272   -1.214488
     15          6           0       -3.038467    0.059047   -1.335230
     16          6           0       -3.836858    0.115141   -0.200098
     17          6           0       -3.240923    0.122529    1.048316
     18          6           0       -1.857771    0.075097    1.169504
     19          1           0       -1.045545   -0.031253   -2.102593
     20          1           0       -3.488951    0.051533   -2.319348
     21          1           0       -4.914689    0.151734   -0.291167
     22          1           0       -3.848784    0.167201    1.942626
     23          1           0       -1.442230    0.089038    2.164905
     24          6           0        2.698306    0.810225   -0.763334
     25          1           0        3.124019    1.772522   -1.043477
     26          1           0        3.239287    0.450655    0.117506
     27          1           0        2.896503    0.101510   -1.571144
     28          1           0       -0.434934    2.339296   -0.475359
 ---------------------------------------------------------------------

 SCF Done:  E(RwB97XD) =  -3131.76376047     A.U. after    1 cycles

 The electronic state is 1-A.
 Alpha  occ. eigenvalues -- -483.12879 -62.67721 -56.46826 -56.46492 -56.46478
 Alpha  occ. eigenvalues --  -19.20710 -14.49661 -10.40467 -10.34314 -10.32124
 Alpha  occ. eigenvalues --  -10.31975 -10.30301 -10.29890 -10.29723 -10.29666
 Alpha  occ. eigenvalues --  -10.29612 -10.27117 -10.26945  -8.81815  -6.63921
 Alpha  occ. eigenvalues --   -6.62868  -6.62820  -2.74307  -2.74022  -2.73983
 Alpha  occ. eigenvalues --   -2.73131  -2.73131  -1.10864  -1.05144  -0.98382
 Alpha  occ. eigenvalues --   -0.93772  -0.86474  -0.86373  -0.85991  -0.79561
 Alpha  occ. eigenvalues --   -0.78587  -0.73030  -0.71471  -0.69049  -0.65273
 Alpha  occ. eigenvalues --   -0.62312  -0.59759  -0.58384  -0.57699  -0.56527
 Alpha  occ. eigenvalues --   -0.54599  -0.53162  -0.52741  -0.51579  -0.49916
 Alpha  occ. eigenvalues --   -0.48775  -0.48369  -0.47370  -0.46797  -0.45324
 Alpha  occ. eigenvalues --   -0.45078  -0.44721  -0.43408  -0.42990  -0.38159
 Alpha  occ. eigenvalues --   -0.37417  -0.34624  -0.34086  -0.31717  -0.28021
 Alpha virt. eigenvalues --    0.01545   0.03514   0.04884   0.07462   0.09890
 Alpha virt. eigenvalues --    0.13055   0.13666   0.13913   0.14318   0.15399
 Alpha virt. eigenvalues --    0.16049   0.16675   0.18073   0.18578   0.19184

 Mulliken charges:
               1
     1  C   -0.210262
     2  C    0.133266
     3  O   -0.509807
     4  C    0.252006
     5  C   -0.297001
     6  H    0.166169
     7  H    0.155659
     8  H    0.166418
     9  N   -0.337832
    10  H    0.287498
    11  H    0.294981
    12  Br  -0.139430
    13  C    0.139786
    14  C   -0.322001
    15  C   -0.099297
    16  C   -0.151244
    17  C   -0.164859
    18  C   -0.175994
    19  H    0.157198
    20  H    0.148531
    21  H    0.148232
    22  H    0.147017
    23  H    0.140123
    24  C   -0.401230
    25  H    0.131401
    26  H    0.117581
    27  H    0.132943
    28  H    0.090147
 Sum of Mulliken charges =  -0.00000

 Dipole moment (field-independent basis, Debye):
    X=             -2.4078    Y=             -5.2610    Z=              8.0770  Tot=              9.9354
 Quadrupole moment (field-independent basis, Debye-Ang):
   XX=            -87.3397   YY=           -124.1388   ZZ=            -81.3765
   XY=             -9.2833   XZ=              9.5677   YZ=              8.6642

  Exact polarizability: 247.726  -2.591 227.981  -6.768 -16.206 228.514
 Approx polarizability: 193.282  -2.117 185.597  -5.052 -11.987 193.937

 ******    1 imaginary frequencies (negative Signs) ******

                      1                      2                      3
                      A                      A                      A
 Frequencies --   -353.0922                20.7309                68.5357
 Red. masses --      5.2948                 3.5330                 2.2082
 Frc consts  --      0.3889                 0.0009                 0.0061
 IR Inten    --    610.8247                 0.2726                 1.3871

                      4                      5                      6
                      A                      A                      A
 Frequencies --     77.0970                96.8171               103.5483
 Red. masses --      5.7088                 1.5599                 1.7435
 Frc consts  --      0.0200                 0.0086                 0.0110
 IR Inten    --      0.9519                 4.0103                 5.9822

                      7                      8                      9
                      A                      A                      A
 Frequencies --    119.6070               137.4860               163.7788
 Red. masses --      3.9761                 1.5850                 4.1926
 Frc consts  --      0.0335                 0.0177                 0.0663
 IR Inten    --      6.2050                 1.2624                 7.3951

                     10                     11                     12
                      A                      A                      A
 Frequencies --    178.2470               233.6478               257.4361
 Red. masses --      3.5817                 2.9717                 6.8671
 Frc consts  --      0.0670                 0.0956                 0.2681
 IR Inten    --      1.9834                 1.2548                31.4731

                     13                     14                     15
                      A                      A                      A
 Frequencies --    280.0815               294.2218               308.5774
 Red. masses --      3.3189                 3.0322                 3.4848
 Frc consts  --      0.1534                 0.1547                 0.1955
 IR Inten    --     17.5826                 1.4633                33.4089

                     16                     17                     18
                      A                      A                      A
 Frequencies --    337.0529               363.6069               409.9868
 Red. masses --      3.6181                 5.0164                 2.9526
 Frc consts  --      0.2422                 0.3908                 0.2924
 IR Inten    --     13.4144                 9.4464                 1.6523

                     19                     20                     21
                      A                      A                      A
 Frequencies --    419.3823               522.3225               569.6909
 Red. masses --      2.8430                 3.6657                 2.5439
 Frc consts  --      0.2946                 0.5892                 0.4864
 IR Inten    --      0.2674                17.8868               105.2376

                     22                     23                     24
                      A                      A                      A
 Frequencies --    622.6974               642.8769               678.1141
 Red. masses --      3.4195                 5.4632                 2.7337
 Frc consts  --      0.7812                 1.3303                 0.7406
 IR Inten    --     49.2587                39.7957                60.4224

                     25                     26                     27
                      A                      A                      A
 Frequencies --    708.6903               721.1429               788.4393
 Red. masses --      4.1883                 1.4829                 2.4102
 Frc consts  --      1.2394                 0.4544                 0.8828
 IR Inten    --    266.0255               189.8708                30.3520

                     28                     29                     30
                      A                      A                      A
 Frequencies --    851.8425               867.4167               912.7942
 Red. masses --      3.4730                 1.2692                 3.1261
 Frc consts  --      1.4848                 0.5627                 1.5346
 IR Inten    --     97.4173                 2.8546                36.5645

                     31                     32                     33
                      A                      A                      A
 Frequencies --    957.6512               993.9302              1011.9819
 Red. masses --      1.4917                 1.0935                 1.3772
 Frc consts  --      0.8060                 0.6365                 0.8310
 IR Inten    --      1.2321                37.3906                 2.6525

                     34                     35                     36
                      A                      A                      A
 Frequencies --   1023.1037              1026.1925              1030.7475
 Red. masses --      2.4802                 2.9234                 1.6864
 Frc consts  --      1.5296                 1.8139                 1.0557
 IR Inten    --    105.7016                35.4544                78.8153

                     37                     38                     39
                      A                      A                      A
 Frequencies --   1034.0308              1055.6864              1062.2487
 Red. masses --      1.3305                 1.1533                 1.4771
 Frc consts  --      0.8382                 0.7573                 0.9820
 IR Inten    --      0.4279               108.2395                29.5043

                     40                     41                     42
                      A                      A                      A
 Frequencies --   1069.0037              1077.5184              1126.2722
 Red. masses --      2.0841                 4.2516                 1.5799
 Frc consts  --      1.4032                 2.9084                 1.1807
 IR Inten    --      9.4843                36.5474                 7.4025

                     43                     44                     45
                      A                      A                      A
 Frequencies --   1188.1328              1216.7989              1221.5173
 Red. masses --      1.1318                 1.6762                 1.1907
 Frc consts  --      0.9413                 1.4622                 1.0467
 IR Inten    --      0.1054                69.7453                 9.5477

                     46                     47                     48
                      A                      A                      A
 Frequencies --   1227.8029              1315.6117              1334.9604
 Red. masses --      2.2939                 4.0056                 2.7819
 Frc consts  --      2.0374                 4.0848                 2.9210
 IR Inten    --     28.0128               191.1305               419.9266

                     49                     50                     51
                      A                      A                      A
 Frequencies --   1338.2335              1363.4536              1402.2611
 Red. masses --      1.4527                 1.4333                 1.2856
 Frc consts  --      1.5328                 1.5699                 1.4894
 IR Inten    --     52.4286                 6.7283               134.7123

                     52                     53                     54
                      A                      A                      A
 Frequencies --   1433.0937              1458.0670              1476.5179
 Red. masses --      2.4267                 1.1746                 1.1813
 Frc consts  --      2.9364                 1.4713                 1.5173
 IR Inten    --    242.5248                 0.6470                 2.3759

                     55                     56                     57
                      A                      A                      A
 Frequencies --   1487.5882              1489.3545              1492.7128
 Red. masses --      1.4581                 1.3292                 1.0743
 Frc consts  --      1.9010                 1.7371                 1.4104
 IR Inten    --     31.5154                 1.9368                32.9762

                     58                     59                     60
                      A                      A                      A
 Frequencies --   1502.9942              1507.3115              1546.5984
 Red. masses --      1.0570                 1.8089                 2.4357
 Frc consts  --      1.4068                 2.4214                 3.4326
 IR Inten    --     17.2629               190.0714                46.4433

                     61                     62                     63
                      A                      A                      A
 Frequencies --   1646.1037              1654.5313              1658.4641
 Red. masses --      1.6346                 2.1749                 5.8670
 Frc consts  --      2.6096                 3.5079                 9.5078
 IR Inten    --    159.8157                73.5326               942.0655

                     64                     65                     66
                      A                      A                      A
 Frequencies --   1674.4948              2969.6073              3034.0644
 Red. masses --      5.6522                 1.0823                 1.0413
 Frc consts  --      9.3377                 5.6234                 5.6478
 IR Inten    --      8.5825               143.0985                58.1363

                     67                     68                     69
                      A                      A                      A
 Frequencies --   3072.7294              3087.1567              3145.7073
 Red. masses --      1.0341                 1.0990                 1.0974
 Frc consts  --      5.7525                 6.1710                 6.3983
 IR Inten    --     30.7332                38.7978                12.9739

                     70                     71                     72
                      A                      A                      A
 Frequencies --   3148.8833              3176.7100              3201.0272
 Red. masses --      1.1040                 1.1047                 1.0863
 Frc consts  --      6.4494                 6.5682                 6.5582
 IR Inten    --      3.6026                14.3570                 0.4295

                     73                     74                     75
                      A                      A                      A
 Frequencies --   3208.6171              3217.1757              3226.1462
 Red. masses --      1.0894                 1.0939                 1.0982
 Frc consts  --      6.6082                 6.6708                 6.7347
 IR Inten    --      4.6003                18.4131                18.2474

                     76                     77                     78
                      A                      A                      A
 Frequencies --   3254.6523              3526.3832              3601.5079
 Red. masses --      1.0916                 1.0517                 1.0954
 Frc consts  --      6.8128                 7.7055                 8.3717
 IR Inten    --     14.5940                52.7968                50.6844

 - Thermochemistry -
 -------------------
 Temperature   298.150 Kelvin.  Pressure   1.00000 Atm.
 Atom     1 has atomic number  6 and mass  12.00000

 Molecular mass:   255.02588 amu.
 Principal axes and moments of inertia in atomic units:
                           1         2         3
     Eigenvalues --  3087.398694090.584154997.88034
           X            0.99617   0.08532   0.01927
           Y           -0.08537   0.99635   0.00156
           Z           -0.01907  -0.00320   0.99981
 This molecule is an asymmetric top.
 Rotational symmetry number  1.
 Warning -- assumption of classical behavior for rotation
           may cause significant error
 Rotational temperatures (Kelvin)      0.02805     0.02117     0.01733
 Rotational constants (GHZ):           0.58455     0.44119     0.36110
    1 imaginary frequencies ignored.
 Zero-point vibrational energy     602506.4 (Joules/Mol)
                                  144.00249 (Kcal/Mol)
 Warning -- explicit consideration of  20 degrees of freedom as
           vibrations may cause significant error
 Vibrational temperatures:     29.83    98.61   110.93   139.30   148.98
          (Kelvin)            172.09   197.81   235.64   256.46   336.17
                              370.39   402.97   423.32   443.97   484.94
                              523.15   589.88   603.40   751.51   819.66
                              895.92   924.96   975.65  1019.65  1037.56
                             1134.39  1225.61  1248.02  1313.31  1377.85
                             1430.04  1456.02  1472.02  1476.46  1483.02
                             1487.74  1518.90  1528.34  1538.06  1550.31
                             1620.45  1709.46  1750.70  1757.49  1766.53
                             1892.87  1920.71  1925.42  1961.71  2017.54
                             2061.90  2097.83  2124.38  2140.31  2142.85
                             2147.68  2162.47  2168.69  2225.21  2368.38
                             2380.50  2386.16  2409.22  4272.60  4365.34
                             4420.97  4441.73  4525.97  4530.54  4570.58
                             4605.56  4616.48  4628.80  4641.70  4682.72
                             5073.68  5181.77

 Zero-point correction=                           0.229483 (Hartree/Particle)
 Thermal correction to Energy=                    0.244234
 Thermal correction to Enthalpy=                  0.245179
 Thermal correction to Gibbs Free Energy=         0.186097
 Sum of electronic and zero-point Energies=          -3131.534278
 Sum of electronic and thermal Energies=             -3131.519526
 Sum of electronic and thermal Enthalpies=           -3131.518582
 Sum of electronic and thermal Free Energies=        -3131.577663

                     E (Thermal)             CV                S
                      KCal/Mol        Cal/Mol-Kelvin    Cal/Mol-Kelvin
 Total                  153.259             53.319            124.347
 Electronic               0.000              0.000              0.000
 Translational            0.889              2.981             42.509
 Rotational               0.889              2.981             32.512
 Vibrational            151.482             47.357             49.327
 Vibration     1          0.593              1.986              6.563
 Vibration     2          0.598              1.969              4.195
 Vibration     3          0.599              1.964              3.963
 Vibration     4          0.603              1.951              3.517
 Vibration     5          0.605              1.946              3.386
 Vibration     6          0.609              1.933              3.107
 Vibration     7          0.614              1.916              2.839
 Vibration     8          0.623              1.887              2.506
 Vibration     9          0.629              1.869              2.347
 Vibration    10          0.654              1.789              1.851
 Vibration    11          0.667              1.750              1.679
 Vibration    12          0.680              1.710              1.533
 Vibration    13          0.689              1.685              1.450
 Vibration    14          0.698              1.657              1.370
 Vibration    15          0.718              1.601              1.226
 Vibration    16          0.737              1.547              1.107
 Vibration    17          0.774              1.449              0.927
 Vibration    18          0.782              1.428              0.894
 Vibration    19          0.877              1.201              0.605
 Vibration    20          0.926              1.097              0.505

 Optimization completed on the basis of negligible forces.
    -- Stationary point found.
 Normal termination of Gaussian 16 at Sat Feb 20 12:42:12 2021.
