 Gaussian 16, Revision A.03,
 Gaussian 16:  ES64L-G16RevA.03 25-Dec-2016

 ----------------------------------------------------------------------
 # wB97XD def2tzvp, opt=(ts, noeigen, calcfc, maxcycles=70, maxstep=8),
  freq=noraman, scrf=(iefpcm, solvent=water)
 ----------------------------------------------------------------------

 ------------------------
 1_iteration/TS-644-1.out
 ------------------------
 Symbolic Z-matrix:
 Charge =  0 Multiplicity = 1

 SCF Done:  E(RwB97XD) =  -3207.01618153     A.U. after   14 cycles
 Optimization completed.
    -- Stationary point found.
 Normal termination of Gaussian 16 at Fri Feb 19 20:30:29 2021.

 ---------------------------------------------------------------------
 #N Geom=AllCheck Guess=TCheck SCRF=Check GenChk RwB97XD/def2TZVP Freq
 ---------------------------------------------------------------------

 Structure from the checkpoint file:  "/beegfs/scratch/user/q/tla25/Gau-1943.chk"
 ------------------------
 1_iteration/TS-644-1.out
 ------------------------
 Charge =  0 Multiplicity = 1

                         Standard orientation:
 ---------------------------------------------------------------------
 Center     Atomic      Atomic             Coordinates (Angstroms)
 Number     Number       Type             X           Y           Z
 ---------------------------------------------------------------------
      1          6           0       -0.272772   -0.542890   -0.195651
      2          6           0       -1.182947   -1.650346   -0.378861
      3          8           0       -0.868231   -2.808917   -0.619401
      4          6           0        1.066247   -0.889675   -0.268101
      5          6           0        0.913832   -2.008324    2.272469
      6          1           0        1.267592   -2.089506    3.299449
      7          1           0       -0.034846   -1.469961    2.257889
      8          1           0        0.754828   -3.000494    1.857159
      9          7           0        1.864415   -1.287098    1.434849
     10          1           0        2.150969   -0.411300    1.857389
     11          1           0        2.702613   -1.828032    1.254369
     12         35           0        2.364072    0.397890   -0.886431
     13          1           0        1.287473   -1.865186   -0.675401
     14          6           0       -0.744006    0.833922    0.078149
     15          6           0       -1.616004    1.485076   -0.798351
     16          6           0       -2.035298    2.783968   -0.562571
     17          6           0       -1.583835    3.474856    0.554879
     18          6           0       -0.714508    2.847622    1.433539
     19          6           0       -0.306713    1.541841    1.198239
     20          1           0       -1.965956    0.960787   -1.678491
     21          1           0       -2.711296    3.263821   -1.259791
     22          1           0       -1.907461    4.491837    0.737279
     23          1           0       -0.356326    3.370951    2.311529
     24          1           0        0.356795    1.067098    1.910179
     25          8           0       -2.480765   -1.300490   -0.247501
     26          6           0       -3.436209   -2.337146   -0.425741
     27          1           0       -4.408708   -1.868502   -0.296861
     28          1           0       -3.362081   -2.771707   -1.422871
     29          1           0       -3.301753   -3.124417    0.316579
 ---------------------------------------------------------------------

 SCF Done:  E(RwB97XD) =  -3207.01618153     A.U. after    1 cycles

 The electronic state is 1-A.
 Alpha  occ. eigenvalues -- -483.13268 -62.68120 -56.47230 -56.46886 -56.46872
 Alpha  occ. eigenvalues --  -19.28283 -19.21292 -14.49097 -10.39939 -10.38181
 Alpha  occ. eigenvalues --  -10.32635 -10.31790 -10.29905 -10.28678 -10.28609
 Alpha  occ. eigenvalues --  -10.28572 -10.28464 -10.28287 -10.27035  -8.82235
 Alpha  occ. eigenvalues --   -6.64369  -6.63274  -6.63226  -2.74761  -2.74451
 Alpha  occ. eigenvalues --   -2.74412  -2.73526  -2.73526  -1.19723  -1.09980
 Alpha  occ. eigenvalues --   -1.04438  -0.96655  -0.92990  -0.87794  -0.84676
 Alpha  occ. eigenvalues --   -0.83212  -0.80913  -0.79132  -0.71808  -0.70096
 Alpha  occ. eigenvalues --   -0.68518  -0.64669  -0.63003  -0.61540  -0.58887
 Alpha  occ. eigenvalues --   -0.57728  -0.56748  -0.56051  -0.54411  -0.53785
 Alpha  occ. eigenvalues --   -0.53272  -0.51502  -0.50424  -0.50119  -0.48204
 Alpha  occ. eigenvalues --   -0.47551  -0.46644  -0.46049  -0.45291  -0.44105
 Alpha  occ. eigenvalues --   -0.42399  -0.42120  -0.38137  -0.38053  -0.37205
 Alpha  occ. eigenvalues --   -0.35746  -0.33548  -0.33298  -0.27390
 Alpha virt. eigenvalues --    0.04642   0.05440   0.05655   0.07268   0.10070
 Alpha virt. eigenvalues --    0.12516   0.13732   0.14688   0.15372   0.16246
 Alpha virt. eigenvalues --    0.16901   0.17244   0.18051   0.18556   0.18940

 Mulliken charges:
               1
     1  C   -0.252211
     2  C    0.427415
     3  O   -0.513966
     4  C   -0.001561
     5  C   -0.291112
     6  H    0.164222
     7  H    0.156237
     8  H    0.159805
     9  N   -0.337894
    10  H    0.280662
    11  H    0.294272
    12  Br  -0.101353
    13  H    0.191153
    14  C    0.213167
    15  C   -0.266261
    16  C   -0.132957
    17  C   -0.159290
    18  C   -0.153662
    19  C   -0.260097
    20  H    0.133445
    21  H    0.138246
    22  H    0.140474
    23  H    0.138124
    24  H    0.138560
    25  O   -0.297359
    26  C   -0.199212
    27  H    0.137229
    28  H    0.127211
    29  H    0.126712
 Sum of Mulliken charges =  -0.00000

 Dipole moment (field-independent basis, Debye):
    X=              3.3680    Y=             -0.8565    Z=              5.3606  Tot=              6.3885
 Quadrupole moment (field-independent basis, Debye-Ang):
   XX=            -88.8556   YY=           -102.9710   ZZ=            -92.4970
   XY=             -7.0631   XZ=             11.9848   YZ=             -6.9828

  Exact polarizability: 246.606  -9.599 249.583  25.558   3.273 204.409
 Approx polarizability: 191.887  -7.976 200.755  19.586   4.605 173.878

 ******    1 imaginary frequencies (negative Signs) ******

                      1                      2                      3
                      A                      A                      A
 Frequencies --   -369.1895                38.5738                55.3103
 Red. masses --      6.0350                 3.8032                 4.6451
 Frc consts  --      0.4846                 0.0033                 0.0084
 IR Inten    --    779.6219                 2.1802                 3.3328

                      4                      5                      6
                      A                      A                      A
 Frequencies --     59.9578                77.0124                90.6537
 Red. masses --      5.7277                 3.8210                 4.7074
 Frc consts  --      0.0121                 0.0134                 0.0228
 IR Inten    --      3.4136                 2.0754                 2.7121

                      7                      8                      9
                      A                      A                      A
 Frequencies --    113.4862               131.8757               146.1465
 Red. masses --      3.0996                 3.1138                 2.3011
 Frc consts  --      0.0235                 0.0319                 0.0290
 IR Inten    --      6.2239                 7.9941                 5.1465

                     10                     11                     12
                      A                      A                      A
 Frequencies --    160.7145               167.1685               181.9450
 Red. masses --      1.2382                 1.6627                 2.3927
 Frc consts  --      0.0188                 0.0274                 0.0467
 IR Inten    --      2.7103                 0.9330                 5.5652

                     13                     14                     15
                      A                      A                      A
 Frequencies --    207.4879               264.3659               276.9349
 Red. masses --      4.9441                 4.3676                 5.6116
 Frc consts  --      0.1254                 0.1798                 0.2536
 IR Inten    --      4.5385                13.4678                26.1805

                     16                     17                     18
                      A                      A                      A
 Frequencies --    323.6509               342.2885               396.1067
 Red. masses --      4.3002                 3.5601                 7.1513
 Frc consts  --      0.2654                 0.2458                 0.6611
 IR Inten    --     10.2110                48.7723                19.9082

                     19                     20                     21
                      A                      A                      A
 Frequencies --    422.2295               466.0199               548.4347
 Red. masses --      2.8781                 4.5942                 2.8218
 Frc consts  --      0.3023                 0.5879                 0.5001
 IR Inten    --      0.5790                30.4247                20.7593

                     22                     23                     24
                      A                      A                      A
 Frequencies --    580.4828               637.4550               670.9247
 Red. masses --      3.5556                 6.2090                 2.6571
 Frc consts  --      0.7059                 1.4865                 0.7047
 IR Inten    --     28.1723                 4.8964                17.7722

                     25                     26                     27
                      A                      A                      A
 Frequencies --    697.3192               724.2362               737.3695
 Red. masses --      5.7036                 1.6197                 2.5675
 Frc consts  --      1.6340                 0.5006                 0.8225
 IR Inten    --    195.4451                87.7024                 4.5659

                     28                     29                     30
                      A                      A                      A
 Frequencies --    797.4422               804.7622               815.8452
 Red. masses --      3.6380                 4.1105                 4.1581
 Frc consts  --      1.3631                 1.5685                 1.6306
 IR Inten    --     50.4151                 6.5890                98.9937

                     31                     32                     33
                      A                      A                      A
 Frequencies --    871.8119               947.0810               987.4571
 Red. masses --      1.2506                 1.4942                 3.6124
 Frc consts  --      0.5601                 0.7897                 2.0753
 IR Inten    --      1.2044                 4.4912                 4.3078

                     34                     35                     36
                      A                      A                      A
 Frequencies --   1004.7371              1007.4976              1022.3351
 Red. masses --      1.2988                 1.1981                 1.3181
 Frc consts  --      0.7725                 0.7165                 0.8117
 IR Inten    --      4.6945                12.9348                 3.2236

                     37                     38                     39
                      A                      A                      A
 Frequencies --   1024.8083              1026.1207              1061.0976
 Red. masses --      2.1070                 1.6624                 2.5003
 Frc consts  --      1.3038                 1.0313                 1.6586
 IR Inten    --     41.0906                54.5359                31.3053

                     40                     41                     42
                      A                      A                      A
 Frequencies --   1078.0639              1098.6016              1117.1379
 Red. masses --      4.7968                 3.6968                 1.7080
 Frc consts  --      3.2847                 2.6288                 1.2559
 IR Inten    --     46.5536               144.0128                41.1182

                     43                     44                     45
                      A                      A                      A
 Frequencies --   1145.4777              1180.7577              1183.7236
 Red. masses --      1.2363                 1.1292                 1.2815
 Frc consts  --      0.9557                 0.9276                 1.0580
 IR Inten    --     58.8246                 0.4396                 2.0147

                     46                     47                     48
                      A                      A                      A
 Frequencies --   1192.5959              1213.4117              1218.1484
 Red. masses --      1.5743                 1.1416                 1.4283
 Frc consts  --      1.3192                 0.9904                 1.2487
 IR Inten    --     16.6814                 1.8183                34.9668

                     49                     50                     51
                      A                      A                      A
 Frequencies --   1219.6054              1267.5638              1306.5348
 Red. masses --      1.4171                 3.6384                 3.7108
 Frc consts  --      1.2419                 3.4443                 3.7322
 IR Inten    --     95.5623               732.3003                46.5797

                     52                     53                     54
                      A                      A                      A
 Frequencies --   1340.7034              1352.1957              1371.9496
 Red. masses --      1.3313                 2.3569                 1.7595
 Frc consts  --      1.4099                 2.5391                 1.9512
 IR Inten    --      4.0169               370.1045               289.8204

                     55                     56                     57
                      A                      A                      A
 Frequencies --   1433.1518              1460.6652              1480.4354
 Red. masses --      2.7920                 1.4483                 1.2192
 Frc consts  --      3.3787                 1.8206                 1.5743
 IR Inten    --    304.2253               101.8206                34.0102

                     58                     59                     60
                      A                      A                      A
 Frequencies --   1482.9269              1490.4850              1492.4791
 Red. masses --      1.0457                 1.8484                 1.1119
 Frc consts  --      1.3549                 2.4193                 1.4592
 IR Inten    --     12.0821                39.8393                34.3863

                     61                     62                     63
                      A                      A                      A
 Frequencies --   1497.6318              1499.2820              1549.1070
 Red. masses --      1.1170                 1.0448                 2.5149
 Frc consts  --      1.4761                 1.3837                 3.5558
 IR Inten    --      9.2563                19.4947                49.2864

                     64                     65                     66
                      A                      A                      A
 Frequencies --   1643.2177              1649.0259              1671.9598
 Red. masses --      3.1969                 1.2774                 6.0641
 Frc consts  --      5.0859                 2.0466                 9.9877
 IR Inten    --      8.5501                76.1294               141.5118

                     67                     68                     69
                      A                      A                      A
 Frequencies --   1691.7336              3062.0137              3068.8048
 Red. masses --     10.5351                 1.0308                 1.0340
 Frc consts  --     17.7645                 5.6945                 5.7372
 IR Inten    --    675.5848                66.6810                29.8552

                     70                     71                     72
                      A                      A                      A
 Frequencies --   3137.2494              3145.3427              3171.0353
 Red. masses --      1.1066                 1.1041                 1.1053
 Frc consts  --      6.4170                 6.4359                 6.5484
 IR Inten    --     38.9999                 9.8658                25.6505

                     73                     74                     75
                      A                      A                      A
 Frequencies --   3174.8503              3189.4289              3195.1482
 Red. masses --      1.1054                 1.0853                 1.0879
 Frc consts  --      6.5649                 6.5044                 6.5436
 IR Inten    --      9.2233                 7.2879                 1.1131

                     76                     77                     78
                      A                      A                      A
 Frequencies --   3205.7147              3211.5640              3220.0017
 Red. masses --      1.0916                 1.0947                 1.0986
 Frc consts  --      6.6091                 6.6525                 6.7113
 IR Inten    --     34.9196                53.6269                10.9339

                     79                     80                     81
                      A                      A                      A
 Frequencies --   3228.8451              3522.3602              3604.8787
 Red. masses --      1.0909                 1.0507                 1.0964
 Frc consts  --      6.7011                 7.6809                 8.3950
 IR Inten    --      5.2188                47.7751                49.8501

 - Thermochemistry -
 -------------------
 Temperature   298.150 Kelvin.  Pressure   1.00000 Atm.
 Atom     1 has atomic number  6 and mass  12.00000

 Molecular mass:   271.02079 amu.
 Principal axes and moments of inertia in atomic units:
                           1         2         3
     Eigenvalues --  3908.619874433.042086482.71582
           X            0.99497  -0.08436   0.05397
           Y            0.08492   0.99635  -0.00820
           Z           -0.05308   0.01274   0.99851
 This molecule is an asymmetric top.
 Rotational symmetry number  1.
 Warning -- assumption of classical behavior for rotation
           may cause significant error
 Rotational temperatures (Kelvin)      0.02216     0.01954     0.01336
 Rotational constants (GHZ):           0.46173     0.40711     0.27839
    1 imaginary frequencies ignored.
 Zero-point vibrational energy     618199.9 (Joules/Mol)
                                  147.75333 (Kcal/Mol)
 Warning -- explicit consideration of  21 degrees of freedom as
           vibrations may cause significant error
 Vibrational temperatures:     55.50    79.58    86.27   110.80   130.43
          (Kelvin)            163.28   189.74   210.27   231.23   240.52
                              261.78   298.53   380.36   398.45   465.66
                              492.48   569.91   607.49   670.50   789.08
                              835.19   917.16   965.31  1003.29  1042.01
                             1060.91  1147.34  1157.87  1173.82  1254.34
                             1362.64  1420.73  1445.59  1449.56  1470.91
                             1474.47  1476.36  1526.68  1551.09  1580.64
                             1607.31  1648.09  1698.85  1703.11  1715.88
                             1745.83  1752.64  1754.74  1823.74  1879.81
                             1928.97  1945.51  1973.93  2061.99  2101.57
                             2130.02  2133.60  2144.48  2147.34  2154.76
                             2157.13  2228.82  2364.22  2372.58  2405.58
                             2434.03  4405.55  4415.33  4513.80  4525.45
                             4562.41  4567.90  4588.88  4597.11  4612.31
                             4620.72  4632.86  4645.59  5067.89  5186.62

 Zero-point correction=                           0.235460 (Hartree/Particle)
 Thermal correction to Energy=                    0.251086
 Thermal correction to Enthalpy=                  0.252030
 Thermal correction to Gibbs Free Energy=         0.190659
 Sum of electronic and zero-point Energies=          -3206.780722
 Sum of electronic and thermal Energies=             -3206.765096
 Sum of electronic and thermal Enthalpies=           -3206.764152
 Sum of electronic and thermal Free Energies=        -3206.825522

                     E (Thermal)             CV                S
                      KCal/Mol        Cal/Mol-Kelvin    Cal/Mol-Kelvin
 Total                  157.559             55.652            129.165
 Electronic               0.000              0.000              0.000
 Translational            0.889              2.981             42.690
 Rotational               0.889              2.981             33.085
 Vibrational            155.781             49.690             53.390
 Vibration     1          0.594              1.981              5.331
 Vibration     2          0.596              1.975              4.618
 Vibration     3          0.597              1.973              4.459
 Vibration     4          0.599              1.964              3.966
 Vibration     5          0.602              1.956              3.646
 Vibration     6          0.607              1.938              3.208
 Vibration     7          0.612              1.921              2.919
 Vibration     8          0.617              1.907              2.722
 Vibration     9          0.622              1.891              2.541
 Vibration    10          0.624              1.883              2.467
 Vibration    11          0.630              1.864              2.308
 Vibration    12          0.641              1.829              2.066
 Vibration    13          0.671              1.738              1.633
 Vibration    14          0.678              1.716              1.553
 Vibration    15          0.708              1.628              1.292
 Vibration    16          0.721              1.591              1.201
 Vibration    17          0.763              1.478              0.977
 Vibration    18          0.785              1.422              0.884
 Vibration    19          0.823              1.325              0.749
 Vibration    20          0.904              1.143              0.547
 Vibration    21          0.937              1.074              0.484

 Optimization completed.
    -- Stationary point found.
 Normal termination of Gaussian 16 at Fri Feb 19 21:31:03 2021.
