 Gaussian 16, Revision C.01,
 Gaussian 16:  ES64L-G16RevC.01  3-Jul-2019

 ----------------------------------------------------------------------
 # wb97xd def2tzvp opt=(ts, noeigen, calcfc, maxcycles=100, maxstep=10)
  freq=noraman scrf=(iefpcm, solvent=water)
 ----------------------------------------------------------------------

 --------
 TS-6.out
 --------
 Symbolic Z-matrix:
 Charge =  0 Multiplicity = 1

 SCF Done:  E(RwB97XD) =  -1114.93335831     A.U. after   14 cycles
 SCF Done:  E(RwB97XD) =  -1114.93306368     A.U. after   12 cycles
 SCF Done:  E(RwB97XD) =  -1114.93311599     A.U. after   12 cycles
 SCF Done:  E(RwB97XD) =  -1114.93349114     A.U. after   12 cycles
 SCF Done:  E(RwB97XD) =  -1114.93427072     A.U. after   12 cycles
 SCF Done:  E(RwB97XD) =  -1114.93463241     A.U. after   12 cycles
 SCF Done:  E(RwB97XD) =  -1114.93469914     A.U. after   11 cycles
 SCF Done:  E(RwB97XD) =  -1114.93471437     A.U. after   11 cycles
 SCF Done:  E(RwB97XD) =  -1114.93471994     A.U. after   10 cycles
 SCF Done:  E(RwB97XD) =  -1114.93472006     A.U. after    7 cycles
 SCF Done:  E(RwB97XD) =  -1114.93472011     A.U. after    7 cycles
 Optimization completed.
    -- Stationary point found.
 Normal termination of Gaussian 16 at Wed Jun  1 21:40:09 2022.

 ---------------------------------------------------------------------
 #N Geom=AllCheck Guess=TCheck SCRF=Check GenChk RwB97XD/def2TZVP Freq
 ---------------------------------------------------------------------

 Structure from the checkpoint file:  "/local/jobs/107277/Gau-2250755.chk"
 --------
 TS-6.out
 --------
 Charge =  0 Multiplicity = 1

                         Standard orientation:
 ---------------------------------------------------------------------
 Center     Atomic      Atomic             Coordinates (Angstroms)
 Number     Number       Type             X           Y           Z
 ---------------------------------------------------------------------
      1          6           0       -0.485524   -0.691083    0.062786
      2          6           0       -0.355866   -2.088708    0.406887
      3          8           0        0.506219   -2.513632    1.219359
      4          6           0        0.648495    0.161581    0.315473
      5          6           0        1.833626    0.668926    3.006487
      6          1           0        1.582180    0.492394    4.053250
      7          1           0        2.825124    0.268749    2.814322
      8          1           0        1.832101    1.742310    2.818793
      9          7           0        0.858373    0.010115    2.136632
     10          1           0        0.943252   -1.017808    2.121139
     11          1           0       -0.086070    0.204379    2.446477
     12          6           0        0.424534    1.645753    0.096822
     13          6           0       -0.346925    2.414864    0.963005
     14          6           0       -0.594888    3.753494    0.704647
     15          6           0       -0.085589    4.350469   -0.438501
     16          6           0        0.677564    3.594727   -1.315016
     17          6           0        0.934681    2.259901   -1.044025
     18          1           0       -0.793357    1.976852    1.845241
     19          1           0       -1.196350    4.327956    1.397650
     20          1           0       -0.282458    5.394920   -0.644004
     21          1           0        1.078030    4.043748   -2.215140
     22          1           0        1.528279    1.684701   -1.742014
     23          6           0        2.014430   -0.279743   -0.191680
     24          6           0        3.167615    0.417569    0.165981
     25          6           0        4.409380    0.062072   -0.335310
     26          6           0        4.523157   -0.993060   -1.228411
     27          6           0        3.380621   -1.672236   -1.622584
     28          6           0        2.141490   -1.313004   -1.114021
     29          1           0        3.098126    1.275285    0.820206
     30          1           0        5.287159    0.621310   -0.036877
     31          1           0        5.490791   -1.271010   -1.626748
     32          1           0        3.449372   -2.482705   -2.337448
     33          1           0        1.256110   -1.833738   -1.450669
     34          6           0       -1.845383   -0.128863   -0.132391
     35          6           0       -2.878828   -0.436609    0.758302
     36          6           0       -4.161313    0.065419    0.591226
     37          6           0       -4.448823    0.908559   -0.472511
     38          6           0       -3.439685    1.225626   -1.372725
     39          6           0       -2.166593    0.704601   -1.209510
     40          1           0       -2.667308   -1.083170    1.602651
     41          1           0       -4.936086   -0.194289    1.302858
     42          1           0       -5.446504    1.308951   -0.602296
     43          1           0       -3.649718    1.872028   -2.216661
     44          1           0       -1.398541    0.942498   -1.934766
     45          7           0       -1.211702   -2.999414   -0.153551
     46          6           0       -1.905806   -2.792725   -1.403564
     47          6           0       -1.310049   -4.330644    0.398223
     48          1           0       -1.461337   -1.963824   -1.948261
     49          1           0       -1.814298   -3.695133   -2.013419
     50          1           0       -2.970122   -2.581252   -1.257675
     51          1           0       -0.978441   -4.326908    1.432614
     52          1           0       -2.349770   -4.663688    0.355383
     53          1           0       -0.698548   -5.049735   -0.158582
 ---------------------------------------------------------------------

 SCF Done:  E(RwB97XD) =  -1114.93472011     A.U. after    1 cycles

 The electronic state is 1-A.
 Alpha  occ. eigenvalues --  -19.19378 -14.47840 -14.44480 -10.36442 -10.35897
 Alpha  occ. eigenvalues --  -10.31596 -10.30556 -10.30104 -10.30067 -10.29894
 Alpha  occ. eigenvalues --  -10.29360 -10.29162 -10.29130 -10.29089 -10.29050
 Alpha  occ. eigenvalues --  -10.28997 -10.28988 -10.28958 -10.28894 -10.28820
 Alpha  occ. eigenvalues --  -10.28723 -10.28174 -10.28124 -10.27927 -10.27609
 Alpha  occ. eigenvalues --  -10.27492 -10.24669  -1.11829  -1.03871  -1.01829
 Alpha  occ. eigenvalues --   -0.97776  -0.96406  -0.95570  -0.91045  -0.86529
 Alpha  occ. eigenvalues --   -0.85479  -0.85159  -0.84786  -0.83978  -0.81722
 Alpha  occ. eigenvalues --   -0.80914  -0.79391  -0.77316  -0.73634  -0.71087
 Alpha  occ. eigenvalues --   -0.70538  -0.69869  -0.69173  -0.68146  -0.66069
 Alpha  occ. eigenvalues --   -0.63814  -0.62702  -0.60747  -0.60388  -0.59604
 Alpha  occ. eigenvalues --   -0.57264  -0.56539  -0.56203  -0.55740  -0.55328
 Alpha  occ. eigenvalues --   -0.54601  -0.54423  -0.53895  -0.53237  -0.52562
 Alpha  occ. eigenvalues --   -0.51938  -0.51165  -0.51040  -0.50303  -0.49898
 Alpha  occ. eigenvalues --   -0.49480  -0.48327  -0.48088  -0.47733  -0.47287
 Alpha  occ. eigenvalues --   -0.46889  -0.46598  -0.45951  -0.45269  -0.44499
 Alpha  occ. eigenvalues --   -0.44312  -0.43577  -0.43130  -0.42120  -0.41779
 Alpha  occ. eigenvalues --   -0.41354  -0.41196  -0.35190  -0.34499  -0.33748
 Alpha  occ. eigenvalues --   -0.33306  -0.32726  -0.32596  -0.31854  -0.30872
 Alpha  occ. eigenvalues --   -0.24578
 Alpha virt. eigenvalues --    0.02790   0.04338   0.04510   0.05628   0.06295
 Alpha virt. eigenvalues --    0.06503   0.09703   0.10343   0.11943   0.12666
 Alpha virt. eigenvalues --    0.13073   0.13874   0.14526   0.14622   0.15406

 Mulliken charges:
               1
     1  C   -0.394361
     2  C    0.194061
     3  O   -0.603037
     4  C    0.604168
     5  C   -0.326497
     6  H    0.157327
     7  H    0.167354
     8  H    0.161766
     9  N   -0.284590
    10  H    0.282560
    11  H    0.260282
    12  C    0.167309
    13  C   -0.329230
    14  C   -0.147833
    15  C   -0.146458
    16  C   -0.127352
    17  C   -0.298850
    18  H    0.139543
    19  H    0.141639
    20  H    0.143119
    21  H    0.140972
    22  H    0.158836
    23  C    0.027834
    24  C   -0.302863
    25  C   -0.136787
    26  C   -0.141228
    27  C   -0.167091
    28  C   -0.169723
    29  H    0.189643
    30  H    0.139428
    31  H    0.141877
    32  H    0.137127
    33  H    0.165866
    34  C    0.155297
    35  C   -0.230132
    36  C   -0.193108
    37  C   -0.119340
    38  C   -0.199806
    39  C   -0.200691
    40  H    0.136399
    41  H    0.131447
    42  H    0.136319
    43  H    0.130851
    44  H    0.146010
    45  N   -0.064703
    46  C   -0.294613
    47  C   -0.298356
    48  H    0.151039
    49  H    0.141975
    50  H    0.129233
    51  H    0.136773
    52  H    0.132816
    53  H    0.127781
 Sum of Mulliken charges =  -0.00000

 Dipole moment (field-independent basis, Debye):
    X=              0.8278    Y=              3.2203    Z=              1.9389  Tot=              3.8490
 Quadrupole moment (field-independent basis, Debye-Ang):
   XX=           -152.1799   YY=           -155.4243   ZZ=           -144.0692
   XY=              6.7031   XZ=             -1.9641   YZ=              8.1084

  Exact polarizability:     460.446     -11.935     436.455      -7.744       4.277     374.392
 Approx polarizability:     352.580      -9.966     338.935     -10.759       0.265     322.952

 ******    1 imaginary frequencies (negative Signs) ******

                      1                      2                      3
                      A                      A                      A
 Frequencies --   -358.4495                26.5248                37.7389
 Red. masses --      6.2948                 4.9573                 4.4483
 Frc consts  --      0.4765                 0.0021                 0.0037
 IR Inten    --    665.3326                 0.2146                 1.5503

                      4                      5                      6
                      A                      A                      A
 Frequencies --     53.5743                59.3713                63.8444
 Red. masses --      3.7726                 4.2107                 3.6550
 Frc consts  --      0.0064                 0.0087                 0.0088
 IR Inten    --      3.6134                 1.2744                 1.1394

                      7                      8                      9
                      A                      A                      A
 Frequencies --     73.1822                80.1332                83.2994
 Red. masses --      3.3458                 3.7465                 4.0631
 Frc consts  --      0.0106                 0.0142                 0.0166
 IR Inten    --      0.6797                 0.7963                 3.3100

                     10                     11                     12
                      A                      A                      A
 Frequencies --     97.8423               107.8414               121.8801
 Red. masses --      3.1208                 2.0998                 1.7057
 Frc consts  --      0.0176                 0.0144                 0.0149
 IR Inten    --      0.8119                 2.0933                 1.3512

                     13                     14                     15
                      A                      A                      A
 Frequencies --    154.0601               166.4380               179.5329
 Red. masses --      3.7368                 5.6561                 1.5516
 Frc consts  --      0.0523                 0.0923                 0.0295
 IR Inten    --     13.0684                14.4073                 1.6684

                     16                     17                     18
                      A                      A                      A
 Frequencies --    201.0581               206.8598               236.2192
 Red. masses --      2.3465                 2.7635                 2.3973
 Frc consts  --      0.0559                 0.0697                 0.0788
 IR Inten    --      4.0476                10.0194                 1.7633

                     19                     20                     21
                      A                      A                      A
 Frequencies --    245.3394               255.9247               263.2139
 Red. masses --      1.9603                 3.3284                 4.4671
 Frc consts  --      0.0695                 0.1284                 0.1823
 IR Inten    --      7.5142                 1.3795                 4.5770

                     22                     23                     24
                      A                      A                      A
 Frequencies --    274.1390               285.0032               318.2108
 Red. masses --      3.7656                 2.5930                 2.6981
 Frc consts  --      0.1667                 0.1241                 0.1610
 IR Inten    --      0.6838                 6.3284                 6.4372

                     25                     26                     27
                      A                      A                      A
 Frequencies --    322.6073               332.6845               359.5397
 Red. masses --      3.6823                 3.7662                 3.1678
 Frc consts  --      0.2258                 0.2456                 0.2413
 IR Inten    --      1.4142                 6.7721                45.4224

                     28                     29                     30
                      A                      A                      A
 Frequencies --    418.5463               419.8612               424.4891
 Red. masses --      3.5703                 3.1967                 3.4893
 Frc consts  --      0.3685                 0.3320                 0.3704
 IR Inten    --     62.0970                23.0140                 0.7974

                     31                     32                     33
                      A                      A                      A
 Frequencies --    428.4668               437.5175               476.0920
 Red. masses --      2.9975                 3.0168                 3.8319
 Frc consts  --      0.3242                 0.3402                 0.5117
 IR Inten    --      6.3891                 0.4179                19.5656

                     34                     35                     36
                      A                      A                      A
 Frequencies --    508.0576               519.5266               551.3934
 Red. masses --      4.9474                 3.5995                 3.3921
 Frc consts  --      0.7524                 0.5724                 0.6076
 IR Inten    --     10.3033                25.9146                26.7050

                     37                     38                     39
                      A                      A                      A
 Frequencies --    598.3886               627.0527               638.7585
 Red. masses --      4.3601                 5.7239                 6.3268
 Frc consts  --      0.9198                 1.3260                 1.5209
 IR Inten    --     85.1368                73.1424                 0.8541

                     40                     41                     42
                      A                      A                      A
 Frequencies --    639.6905               644.1226               659.9053
 Red. masses --      6.3095                 5.7726                 5.2171
 Frc consts  --      1.5212                 1.4111                 1.3386
 IR Inten    --      1.1244                30.9312                63.8721

                     43                     44                     45
                      A                      A                      A
 Frequencies --    670.5075               715.4745               721.4187
 Red. masses --      4.9270                 5.5926                 1.5529
 Frc consts  --      1.3051                 1.6868                 0.4762
 IR Inten    --     78.0446                 3.0954                97.2406

                     46                     47                     48
                      A                      A                      A
 Frequencies --    728.0968               729.9523               758.6868
 Red. masses --      1.5433                 1.5562                 2.5545
 Frc consts  --      0.4820                 0.4886                 0.8663
 IR Inten    --    113.6753                93.2703                 9.1666

                     49                     50                     51
                      A                      A                      A
 Frequencies --    771.7723               794.0475               796.7798
 Red. masses --      1.6099                 2.9336                 2.4438
 Frc consts  --      0.5650                 1.0898                 0.9141
 IR Inten    --     45.8964                58.1844                37.9116

                     52                     53                     54
                      A                      A                      A
 Frequencies --    805.1748               849.5966               871.7503
 Red. masses --      2.8778                 3.6952                 1.2651
 Frc consts  --      1.0992                 1.5715                 0.5664
 IR Inten    --     84.8567                 1.2919                 0.8593

                     55                     56                     57
                      A                      A                      A
 Frequencies --    875.4131               880.5563               907.0640
 Red. masses --      1.2596                 1.2458                 3.5829
 Frc consts  --      0.5687                 0.5691                 1.7368
 IR Inten    --      3.3855                 1.2505                31.5509

                     58                     59                     60
                      A                      A                      A
 Frequencies --    949.3323               956.0918               963.0047
 Red. masses --      1.5282                 1.5143                 1.6250
 Frc consts  --      0.8114                 0.8156                 0.8879
 IR Inten    --      7.5485                 1.4738                16.4906

                     61                     62                     63
                      A                      A                      A
 Frequencies --    986.2385              1009.3280              1011.2832
 Red. masses --      2.6878                 1.3642                 1.3864
 Frc consts  --      1.5403                 0.8188                 0.8354
 IR Inten    --      6.8515                 0.9174                 0.5526

                     64                     65                     66
                      A                      A                      A
 Frequencies --   1019.5713              1019.7548              1023.5730
 Red. masses --      1.4013                 1.3073                 5.8921
 Frc consts  --      0.8582                 0.8010                 3.6371
 IR Inten    --      0.9173                 0.9556                 2.3876

                     67                     68                     69
                      A                      A                      A
 Frequencies --   1027.5585              1028.9880              1029.8919
 Red. masses --      5.5525                 4.5636                 1.3282
 Frc consts  --      3.4542                 2.8469                 0.8300
 IR Inten    --      2.4669                 0.9978                 0.5828

                     70                     71                     72
                      A                      A                      A
 Frequencies --   1030.8661              1042.3952              1056.3001
 Red. masses --      1.3694                 3.2645                 3.2374
 Frc consts  --      0.8574                 2.0899                 2.1283
 IR Inten    --      0.3806                59.7350                34.5847

                     73                     74                     75
                      A                      A                      A
 Frequencies --   1064.1295              1066.9792              1069.5061
 Red. masses --      1.9820                 2.0976                 1.7823
 Frc consts  --      1.3224                 1.4070                 1.2012
 IR Inten    --     16.8693                 3.9151                20.2603

                     76                     77                     78
                      A                      A                      A
 Frequencies --   1083.4334              1086.3669              1110.2367
 Red. masses --      1.4264                 1.3926                 1.5979
 Frc consts  --      0.9865                 0.9683                 1.1604
 IR Inten    --     38.5598                14.5397                17.1307

                     79                     80                     81
                      A                      A                      A
 Frequencies --   1115.1473              1129.5292              1133.4264
 Red. masses --      1.5817                 1.5996                 1.2418
 Frc consts  --      1.1589                 1.2024                 0.9399
 IR Inten    --      3.6714                14.3149                10.4251

                     82                     83                     84
                      A                      A                      A
 Frequencies --   1135.5596              1152.7421              1167.4706
 Red. masses --      1.5923                 2.1376                 1.4081
 Frc consts  --      1.2097                 1.6736                 1.1308
 IR Inten    --    194.8520                 8.2695                 5.7319

                     85                     86                     87
                      A                      A                      A
 Frequencies --   1178.7904              1182.7085              1187.1755
 Red. masses --      1.1231                 1.1248                 1.1268
 Frc consts  --      0.9195                 0.9270                 0.9357
 IR Inten    --      1.6308                 0.0754                 0.5643

                     88                     89                     90
                      A                      A                      A
 Frequencies --   1209.9605              1210.1972              1222.0878
 Red. masses --      1.1327                 1.1229                 2.3382
 Frc consts  --      0.9771                 0.9689                 2.0575
 IR Inten    --      9.6382                 6.3728               190.1479

                     91                     92                     93
                      A                      A                      A
 Frequencies --   1226.9593              1259.7867              1282.6483
 Red. masses --      1.2180                 4.1568                 2.4755
 Frc consts  --      1.0803                 3.8869                 2.3996
 IR Inten    --     22.7159                84.6044               167.3557

                     94                     95                     96
                      A                      A                      A
 Frequencies --   1304.3523              1311.8780              1319.3240
 Red. masses --      2.8075                 3.3608                 4.0886
 Frc consts  --      2.8143                 3.4078                 4.1931
 IR Inten    --     47.3175                22.2788                42.9816

                     97                     98                     99
                      A                      A                      A
 Frequencies --   1324.8319              1336.6756              1351.7792
 Red. masses --      3.7844                 4.0406                 2.1644
 Frc consts  --      3.9135                 4.2535                 2.3302
 IR Inten    --     91.8129                75.0354                53.8866

                    100                    101                    102
                      A                      A                      A
 Frequencies --   1355.0775              1358.9681              1368.2360
 Red. masses --      1.5200                 1.5123                 1.7296
 Frc consts  --      1.6445                 1.6455                 1.9078
 IR Inten    --     86.7020                45.8940               334.6031

                    103                    104                    105
                      A                      A                      A
 Frequencies --   1374.0668              1421.3419              1439.5084
 Red. masses --      1.5874                 2.2414                 1.1682
 Frc consts  --      1.7659                 2.6679                 1.4262
 IR Inten    --    171.3409               325.2783                21.2673

                    106                    107                    108
                      A                      A                      A
 Frequencies --   1455.8399              1469.1109              1482.4190
 Red. masses --      1.1859                 1.2536                 1.1149
 Frc consts  --      1.4810                 1.5941                 1.4435
 IR Inten    --      2.4029               135.7382                18.8068

                    109                    110                    111
                      A                      A                      A
 Frequencies --   1486.5760              1487.8070              1489.8028
 Red. masses --      2.0423                 1.0810                 2.1923
 Frc consts  --      2.6591                 1.4098                 2.8668
 IR Inten    --     16.6130                10.8274                39.3137

                    112                    113                    114
                      A                      A                      A
 Frequencies --   1493.8617              1502.0149              1502.6139
 Red. masses --      2.2432                 1.0542                 1.0475
 Frc consts  --      2.9494                 1.4012                 1.3934
 IR Inten    --     30.3069                16.4301                31.7315

                    115                    116                    117
                      A                      A                      A
 Frequencies --   1506.5321              1525.9295              1538.7471
 Red. masses --      1.0480                 1.6074                 2.3224
 Frc consts  --      1.4015                 2.2052                 3.2398
 IR Inten    --     26.7912               366.5479               114.6937

                    118                    119                    120
                      A                      A                      A
 Frequencies --   1541.8369              1548.3282              1570.4940
 Red. masses --      2.2715                 2.2445                 3.5114
 Frc consts  --      3.1815                 3.1702                 5.1027
 IR Inten    --      9.6416                18.4723               762.1702

                    121                    122                    123
                      A                      A                      A
 Frequencies --   1637.2895              1651.0853              1654.4158
 Red. masses --      5.5894                 5.4743                 5.5311
 Frc consts  --      8.8280                 8.7927                 8.9198
 IR Inten    --      6.9618                 0.5481                 9.2582

                    124                    125                    126
                      A                      A                      A
 Frequencies --   1666.0407              1674.3322              1676.2201
 Red. masses --      5.7830                 4.3529                 3.0514
 Frc consts  --      9.4575                 7.1898                 5.0514
 IR Inten    --     51.0773                13.1976                26.1519

                    127                    128                    129
                      A                      A                      A
 Frequencies --   1682.0072              3019.1497              3027.2111
 Red. masses --      1.4980                 1.0452                 1.0420
 Frc consts  --      2.4969                 5.6131                 5.6260
 IR Inten    --     55.1087               111.0108               152.3964

                    130                    131                    132
                      A                      A                      A
 Frequencies --   3066.1232              3079.7110              3087.5306
 Red. masses --      1.0357                 1.0974                 1.0988
 Frc consts  --      5.7369                 6.1322                 6.1715
 IR Inten    --     61.1821                98.3847                22.8179

                    133                    134                    135
                      A                      A                      A
 Frequencies --   3139.1047              3163.3993              3174.8976
 Red. masses --      1.1045                 1.0977                 1.0970
 Frc consts  --      6.4126                 6.4723                 6.5152
 IR Inten    --     25.1701                14.1765                12.2551

                    136                    137                    138
                      A                      A                      A
 Frequencies --   3179.0591              3180.2795              3186.7446
 Red. masses --      1.0866                 1.1034                 1.0869
 Frc consts  --      6.4702                 6.5753                 6.5035
 IR Inten    --     15.0306                18.2464                 0.9071

                    139                    140                    141
                      A                      A                      A
 Frequencies --   3194.6746              3196.0566              3196.6627
 Red. masses --      1.0860                 1.0858                 1.0921
 Frc consts  --      6.5305                 6.5349                 6.5753
 IR Inten    --      0.2346                 1.8388                31.5581

                    142                    143                    144
                      A                      A                      A
 Frequencies --   3203.4871              3204.1014              3206.2422
 Red. masses --      1.0901                 1.0888                 1.0933
 Frc consts  --      6.5915                 6.5856                 6.6220
 IR Inten    --     16.6933                 3.8391                46.5500

                    145                    146                    147
                      A                      A                      A
 Frequencies --   3213.8996              3215.5544              3216.4741
 Red. masses --      1.0921                 1.0982                 1.0946
 Frc consts  --      6.6464                 6.6905                 6.6720
 IR Inten    --     30.3561                24.1276                30.0306

                    148                    149                    150
                      A                      A                      A
 Frequencies --   3220.8409              3226.2475              3228.4454
 Red. masses --      1.0939                 1.0978                 1.0924
 Frc consts  --      6.6858                 6.7326                 6.7084
 IR Inten    --     36.9546                 5.3927                16.5121

                    151                    152                    153
                      A                      A                      A
 Frequencies --   3230.3897              3243.5364              3572.2302
 Red. masses --      1.0950                 1.0756                 1.0772
 Frc consts  --      6.7326                 6.6674                 8.0987
 IR Inten    --      3.7441               411.2548                31.5260

 - Thermochemistry -
 -------------------
 Temperature   298.150 Kelvin.  Pressure   1.00000 Atm.
 Atom     1 has atomic number  6 and mass  12.00000

 Molecular mass:   358.20451 amu.
 Principal axes and moments of inertia in atomic units:
                           1         2         3
     Eigenvalues --  7532.075958894.29775**********
           X            0.99909   0.04234   0.00557
           Y           -0.04239   0.99906   0.00938
           Z           -0.00517  -0.00961   0.99994
 This molecule is an asymmetric top.
 Rotational symmetry number  1.
 Warning -- assumption of classical behavior for rotation
           may cause significant error
 Rotational temperatures (Kelvin)      0.01150     0.00974     0.00671
 Rotational constants (GHZ):           0.23961     0.20291     0.13979
    1 imaginary frequencies ignored.
 Zero-point vibrational energy    1180024.2 (Joules/Mol)
                                  282.03255 (Kcal/Mol)
 Warning -- explicit consideration of  36 degrees of freedom as
           vibrations may cause significant error
 Vibrational temperatures:     38.16    54.30    77.08    85.42    91.86
          (Kelvin)            105.29   115.29   119.85   140.77   155.16
                              175.36   221.66   239.47   258.31   289.28
                              297.63   339.87   352.99   368.22   378.71
                              394.42   410.06   457.83   464.16   478.66
                              517.30   602.19   604.09   610.75   616.47
                              629.49   684.99   730.98   747.48   793.33
                              860.95   902.19   919.03   920.37   926.75
                              949.46   964.71  1029.41  1037.96  1047.57
                             1050.24  1091.58  1110.41  1142.46  1146.39
                             1158.47  1222.38  1254.25  1259.52  1266.92
                             1305.06  1365.88  1375.60  1385.55  1418.98
                             1452.20  1455.01  1466.94  1467.20  1472.69
                             1478.43  1480.48  1481.78  1483.19  1499.77
                             1519.78  1531.05  1535.15  1538.78  1558.82
                             1563.04  1597.38  1604.45  1625.14  1630.75
                             1633.82  1658.54  1679.73  1696.02  1701.65
                             1708.08  1740.86  1741.20  1758.31  1765.32
                             1812.55  1845.44  1876.67  1887.50  1898.21
                             1906.14  1923.18  1944.91  1949.65  1955.25
                             1968.59  1976.98  2044.99  2071.13  2094.63
                             2113.72  2132.87  2138.85  2140.62  2143.49
                             2149.33  2161.06  2161.93  2167.56  2195.47
                             2213.91  2218.36  2227.70  2259.59  2355.69
                             2375.54  2380.34  2397.06  2408.99  2411.71
                             2420.03  4343.88  4355.48  4411.47  4431.02
                             4442.27  4516.47  4551.43  4567.97  4573.96
                             4575.71  4585.01  4596.42  4598.41  4599.28
                             4609.10  4609.99  4613.07  4624.08  4626.47
                             4627.79  4634.07  4641.85  4645.01  4647.81
                             4666.73  5139.64

 Zero-point correction=                           0.449447 (Hartree/Particle)
 Thermal correction to Energy=                    0.473821
 Thermal correction to Enthalpy=                  0.474766
 Thermal correction to Gibbs Free Energy=         0.395273
 Sum of electronic and zero-point Energies=          -1114.485273
 Sum of electronic and thermal Energies=             -1114.460899
 Sum of electronic and thermal Enthalpies=           -1114.459954
 Sum of electronic and thermal Free Energies=        -1114.539447

                     E (Thermal)             CV                S
                      KCal/Mol        Cal/Mol-Kelvin    Cal/Mol-Kelvin
 Total                  297.327             94.988            167.307
 Electronic               0.000              0.000              0.000
 Translational            0.889              2.981             43.521
 Rotational               0.889              2.981             35.113
 Vibrational            295.550             89.026             88.673
 Vibration     1          0.593              1.984              6.074
 Vibration     2          0.594              1.982              5.374
 Vibration     3          0.596              1.976              4.681
 Vibration     4          0.597              1.974              4.478
 Vibration     5          0.597              1.972              4.335
 Vibration     6          0.599              1.967              4.066
 Vibration     7          0.600              1.963              3.888
 Vibration     8          0.600              1.961              3.812
 Vibration     9          0.603              1.951              3.497
 Vibration    10          0.606              1.943              3.307
 Vibration    11          0.609              1.931              3.070
 Vibration    12          0.620              1.898              2.621
 Vibration    13          0.624              1.884              2.475
 Vibration    14          0.629              1.867              2.333
 Vibration    15          0.638              1.838              2.123
 Vibration    16          0.641              1.830              2.071
 Vibration    17          0.655              1.785              1.831
 Vibration    18          0.660              1.770              1.764
 Vibration    19          0.666              1.753              1.689
 Vibration    20          0.670              1.740              1.640
 Vibration    21          0.676              1.721              1.570
 Vibration    22          0.683              1.702              1.503
 Vibration    23          0.705              1.639              1.319
 Vibration    24          0.708              1.630              1.297
 Vibration    25          0.715              1.610              1.247
 Vibration    26          0.734              1.556              1.124
 Vibration    27          0.781              1.430              0.897
 Vibration    28          0.783              1.427              0.892
 Vibration    29          0.786              1.417              0.877
 Vibration    30          0.790              1.408              0.864
 Vibration    31          0.798              1.388              0.834
 Vibration    32          0.833              1.303              0.721
 Vibration    33          0.863              1.232              0.638
 Vibration    34          0.875              1.207              0.611
 Vibration    35          0.907              1.137              0.541
 Vibration    36          0.956              1.035              0.452

 Optimization completed.
    -- Stationary point found.
 Normal termination of Gaussian 16 at Thu Jun  2 02:30:25 2022.
