 Gaussian 16, Revision A.03,
 Gaussian 16:  ES64L-G16RevA.03 25-Dec-2016

 ----------------------------------------------------------------------
 # wB97XD def2tzvp, opt=(ts, noeigen, calcfc, maxcycles=70, maxstep=8),
  freq=noraman, scrf=(iefpcm, solvent=water)
 ----------------------------------------------------------------------

 ------------------------
 1_iteration/TS-674-1.out
 ------------------------
 Symbolic Z-matrix:
 Charge =  0 Multiplicity = 1

 SCF Done:  E(RwB97XD) =  -3360.33114341     A.U. after   15 cycles
 SCF Done:  E(RwB97XD) =  -3360.33114344     A.U. after    8 cycles
 Optimization completed.
    -- Stationary point found.
 Normal termination of Gaussian 16 at Fri Feb 19 09:37:47 2021.

 ---------------------------------------------------------------------
 #N Geom=AllCheck Guess=TCheck SCRF=Check GenChk RwB97XD/def2TZVP Freq
 ---------------------------------------------------------------------

 Structure from the checkpoint file:  "/beegfs/scratch/user/q/tla25/Gau-38720.chk"
 ------------------------
 1_iteration/TS-674-1.out
 ------------------------
 Charge =  0 Multiplicity = 1

                         Standard orientation:
 ---------------------------------------------------------------------
 Center     Atomic      Atomic             Coordinates (Angstroms)
 Number     Number       Type             X           Y           Z
 ---------------------------------------------------------------------
      1          6           0        1.013865   -0.157038   -0.078525
      2          6           0        2.153514    0.637828   -0.459770
      3          8           0        2.006030    1.723644   -1.026607
      4          6           0       -0.246676    0.300157   -0.390255
      5          6           0       -2.028324    2.415100    0.654485
      6          1           0       -2.219230    3.175698    1.413032
      7          1           0       -1.864996    2.905532   -0.304446
      8          1           0       -2.899402    1.767435    0.575074
      9          7           0       -0.857988    1.605746    0.979488
     10          1           0       -0.980187    1.081779    1.837956
     11          1           0       -0.022180    2.171399    1.069883
     12         35           0       -1.741841   -0.873033   -0.436050
     13          1           0       -0.298333    1.048456   -1.167558
     14         17           0        1.233628   -1.560462    0.940647
     15          6           0        3.538922    0.123330   -0.156053
     16          1           0        3.672089   -0.896177   -0.520185
     17          1           0        4.270416    0.781723   -0.619065
     18          1           0        3.704455    0.102538    0.923201
 ---------------------------------------------------------------------

 SCF Done:  E(RwB97XD) =  -3360.33114344     A.U. after    1 cycles

 The electronic state is 1-A.
 Alpha  occ. eigenvalues -- -483.14086-101.69435 -62.68942 -56.48061 -56.47706
 Alpha  occ. eigenvalues --  -56.47684 -19.21820 -14.48010 -10.38832 -10.36855
 Alpha  occ. eigenvalues --  -10.31821 -10.31785 -10.27675  -9.57964  -8.83066
 Alpha  occ. eigenvalues --   -7.32598  -7.31749  -7.31738  -6.65236  -6.64099
 Alpha  occ. eigenvalues --   -6.64026  -2.75628  -2.75304  -2.75248  -2.74328
 Alpha  occ. eigenvalues --   -2.74327  -1.12728  -1.03487  -0.97690  -0.91774
 Alpha  occ. eigenvalues --   -0.84494  -0.82696  -0.78661  -0.70742  -0.63408
 Alpha  occ. eigenvalues --   -0.61773  -0.56954  -0.56497  -0.54731  -0.54111
 Alpha  occ. eigenvalues --   -0.52219  -0.49615  -0.48676  -0.48025  -0.46963
 Alpha  occ. eigenvalues --   -0.45993  -0.43435  -0.42186  -0.40983  -0.37825
 Alpha  occ. eigenvalues --   -0.37287  -0.33380  -0.28247
 Alpha virt. eigenvalues --    0.02645   0.05845   0.10083   0.12742   0.13469
 Alpha virt. eigenvalues --    0.14098   0.14882   0.16271   0.17318   0.18961
 Alpha virt. eigenvalues --    0.19493   0.20261   0.20813   0.21901   0.23223

 Mulliken charges:
               1
     1  C   -0.145735
     2  C    0.264400
     3  O   -0.502184
     4  C   -0.028488
     5  C   -0.268342
     6  H    0.151867
     7  H    0.150500
     8  H    0.149410
     9  N   -0.369603
    10  H    0.284367
    11  H    0.283670
    12  Br  -0.050415
    13  H    0.188138
    14  Cl  -0.150350
    15  C   -0.375108
    16  H    0.143759
    17  H    0.128862
    18  H    0.145253
 Sum of Mulliken charges =   0.00000

 Dipole moment (field-independent basis, Debye):
    X=             -3.8954    Y=              2.8020    Z=              3.7369  Tot=              6.0820
 Quadrupole moment (field-independent basis, Debye-Ang):
   XX=            -71.4678   YY=            -73.7486   ZZ=            -72.4334
   XY=             -9.8515   XZ=              0.8921   YZ=              8.7564

  Exact polarizability: 190.431  -5.224 151.573  -8.600  -4.611 116.747
 Approx polarizability: 138.507  -0.424 128.389  -4.714  -6.549 104.586

 ******    1 imaginary frequencies (negative Signs) ******

                      1                      2                      3
                      A                      A                      A
 Frequencies --   -359.6741                42.7532                71.8095
 Red. masses --      6.6067                 6.0065                 2.0937
 Frc consts  --      0.5036                 0.0065                 0.0064
 IR Inten    --    865.0168                 3.1692                 1.9262

                      4                      5                      6
                      A                      A                      A
 Frequencies --     75.8737               107.0829               138.8626
 Red. masses --      3.2750                 4.8617                 5.3939
 Frc consts  --      0.0111                 0.0328                 0.0613
 IR Inten    --      8.8509                13.2462                 2.5447

                      7                      8                      9
                      A                      A                      A
 Frequencies --    142.2676               168.0015               186.9683
 Red. masses --      1.0712                 1.8491                 2.5337
 Frc consts  --      0.0128                 0.0308                 0.0522
 IR Inten    --      0.4694                 4.9456                 4.1053

                     10                     11                     12
                      A                      A                      A
 Frequencies --    206.5605               271.7874               305.9723
 Red. masses --      6.4882                 2.8954                 5.6463
 Frc consts  --      0.1631                 0.1260                 0.3114
 IR Inten    --     25.6597                 0.4443                 5.4560

                     13                     14                     15
                      A                      A                      A
 Frequencies --    417.7721               464.6937               556.8402
 Red. masses --      4.9708                 8.4354                 4.2631
 Frc consts  --      0.5112                 1.0732                 0.7788
 IR Inten    --    111.6749                26.0160                43.5266

                     16                     17                     18
                      A                      A                      A
 Frequencies --    589.2615               621.9255               679.8089
 Red. masses --      1.7079                 2.6792                 3.3626
 Frc consts  --      0.3494                 0.6106                 0.9156
 IR Inten    --     10.4621                53.0601                39.3453

                     19                     20                     21
                      A                      A                      A
 Frequencies --    768.2131               970.4074              1002.6022
 Red. masses --      3.4825                 2.6874                 1.1005
 Frc consts  --      1.2109                 1.4911                 0.6518
 IR Inten    --     98.0100                30.1148                28.1467

                     22                     23                     24
                      A                      A                      A
 Frequencies --   1009.3480              1023.2271              1044.0295
 Red. masses --      1.5551                 1.2615                 1.8016
 Frc consts  --      0.9335                 0.7782                 1.1570
 IR Inten    --    150.2320                37.7700                 3.5386

                     25                     26                     27
                      A                      A                      A
 Frequencies --   1073.5085              1117.9712              1207.6827
 Red. masses --      4.2172                 1.1542                 1.4095
 Frc consts  --      2.8634                 0.8500                 1.2112
 IR Inten    --    133.0228                46.9776                16.3307

                     28                     29                     30
                      A                      A                      A
 Frequencies --   1225.3057              1312.8943              1344.8299
 Red. masses --      1.2979                 3.8795                 1.3279
 Frc consts  --      1.1481                 3.9399                 1.4150
 IR Inten    --     23.5767               189.3698                13.6214

                     31                     32                     33
                      A                      A                      A
 Frequencies --   1389.0107              1415.4793              1457.1314
 Red. masses --      1.6485                 3.4590                 1.0752
 Frc consts  --      1.8740                 4.0833                 1.3450
 IR Inten    --     89.7620              1321.2083                39.0166

                     34                     35                     36
                      A                      A                      A
 Frequencies --   1464.5326              1466.8604              1491.0823
 Red. masses --      1.1851                 1.0873                 1.0401
 Frc consts  --      1.4976                 1.3784                 1.3624
 IR Inten    --     44.8666                47.6320                16.1008

                     37                     38                     39
                      A                      A                      A
 Frequencies --   1505.8702              1642.3029              1667.8846
 Red. masses --      1.0313                 1.1106                 8.1513
 Frc consts  --      1.3779                 1.7649                13.3601
 IR Inten    --     11.5092                44.3421               363.7316

                     40                     41                     42
                      A                      A                      A
 Frequencies --   3062.8789              3064.2208              3132.8512
 Red. masses --      1.0368                 1.0344                 1.0994
 Frc consts  --      5.7304                 5.7225                 6.3576
 IR Inten    --      6.4946                52.1882                 9.7461

                     43                     44                     45
                      A                      A                      A
 Frequencies --   3139.8695              3164.3863              3169.7081
 Red. masses --      1.1040                 1.1052                 1.1041
 Frc consts  --      6.4128                 6.5202                 6.5356
 IR Inten    --     17.6504                13.6791                23.2213

                     46                     47                     48
                      A                      A                      A
 Frequencies --   3231.8801              3527.7116              3613.1237
 Red. masses --      1.0905                 1.0504                 1.0969
 Frc consts  --      6.7113                 7.7019                 8.4369
 IR Inten    --      5.1055                25.8871                47.8405

 - Thermochemistry -
 -------------------
 Temperature   298.150 Kelvin.  Pressure   1.00000 Atm.
 Atom     1 has atomic number  6 and mass  12.00000

 Molecular mass:   212.95560 amu.
 Principal axes and moments of inertia in atomic units:
                           1         2         3
     Eigenvalues --  1524.271832841.886843685.66935
           X            0.99681  -0.07586  -0.02487
           Y            0.07658   0.99662   0.02971
           Z            0.02254  -0.03152   0.99925
 This molecule is an asymmetric top.
 Rotational symmetry number  1.
 Warning -- assumption of classical behavior for rotation
           may cause significant error
 Rotational temperatures (Kelvin)      0.05682     0.03048     0.02350
 Rotational constants (GHZ):           1.18400     0.63505     0.48966
    1 imaginary frequencies ignored.
 Zero-point vibrational energy     363395.9 (Joules/Mol)
                                   86.85370 (Kcal/Mol)
 Warning -- explicit consideration of  15 degrees of freedom as
           vibrations may cause significant error
 Vibrational temperatures:     61.51   103.32   109.17   154.07   199.79
          (Kelvin)            204.69   241.72   269.01   297.19   391.04
                              440.23   601.08   668.59   801.17   847.82
                              894.81   978.09  1105.29  1396.20  1442.52
                             1452.23  1472.20  1502.13  1544.54  1608.51
                             1737.59  1762.94  1888.96  1934.91  1998.48
                             2036.56  2096.49  2107.14  2110.48  2145.33
                             2166.61  2362.91  2399.71  4406.80  4408.73
                             4507.47  4517.57  4552.85  4560.50  4649.95
                             5075.59  5198.48

 Zero-point correction=                           0.138410 (Hartree/Particle)
 Thermal correction to Energy=                    0.149900
 Thermal correction to Enthalpy=                  0.150844
 Thermal correction to Gibbs Free Energy=         0.098835
 Sum of electronic and zero-point Energies=          -3360.192733
 Sum of electronic and thermal Energies=             -3360.181244
 Sum of electronic and thermal Enthalpies=           -3360.180300
 Sum of electronic and thermal Free Energies=        -3360.232309

                     E (Thermal)             CV                S
                      KCal/Mol        Cal/Mol-Kelvin    Cal/Mol-Kelvin
 Total                   94.063             37.866            109.462
 Electronic               0.000              0.000              0.000
 Translational            0.889              2.981             41.971
 Rotational               0.889              2.981             31.146
 Vibrational             92.286             31.904             36.345
 Vibration     1          0.595              1.980              5.127
 Vibration     2          0.598              1.967              4.103
 Vibration     3          0.599              1.965              3.995
 Vibration     4          0.606              1.944              3.321
 Vibration     5          0.614              1.914              2.819
 Vibration     6          0.616              1.911              2.773
 Vibration     7          0.625              1.882              2.458
 Vibration     8          0.632              1.858              2.258
 Vibration     9          0.641              1.831              2.074
 Vibration    10          0.675              1.725              1.585
 Vibration    11          0.696              1.662              1.384
 Vibration    12          0.781              1.432              0.900
 Vibration    13          0.822              1.328              0.753
 Vibration    14          0.912              1.125              0.530
 Vibration    15          0.947              1.055              0.468

 Optimization completed.
    -- Stationary point found.
 Normal termination of Gaussian 16 at Fri Feb 19 09:47:29 2021.
