 Gaussian 16, Revision A.03,
 Gaussian 16:  ES64L-G16RevA.03 25-Dec-2016

 ----------------------------------------------------------------------
 # wB97XD def2tzvp, opt=(ts, noeigen, calcfc, maxcycles=70, maxstep=8),
  freq=noraman, scrf=(iefpcm, solvent=water)
 ----------------------------------------------------------------------

 ------------------------
 1_iteration/TS-627-1.out
 ------------------------
 Symbolic Z-matrix:
 Charge =  0 Multiplicity = 1

 SCF Done:  E(RwB97XD) =  -5721.43894341     A.U. after   16 cycles
 SCF Done:  E(RwB97XD) =  -5721.44071045     A.U. after   14 cycles
 SCF Done:  E(RwB97XD) =  -5721.44187119     A.U. after   14 cycles
 SCF Done:  E(RwB97XD) =  -5721.44254098     A.U. after   12 cycles
 SCF Done:  E(RwB97XD) =  -5721.44302012     A.U. after   12 cycles
 SCF Done:  E(RwB97XD) =  -5721.44337668     A.U. after   13 cycles
 SCF Done:  E(RwB97XD) =  -5721.44339156     A.U. after   13 cycles
 SCF Done:  E(RwB97XD) =  -5721.44318667     A.U. after   12 cycles
 SCF Done:  E(RwB97XD) =  -5721.44316998     A.U. after   12 cycles
 SCF Done:  E(RwB97XD) =  -5721.44343656     A.U. after   12 cycles
 SCF Done:  E(RwB97XD) =  -5721.44335078     A.U. after   12 cycles
 SCF Done:  E(RwB97XD) =  -5721.44339740     A.U. after   13 cycles
 SCF Done:  E(RwB97XD) =  -5721.44353742     A.U. after   12 cycles
 SCF Done:  E(RwB97XD) =  -5721.44353819     A.U. after   12 cycles
 SCF Done:  E(RwB97XD) =  -5721.44354854     A.U. after   11 cycles
 SCF Done:  E(RwB97XD) =  -5721.44354957     A.U. after    9 cycles
 SCF Done:  E(RwB97XD) =  -5721.44354965     A.U. after    8 cycles
 SCF Done:  E(RwB97XD) =  -5721.44354962     A.U. after    8 cycles
 SCF Done:  E(RwB97XD) =  -5721.44354975     A.U. after    8 cycles
 Optimization completed.
    -- Stationary point found.
 Normal termination of Gaussian 16 at Sat Feb 20 01:54:00 2021.

 ---------------------------------------------------------------------
 #N Geom=AllCheck Guess=TCheck SCRF=Check GenChk RwB97XD/def2TZVP Freq
 ---------------------------------------------------------------------

 Structure from the checkpoint file:  "/beegfs/scratch/user/q/tla25/Gau-14955.chk"
 ------------------------
 1_iteration/TS-627-1.out
 ------------------------
 Charge =  0 Multiplicity = 1

                         Standard orientation:
 ---------------------------------------------------------------------
 Center     Atomic      Atomic             Coordinates (Angstroms)
 Number     Number       Type             X           Y           Z
 ---------------------------------------------------------------------
      1          6           0        0.845940    0.660338   -0.147217
      2          6           0        0.574273    2.094316   -0.157116
      3          8           0       -0.487670    2.578014    0.243469
      4          6           0       -0.109695   -0.289288    0.189340
      5          6           0        0.222405    0.420000    2.890920
      6          1           0        0.881075    1.136842    2.401805
      7          1           0       -0.755112    0.875822    3.022542
      8          1           0        0.638518    0.153459    3.861587
      9          7           0        0.112334   -0.754062    2.029378
     10          1           0        0.996281   -1.250670    1.996358
     11          1           0       -0.584977   -1.417515    2.349243
     12         35           0        0.185095   -2.134115   -0.478824
     13          6           0       -1.569346    0.020583   -0.004877
     14          6           0       -2.541848   -0.089927    0.978644
     15          6           0       -3.874197    0.172452    0.686537
     16          6           0       -4.254782    0.534369   -0.593576
     17          6           0       -3.289756    0.629144   -1.588371
     18          6           0       -1.964273    0.371495   -1.296971
     19          1           0       -2.297411   -0.366515    1.992580
     20          1           0       -4.614021    0.089794    1.472322
     21          1           0       -5.294028    0.736823   -0.818350
     22          1           0       -3.571368    0.905175   -2.596552
     23          1           0       -1.215495    0.447400   -2.074780
     24         35           0        2.676203    0.114397   -0.302205
     25          7           0        1.553798    2.918722   -0.620221
     26          1           0        2.360186    2.572512   -1.106103
     27          1           0        1.317019    3.889382   -0.720385
 ---------------------------------------------------------------------

 SCF Done:  E(RwB97XD) =  -5721.44354975     A.U. after    1 cycles

 The electronic state is 1-A.
 Alpha  occ. eigenvalues -- -483.13241-483.12895 -62.68078 -62.67724 -56.47197
 Alpha  occ. eigenvalues --  -56.46843 -56.46831 -56.46827 -56.46495 -56.46483
 Alpha  occ. eigenvalues --  -19.20268 -14.49823 -14.44023 -10.41092 -10.38958
 Alpha  occ. eigenvalues --  -10.32040 -10.31803 -10.31449 -10.29846 -10.29421
 Alpha  occ. eigenvalues --  -10.29396 -10.29302 -10.29246  -8.82172  -8.81835
 Alpha  occ. eigenvalues --   -6.64320  -6.63951  -6.63204  -6.63153  -6.62879
 Alpha  occ. eigenvalues --   -6.62842  -2.74699  -2.74396  -2.74356  -2.74347
 Alpha  occ. eigenvalues --   -2.74038  -2.74008  -2.73452  -2.73452  -2.73141
 Alpha  occ. eigenvalues --   -2.73140  -1.13186  -1.05302  -0.99789  -0.98139
 Alpha  occ. eigenvalues --   -0.94382  -0.89252  -0.86178  -0.85700  -0.81607
 Alpha  occ. eigenvalues --   -0.79516  -0.74103  -0.71204  -0.69925  -0.65319
 Alpha  occ. eigenvalues --   -0.64500  -0.62149  -0.59618  -0.58286  -0.57028
 Alpha  occ. eigenvalues --   -0.56380  -0.54261  -0.53175  -0.51615  -0.51281
 Alpha  occ. eigenvalues --   -0.51065  -0.50222  -0.48407  -0.47156  -0.46425
 Alpha  occ. eigenvalues --   -0.45502  -0.43611  -0.43120  -0.40345  -0.39621
 Alpha  occ. eigenvalues --   -0.37717  -0.36708  -0.35532  -0.34865  -0.33869
 Alpha  occ. eigenvalues --   -0.31890  -0.27992
 Alpha virt. eigenvalues --    0.01082   0.04709   0.05109   0.06981   0.09810
 Alpha virt. eigenvalues --    0.10260   0.12829   0.13514   0.14440   0.15404
 Alpha virt. eigenvalues --    0.15967   0.16648   0.17334   0.18352   0.18845

 Mulliken charges:
               1
     1  C   -0.284102
     2  C    0.331738
     3  O   -0.509640
     4  C    0.177081
     5  C   -0.287329
     6  H    0.159644
     7  H    0.155199
     8  H    0.164496
     9  N   -0.326764
    10  H    0.287553
    11  H    0.293111
    12  Br  -0.113605
    13  C    0.280314
    14  C   -0.232537
    15  C   -0.167779
    16  C   -0.150357
    17  C   -0.124698
    18  C   -0.305155
    19  H    0.138623
    20  H    0.144642
    21  H    0.145631
    22  H    0.144677
    23  H    0.156472
    24  Br  -0.143196
    25  N   -0.471851
    26  H    0.269919
    27  H    0.267915
 Sum of Mulliken charges =  -0.00000

 Dipole moment (field-independent basis, Debye):
    X=              0.0574    Y=             -2.2864    Z=              4.2749  Tot=              4.8483
 Quadrupole moment (field-independent basis, Debye-Ang):
   XX=           -106.6131   YY=           -117.9903   ZZ=            -94.1669
   XY=              6.7628   XZ=             -0.9073   YZ=            -12.0510

  Exact polarizability: 289.541  -7.281 236.444 -13.821 -15.777 232.206
 Approx polarizability: 226.978  -8.640 192.856 -12.283 -11.631 200.039

 ******    1 imaginary frequencies (negative Signs) ******

                      1                      2                      3
                      A                      A                      A
 Frequencies --   -352.7602                42.2034                50.2301
 Red. masses --      5.2732                 4.7414                 5.8425
 Frc consts  --      0.3866                 0.0050                 0.0087
 IR Inten    --    559.7880                 1.1921                 1.2930

                      4                      5                      6
                      A                      A                      A
 Frequencies --     57.7945                81.6654               107.4673
 Red. masses --      5.4855                 6.1162                 3.7583
 Frc consts  --      0.0108                 0.0240                 0.0256
 IR Inten    --      5.0387                 4.9237                 6.0512

                      7                      8                      9
                      A                      A                      A
 Frequencies --    125.8215               137.2825               150.7954
 Red. masses --      6.2684                 3.9525                 1.3411
 Frc consts  --      0.0585                 0.0439                 0.0180
 IR Inten    --      6.7131                 1.7064                 1.4264

                     10                     11                     12
                      A                      A                      A
 Frequencies --    167.4759               200.2876               201.8325
 Red. masses --      6.4531                 7.5696                 2.8810
 Frc consts  --      0.1066                 0.1789                 0.0691
 IR Inten    --      4.3124                 4.5436                72.3391

                     13                     14                     15
                      A                      A                      A
 Frequencies --    216.5933               251.7619               268.5908
 Red. masses --      1.3238                 4.4061                 4.8117
 Frc consts  --      0.0366                 0.1645                 0.2045
 IR Inten    --    273.6557                16.7695                12.8493

                     16                     17                     18
                      A                      A                      A
 Frequencies --    298.1611               307.7000               360.5642
 Red. masses --      5.2008                 4.1488                 4.6020
 Frc consts  --      0.2724                 0.2314                 0.3525
 IR Inten    --     11.9182                24.1634                28.1312

                     19                     20                     21
                      A                      A                      A
 Frequencies --    405.4020               422.7537               512.5731
 Red. masses --      6.8554                 2.8774                 3.5465
 Frc consts  --      0.6638                 0.3030                 0.5490
 IR Inten    --     16.4134                 0.2853                30.8018

                     22                     23                     24
                      A                      A                      A
 Frequencies --    527.8480               561.0102               579.4843
 Red. masses --      1.2821                 2.8279                 2.6032
 Frc consts  --      0.2105                 0.5244                 0.5150
 IR Inten    --     42.4145               140.4510                18.8421

                     25                     26                     27
                      A                      A                      A
 Frequencies --    622.5660               640.9969               699.8572
 Red. masses --      5.3745                 6.4454                 1.7985
 Frc consts  --      1.2273                 1.5603                 0.5190
 IR Inten    --     92.0547                18.3792                26.4987

                     28                     29                     30
                      A                      A                      A
 Frequencies --    719.2420               752.2028               778.1884
 Red. masses --      1.7750                 2.3381                 8.7874
 Frc consts  --      0.5410                 0.7795                 3.1353
 IR Inten    --     48.3308               206.8580                49.8385

                     31                     32                     33
                      A                      A                      A
 Frequencies --    825.1221               852.8039               866.6008
 Red. masses --      3.1419                 4.5640                 1.2634
 Frc consts  --      1.2603                 1.9557                 0.5590
 IR Inten    --     28.4079                63.8892                 1.3138

                     34                     35                     36
                      A                      A                      A
 Frequencies --    952.2234               993.0388              1009.6982
 Red. masses --      1.4682                 1.1771                 1.3654
 Frc consts  --      0.7844                 0.6839                 0.8202
 IR Inten    --      0.0964                29.8606                 1.1156

                     37                     38                     39
                      A                      A                      A
 Frequencies --   1024.1802              1029.4514              1034.0002
 Red. masses --      5.6387                 1.3189                 3.0731
 Frc consts  --      3.4848                 0.8235                 1.9358
 IR Inten    --      1.3506                 0.0133                18.0355

                     40                     41                     42
                      A                      A                      A
 Frequencies --   1065.9586              1070.7225              1076.7114
 Red. masses --      1.8513                 2.6851                 1.7167
 Frc consts  --      1.2394                 1.8137                 1.1726
 IR Inten    --     11.2496                 9.1318               127.3640

                     43                     44                     45
                      A                      A                      A
 Frequencies --   1097.4058              1126.5189              1186.1514
 Red. masses --      2.0276                 1.5669                 1.1365
 Frc consts  --      1.4387                 1.1716                 0.9421
 IR Inten    --     21.9369                10.5136                 0.3363

                     46                     47                     48
                      A                      A                      A
 Frequencies --   1205.9877              1218.8018              1236.2657
 Red. masses --      3.4546                 1.1502                 1.4231
 Frc consts  --      2.9603                 1.0067                 1.2815
 IR Inten    --    151.6664                 3.9181                26.8141

                     49                     50                     51
                      A                      A                      A
 Frequencies --   1317.0605              1342.3361              1361.9957
 Red. masses --      4.4729                 1.3270                 1.4494
 Frc consts  --      4.5715                 1.4088                 1.5841
 IR Inten    --     11.7073                 3.0538                 6.8946

                     52                     53                     54
                      A                      A                      A
 Frequencies --   1370.2150              1413.4560              1460.5951
 Red. masses --      4.2259                 4.8785                 1.2708
 Frc consts  --      4.6746                 5.7425                 1.5973
 IR Inten    --    641.0981               767.7659                32.3762

                     55                     56                     57
                      A                      A                      A
 Frequencies --   1488.0656              1490.3198              1502.9418
 Red. masses --      1.0437                 2.1754                 1.0521
 Frc consts  --      1.3617                 2.8467                 1.4002
 IR Inten    --     12.6099                36.9875                16.3419

                     58                     59                     60
                      A                      A                      A
 Frequencies --   1543.0885              1604.7821              1650.2736
 Red. masses --      2.3176                 1.3563                 2.3024
 Frc consts  --      3.2514                 2.0579                 3.6944
 IR Inten    --     29.4643               324.5127                46.3748

                     61                     62                     63
                      A                      A                      A
 Frequencies --   1659.2051              1667.9156              1673.9636
 Red. masses --      1.5337                 5.4774                 5.6006
 Frc consts  --      2.4876                 8.9778                 9.2464
 IR Inten    --     44.3924               638.0702                 0.7982

                     64                     65                     66
                      A                      A                      A
 Frequencies --   3077.7906              3154.7531              3183.7174
 Red. masses --      1.0336                 1.1048                 1.1049
 Frc consts  --      5.7689                 6.4783                 6.5987
 IR Inten    --     31.7099                 6.3237                12.5196

                     67                     68                     69
                      A                      A                      A
 Frequencies --   3198.3268              3206.3668              3215.2084
 Red. masses --      1.0861                 1.0893                 1.0938
 Frc consts  --      6.5457                 6.5982                 6.6620
 IR Inten    --      0.4469                 4.9513                22.4678

                     70                     71                     72
                      A                      A                      A
 Frequencies --   3224.0251              3252.1769              3519.6846
 Red. masses --      1.0981                 1.0913                 1.0515
 Frc consts  --      6.7252                 6.8008                 7.6746
 IR Inten    --     21.2923                16.8942                46.6158

                     73                     74                     75
                      A                      A                      A
 Frequencies --   3594.9616              3627.7510              3754.2843
 Red. masses --      1.0956                 1.0456                 1.1050
 Frc consts  --      8.3427                 8.1072                 9.1760
 IR Inten    --     52.4685                87.6778                91.4029

 - Thermochemistry -
 -------------------
 Temperature   298.150 Kelvin.  Pressure   1.00000 Atm.
 Atom     1 has atomic number  6 and mass  12.00000

 Molecular mass:   333.93164 amu.
 Principal axes and moments of inertia in atomic units:
                           1         2         3
     Eigenvalues --  3619.319176054.286387387.72910
           X            0.99995   0.00335   0.00958
           Y           -0.00290   0.99891  -0.04663
           Z           -0.00973   0.04660   0.99887
 This molecule is an asymmetric top.
 Rotational symmetry number  1.
 Warning -- assumption of classical behavior for rotation
           may cause significant error
 Rotational temperatures (Kelvin)      0.02393     0.01431     0.01172
 Rotational constants (GHZ):           0.49864     0.29809     0.24429
    1 imaginary frequencies ignored.
 Zero-point vibrational energy     548339.8 (Joules/Mol)
                                  131.05636 (Kcal/Mol)
 Warning -- explicit consideration of  23 degrees of freedom as
           vibrations may cause significant error
 Vibrational temperatures:     60.72    72.27    83.15   117.50   154.62
          (Kelvin)            181.03   197.52   216.96   240.96   288.17
                              290.39   311.63   362.23   386.44   428.99
                              442.71   518.77   583.28   608.25   737.48
                              759.46   807.17   833.75   895.73   922.25
                             1006.94  1034.83  1082.25  1119.64  1187.17
                             1226.99  1246.85  1370.04  1428.76  1452.73
                             1473.57  1481.15  1487.70  1533.68  1540.53
                             1549.15  1578.92  1620.81  1706.61  1735.15
                             1753.58  1778.71  1894.96  1931.32  1959.61
                             1971.43  2033.65  2101.47  2140.99  2144.24
                             2162.40  2220.16  2308.92  2374.38  2387.23
                             2399.76  2408.46  4428.25  4538.99  4580.66
                             4601.68  4613.25  4625.97  4638.65  4679.16
                             5064.04  5172.35  5219.52  5401.58

 Zero-point correction=                           0.208852 (Hartree/Particle)
 Thermal correction to Energy=                    0.224807
 Thermal correction to Enthalpy=                  0.225752
 Thermal correction to Gibbs Free Energy=         0.163729
 Sum of electronic and zero-point Energies=          -5721.234698
 Sum of electronic and thermal Energies=             -5721.218742
 Sum of electronic and thermal Enthalpies=           -5721.217798
 Sum of electronic and thermal Free Energies=        -5721.279821

                     E (Thermal)             CV                S
                      KCal/Mol        Cal/Mol-Kelvin    Cal/Mol-Kelvin
 Total                  141.069             57.156            130.538
 Electronic               0.000              0.000              0.000
 Translational            0.889              2.981             43.312
 Rotational               0.889              2.981             33.448
 Vibrational            139.291             51.195             53.778
 Vibration     1          0.595              1.980              5.153
 Vibration     2          0.595              1.978              4.808
 Vibration     3          0.596              1.974              4.531
 Vibration     4          0.600              1.962              3.850
 Vibration     5          0.606              1.943              3.314
 Vibration     6          0.611              1.927              3.009
 Vibration     7          0.614              1.916              2.841
 Vibration     8          0.618              1.902              2.662
 Vibration     9          0.624              1.882              2.464
 Vibration    10          0.638              1.839              2.130
 Vibration    11          0.639              1.837              2.116
 Vibration    12          0.645              1.816              1.987
 Vibration    13          0.664              1.760              1.718
 Vibration    14          0.673              1.731              1.605
 Vibration    15          0.691              1.677              1.427
 Vibration    16          0.698              1.659              1.375
 Vibration    17          0.735              1.554              1.120
 Vibration    18          0.770              1.458              0.943
 Vibration    19          0.785              1.421              0.883
 Vibration    20          0.868              1.222              0.627
 Vibration    21          0.883              1.188              0.592
 Vibration    22          0.917              1.116              0.522
 Vibration    23          0.936              1.076              0.486

 Optimization completed.
    -- Stationary point found.
 Normal termination of Gaussian 16 at Sat Feb 20 02:58:29 2021.
