 Gaussian 16, Revision A.03,
 Gaussian 16:  ES64L-G16RevA.03 25-Dec-2016

 ----------------------------------------------------------------------
 # wB97XD def2tzvp, opt=(ts, noeigen, calcfc, maxcycles=70, maxstep=8),
  freq=noraman, scrf=(iefpcm, solvent=water)
 ----------------------------------------------------------------------

 ------------------------
 1_iteration/TS-616-1.out
 ------------------------
 Symbolic Z-matrix:
 Charge =  0 Multiplicity = 1

 SCF Done:  E(RwB97XD) =  -3323.50981074     A.U. after   15 cycles
 SCF Done:  E(RwB97XD) =  -3323.50981075     A.U. after    6 cycles
 Optimization completed.
    -- Stationary point found.
 Normal termination of Gaussian 16 at Sun Mar 28 22:50:51 2021.

 ---------------------------------------------------------------------
 #N Geom=AllCheck Guess=TCheck SCRF=Check GenChk RwB97XD/def2TZVP Freq
 ---------------------------------------------------------------------

 Structure from the checkpoint file:  "/beegfs/scratch/user/q/tla25/Gau-3487.chk"
 ------------------------
 1_iteration/TS-616-1.out
 ------------------------
 Charge =  0 Multiplicity = 1

                         Standard orientation:
 ---------------------------------------------------------------------
 Center     Atomic      Atomic             Coordinates (Angstroms)
 Number     Number       Type             X           Y           Z
 ---------------------------------------------------------------------
      1          6           0        0.428478   -0.514461   -0.293725
      2          6           0        1.311855    0.337641    0.425861
      3          8           0        0.951146    1.061998    1.369653
      4          6           0       -0.948214   -0.486462   -0.071291
      5          6           0       -0.404543   -2.106466    2.254036
      6          1           0       -1.016438   -2.985626    2.063855
      7          1           0        0.497398   -2.159521    1.638043
      8          1           0       -0.106450   -2.093338    3.303099
      9          7           0       -1.137277   -0.909731    1.886049
     10          1           0       -2.088952   -0.911173    2.226700
     11          1           0       -0.658721   -0.066803    2.196006
     12         35           0       -1.872134   -1.982886   -0.881860
     13          6           0       -1.779875    0.758778   -0.091614
     14          6           0       -3.086482    0.787920    0.392966
     15          6           0       -3.839278    1.947467    0.328939
     16          6           0       -3.302232    3.097274   -0.233444
     17          6           0       -2.012213    3.072003   -0.739746
     18          6           0       -1.259137    1.910270   -0.674656
     19          1           0       -3.535202   -0.105968    0.807031
     20          1           0       -4.850975    1.950257    0.713430
     21          1           0       -3.891544    4.003752   -0.286066
     22          1           0       -1.588055    3.958177   -1.194193
     23          1           0       -0.259228    1.891209   -1.084860
     24          1           0        0.845918   -1.336522   -0.852724
     25          6           0        2.769536    0.302640    0.061501
     26          6           0        3.204632   -0.027259   -1.219660
     27          6           0        4.557498   -0.027795   -1.524774
     28          6           0        5.490775    0.292566   -0.549082
     29          6           0        5.065389    0.623016    0.730975
     30          6           0        3.712895    0.634563    1.030469
     31          1           0        2.482448   -0.265651   -1.990322
     32          1           0        4.883220   -0.275376   -2.527174
     33          1           0        6.547262    0.288031   -0.786189
     34          1           0        5.790225    0.872948    1.495545
     35          1           0        3.371037    0.898595    2.022808
 ---------------------------------------------------------------------

 SCF Done:  E(RwB97XD) =  -3323.50981075     A.U. after    1 cycles

 The electronic state is 1-A.
 Alpha  occ. eigenvalues -- -483.13544 -62.68370 -56.47486 -56.47140 -56.47122
 Alpha  occ. eigenvalues --  -19.21441 -14.47288 -10.40255 -10.36038 -10.31451
 Alpha  occ. eigenvalues --  -10.31185 -10.29958 -10.29704 -10.29669 -10.29606
 Alpha  occ. eigenvalues --  -10.29516 -10.29392 -10.29388 -10.29337 -10.29171
 Alpha  occ. eigenvalues --  -10.29158 -10.29095 -10.26304  -8.82463  -6.64605
 Alpha  occ. eigenvalues --   -6.63502  -6.63444  -2.74995  -2.74685  -2.74641
 Alpha  occ. eigenvalues --   -2.73747  -2.73747  -1.12073  -1.03078  -0.98069
 Alpha  occ. eigenvalues --   -0.96767  -0.93671  -0.87194  -0.86399  -0.85836
 Alpha  occ. eigenvalues --   -0.85312  -0.83423  -0.78416  -0.75188  -0.71842
 Alpha  occ. eigenvalues --   -0.70921  -0.70435  -0.67261  -0.64188  -0.62646
 Alpha  occ. eigenvalues --   -0.61793  -0.59351  -0.56910  -0.56369  -0.56263
 Alpha  occ. eigenvalues --   -0.55102  -0.54393  -0.53518  -0.52827  -0.51838
 Alpha  occ. eigenvalues --   -0.51588  -0.51182  -0.49833  -0.48492  -0.47790
 Alpha  occ. eigenvalues --   -0.47331  -0.47136  -0.45207  -0.44196  -0.43932
 Alpha  occ. eigenvalues --   -0.43620  -0.42802  -0.42603  -0.38421  -0.37110
 Alpha  occ. eigenvalues --   -0.34751  -0.34054  -0.33914  -0.33492  -0.32644
 Alpha  occ. eigenvalues --   -0.28960
 Alpha virt. eigenvalues --   -0.00480   0.02850   0.04868   0.05081   0.05779
 Alpha virt. eigenvalues --    0.09149   0.10898   0.13103   0.13236   0.14074
 Alpha virt. eigenvalues --    0.14567   0.15583   0.16286   0.16739   0.17047

 Mulliken charges:
               1
     1  C   -0.594444
     2  C    0.325821
     3  O   -0.534848
     4  C    0.377145
     5  C   -0.284035
     6  H    0.152641
     7  H    0.142924
     8  H    0.152286
     9  N   -0.348782
    10  H    0.272759
    11  H    0.276382
    12  Br  -0.089247
    13  C    0.139593
    14  C   -0.267330
    15  C   -0.162480
    16  C   -0.132030
    17  C   -0.147199
    18  C   -0.200307
    19  H    0.168788
    20  H    0.146290
    21  H    0.147725
    22  H    0.145215
    23  H    0.160610
    24  H    0.171870
    25  C    0.143636
    26  C   -0.244422
    27  C   -0.144915
    28  C   -0.133933
    29  C   -0.127000
    30  C   -0.243479
    31  H    0.157436
    32  H    0.143574
    33  H    0.146375
    34  H    0.143400
    35  H    0.139982
 Sum of Mulliken charges =   0.00000

 Dipole moment (field-independent basis, Debye):
    X=             -2.3850    Y=             -2.0307    Z=              1.9398  Tot=              3.6844
 Quadrupole moment (field-independent basis, Debye-Ang):
   XX=           -105.6373   YY=           -121.3598   ZZ=           -116.4105
   XY=             -4.3227   XZ=            -11.4805   YZ=             -8.8786

  Exact polarizability: 389.658  11.891 288.419 -19.170   4.104 271.577
 Approx polarizability: 287.293   9.068 236.105 -16.430   7.744 235.461

 ******    1 imaginary frequencies (negative Signs) ******

                      1                      2                      3
                      A                      A                      A
 Frequencies --   -390.4647                30.1217                33.5578
 Red. masses --      5.0941                 5.3664                 3.8927
 Frc consts  --      0.4576                 0.0029                 0.0026
 IR Inten    --    699.5877                 1.2695                 0.7847

                      4                      5                      6
                      A                      A                      A
 Frequencies --     46.1658                71.3379                90.0836
 Red. masses --      3.8985                 5.0771                 5.9728
 Frc consts  --      0.0049                 0.0152                 0.0286
 IR Inten    --      1.3252                 2.3725                 2.2489

                      7                      8                      9
                      A                      A                      A
 Frequencies --     93.4163               114.9825               133.5599
 Red. masses --      2.8906                 4.0798                 3.8588
 Frc consts  --      0.0149                 0.0318                 0.0406
 IR Inten    --      2.1249                 9.5414                27.8847

                     10                     11                     12
                      A                      A                      A
 Frequencies --    155.0259               174.2808               197.2239
 Red. masses --      2.3719                 3.1969                 4.6315
 Frc consts  --      0.0336                 0.0572                 0.1061
 IR Inten    --      8.9533                 3.4459                 0.5361

                     13                     14                     15
                      A                      A                      A
 Frequencies --    203.9486               232.6505               267.6762
 Red. masses --      1.9963                 4.4925                 5.6566
 Frc consts  --      0.0489                 0.1433                 0.2388
 IR Inten    --      6.6913                 0.5637                 6.5289

                     16                     17                     18
                      A                      A                      A
 Frequencies --    285.8753               319.2523               326.7200
 Red. masses --      3.5608                 6.5203                 5.1492
 Frc consts  --      0.1715                 0.3915                 0.3238
 IR Inten    --      6.7288                30.2215                11.4679

                     19                     20                     21
                      A                      A                      A
 Frequencies --    413.8446               421.9817               422.7843
 Red. masses --      5.1372                 2.8760                 2.9868
 Frc consts  --      0.5184                 0.3017                 0.3146
 IR Inten    --      2.2812                 0.5300                 0.5472

                     22                     23                     24
                      A                      A                      A
 Frequencies --    469.2373               488.2751               553.6608
 Red. masses --      3.5178                 4.3982                 3.8594
 Frc consts  --      0.4564                 0.6178                 0.6970
 IR Inten    --     23.3963                22.3588                97.4177

                     25                     26                     27
                      A                      A                      A
 Frequencies --    569.0872               635.5297               636.5351
 Red. masses --      2.6028                 5.8251                 6.4190
 Frc consts  --      0.4967                 1.3862                 1.5324
 IR Inten    --      5.0131                 5.9817                 2.4190

                     28                     29                     30
                      A                      A                      A
 Frequencies --    643.6242               655.6510               704.1974
 Red. masses --      4.3838                 2.7263                 1.3840
 Frc consts  --      1.0700                 0.6905                 0.4044
 IR Inten    --     11.3451               154.6642                38.1060

                     31                     32                     33
                      A                      A                      A
 Frequencies --    721.7613               722.8193               743.0636
 Red. masses --      1.7368                 1.6108                 3.0448
 Frc consts  --      0.5331                 0.4959                 0.9905
 IR Inten    --     77.4548                85.9626                98.8265

                     34                     35                     36
                      A                      A                      A
 Frequencies --    751.9456               797.4003               828.3465
 Red. masses --      2.6210                 2.0932                 4.4448
 Frc consts  --      0.8731                 0.7842                 1.7969
 IR Inten    --    154.8597                30.4204                68.5772

                     37                     38                     39
                      A                      A                      A
 Frequencies --    835.9583               874.0920               881.6361
 Red. masses --      3.5890                 1.2489                 1.2491
 Frc consts  --      1.4777                 0.5622                 0.5720
 IR Inten    --     23.3255                 1.9122                 0.5405

                     40                     41                     42
                      A                      A                      A
 Frequencies --    939.6253               967.6135               973.1504
 Red. masses --      3.0634                 1.5978                 1.4844
 Frc consts  --      1.5935                 0.8814                 0.8282
 IR Inten    --     63.2409                26.9065                 0.8690

                     43                     44                     45
                      A                      A                      A
 Frequencies --    982.1842              1016.5593              1018.1195
 Red. masses --      1.1778                 1.3908                 1.3804
 Frc consts  --      0.6695                 0.8468                 0.8431
 IR Inten    --     94.3859                 5.2366                 1.1817

                     46                     47                     48
                      A                      A                      A
 Frequencies --   1026.2078              1026.9334              1034.1457
 Red. masses --      6.0439                 5.1743                 1.3185
 Frc consts  --      3.7501                 3.2151                 0.8308
 IR Inten    --      2.5567                 3.9917                 0.7786

                     49                     50                     51
                      A                      A                      A
 Frequencies --   1034.4998              1053.7223              1057.9333
 Red. masses --      1.3228                 1.2504                 2.4518
 Frc consts  --      0.8341                 0.8180                 1.6168
 IR Inten    --      2.4089                69.0427                11.7023

                     52                     53                     54
                      A                      A                      A
 Frequencies --   1063.5725              1093.3089              1101.5023
 Red. masses --      1.9631                 4.0796                 2.3199
 Frc consts  --      1.3084                 2.8731                 1.6584
 IR Inten    --     31.4433                51.5173                19.5081

                     55                     56                     57
                      A                      A                      A
 Frequencies --   1113.9053              1122.3419              1170.0380
 Red. masses --      1.6471                 1.7364                 2.3369
 Frc consts  --      1.2041                 1.2887                 1.8849
 IR Inten    --     16.2001                 9.3059               161.0464

                     58                     59                     60
                      A                      A                      A
 Frequencies --   1183.8825              1184.9533              1192.3245
 Red. masses --      1.1359                 1.1315                 1.3947
 Frc consts  --      0.9380                 0.9361                 1.1682
 IR Inten    --      1.3258                 0.3064                20.9942

                     61                     62                     63
                      A                      A                      A
 Frequencies --   1205.5721              1211.2035              1265.3217
 Red. masses --      1.1428                 1.1454                 2.6133
 Frc consts  --      0.9786                 0.9900                 2.4652
 IR Inten    --     29.7165                19.1226               190.0108

                     64                     65                     66
                      A                      A                      A
 Frequencies --   1325.0463              1330.0654              1346.4973
 Red. masses --      4.0931                 3.4148                 1.4527
 Frc consts  --      4.2341                 3.5593                 1.5518
 IR Inten    --      4.0358                17.1439                18.6814

                     67                     68                     69
                      A                      A                      A
 Frequencies --   1354.1717              1358.1416              1367.1557
 Red. masses --      1.7589                 1.4611                 2.4458
 Frc consts  --      1.9004                 1.5879                 2.6935
 IR Inten    --      5.9178                 7.6140               112.2369

                     70                     71                     72
                      A                      A                      A
 Frequencies --   1448.3951              1461.1657              1488.4598
 Red. masses --      1.9727                 1.5066                 1.0420
 Frc consts  --      2.4383                 1.8952                 1.3601
 IR Inten    --   1033.2805               372.4555                15.7517

                     73                     74                     75
                      A                      A                      A
 Frequencies --   1491.1268              1495.7803              1502.8463
 Red. masses --      2.2716                 2.3629                 1.0336
 Frc consts  --      2.9758                 3.1148                 1.3754
 IR Inten    --     10.7398               300.3112                 5.1916

                     76                     77                     78
                      A                      A                      A
 Frequencies --   1539.8376              1541.1502              1612.1884
 Red. masses --      2.3207                 2.3112                 3.2189
 Frc consts  --      3.2421                 3.2343                 4.9294
 IR Inten    --     15.2733                17.4392               442.0007

                     79                     80                     81
                      A                      A                      A
 Frequencies --   1641.6262              1651.6712              1662.6017
 Red. masses --      1.4802                 5.8334                 4.9946
 Frc consts  --      2.3502                 9.3760                 8.1344
 IR Inten    --     23.2650                 4.3562                62.3859

                     82                     83                     84
                      A                      A                      A
 Frequencies --   1672.3610              1673.2434              3046.8099
 Red. masses --      5.9324                 5.8731                 1.0371
 Frc consts  --      9.7755                 9.6880                 5.6726
 IR Inten    --      2.1661                11.8736                41.1489

                     85                     86                     87
                      A                      A                      A
 Frequencies --   3116.6617              3161.0038              3195.0399
 Red. masses --      1.1003                 1.1039                 1.0859
 Frc consts  --      6.2973                 6.4989                 6.5309
 IR Inten    --     16.8612                16.2430                 0.9676

                     88                     89                     90
                      A                      A                      A
 Frequencies --   3198.7441              3202.5960              3205.3082
 Red. masses --      1.0861                 1.0885                 1.0889
 Frc consts  --      6.5474                 6.5776                 6.5914
 IR Inten    --      1.2402                 4.5748                 4.5920

                     91                     92                     93
                      A                      A                      A
 Frequencies --   3210.8395              3213.9072              3218.4035
 Red. masses --      1.0920                 1.0929                 1.0945
 Frc consts  --      6.6333                 6.6515                 6.6793
 IR Inten    --     18.6329                21.0189                25.4300

                     94                     95                     96
                      A                      A                      A
 Frequencies --   3223.6871              3224.0715              3231.0160
 Red. masses --      1.0965                 1.0981                 1.0957
 Frc consts  --      6.7135                 6.7253                 6.7394
 IR Inten    --     22.5936                15.8910                10.2564

                     97                     98                     99
                      A                      A                      A
 Frequencies --   3245.4846              3472.4959              3612.5361
 Red. masses --      1.0897                 1.0588                 1.0894
 Frc consts  --      6.7623                 7.5221                 8.3766
 IR Inten    --      0.7206                49.7396                93.5570

 - Thermochemistry -
 -------------------
 Temperature   298.150 Kelvin.  Pressure   1.00000 Atm.
 Atom     1 has atomic number  6 and mass  12.00000

 Molecular mass:   317.04153 amu.
 Principal axes and moments of inertia in atomic units:
                           1         2         3
     Eigenvalues --  4076.376459601.02475**********
           X            0.99929  -0.03495  -0.01395
           Y            0.03386   0.99683  -0.07196
           Z            0.01642   0.07144   0.99731
 This molecule is an asymmetric top.
 Rotational symmetry number  1.
 Warning -- assumption of classical behavior for rotation
           may cause significant error
 Rotational temperatures (Kelvin)      0.02125     0.00902     0.00768
 Rotational constants (GHZ):           0.44273     0.18797     0.16004
    1 imaginary frequencies ignored.
 Zero-point vibrational energy     743647.0 (Joules/Mol)
                                  177.73590 (Kcal/Mol)
 Warning -- explicit consideration of  24 degrees of freedom as
           vibrations may cause significant error
 Vibrational temperatures:     43.34    48.28    66.42   102.64   129.61
          (Kelvin)            134.41   165.43   192.16   223.05   250.75
                              283.76   293.44   334.73   385.13   411.31
                              459.33   470.08   595.43   607.14   608.29
                              675.13   702.52   796.59   818.79   914.39
                              915.83   926.03   943.34  1013.18  1038.45
                             1039.98  1069.10  1081.88  1147.28  1191.81
                             1202.76  1257.62  1268.48  1351.91  1392.18
                             1400.15  1413.14  1462.60  1464.85  1476.48
                             1477.53  1487.90  1488.41  1516.07  1522.13
                             1530.24  1573.03  1584.82  1602.66  1614.80
                             1683.42  1703.34  1704.88  1715.49  1734.55
                             1742.65  1820.52  1906.45  1913.67  1937.31
                             1948.35  1954.06  1967.03  2083.92  2102.29
                             2141.56  2145.40  2152.09  2162.26  2215.48
                             2217.37  2319.58  2361.93  2376.39  2392.11
                             2406.15  2407.42  4383.68  4484.18  4547.98
                             4596.95  4602.28  4607.82  4611.72  4619.68
                             4624.10  4630.56  4638.17  4638.72  4648.71
                             4669.53  4996.15  5197.63

 Zero-point correction=                           0.283240 (Hartree/Particle)
 Thermal correction to Energy=                    0.300783
 Thermal correction to Enthalpy=                  0.301727
 Thermal correction to Gibbs Free Energy=         0.235615
 Sum of electronic and zero-point Energies=          -3323.226571
 Sum of electronic and thermal Energies=             -3323.209028
 Sum of electronic and thermal Enthalpies=           -3323.208084
 Sum of electronic and thermal Free Energies=        -3323.274195

                     E (Thermal)             CV                S
                      KCal/Mol        Cal/Mol-Kelvin    Cal/Mol-Kelvin
 Total                  188.744             66.121            139.144
 Electronic               0.000              0.000              0.000
 Translational            0.889              2.981             43.157
 Rotational               0.889              2.981             34.444
 Vibrational            186.967             60.159             61.542
 Vibration     1          0.594              1.984              5.821
 Vibration     2          0.594              1.983              5.607
 Vibration     3          0.595              1.979              4.975
 Vibration     4          0.598              1.968              4.116
 Vibration     5          0.602              1.956              3.658
 Vibration     6          0.602              1.954              3.587
 Vibration     7          0.608              1.937              3.183
 Vibration     8          0.613              1.920              2.894
 Vibration     9          0.620              1.897              2.610
 Vibration    10          0.627              1.874              2.389
 Vibration    11          0.637              1.844              2.159
 Vibration    12          0.640              1.834              2.097
 Vibration    13          0.653              1.791              1.858
 Vibration    14          0.673              1.733              1.611
 Vibration    15          0.684              1.700              1.498
 Vibration    16          0.705              1.637              1.314
 Vibration    17          0.710              1.622              1.276
 Vibration    18          0.777              1.440              0.913
 Vibration    19          0.784              1.422              0.885
 Vibration    20          0.785              1.421              0.883
 Vibration    21          0.826              1.318              0.740
 Vibration    22          0.844              1.276              0.688
 Vibration    23          0.909              1.132              0.537
 Vibration    24          0.925              1.098              0.506

 Optimization completed.
    -- Stationary point found.
 Normal termination of Gaussian 16 at Mon Mar 29 00:46:03 2021.
