 Gaussian 16, Revision A.03,
 Gaussian 16:  ES64L-G16RevA.03 25-Dec-2016

 ----------------------------------------------------------------------
 # wB97XD def2tzvp, opt=(ts, noeigen, calcfc, maxcycles=70, maxstep=1),
  freq=noraman, scrf=(iefpcm, solvent=water)
 ----------------------------------------------------------------------

 ------------------------
 0_iteration/TS-655-0.out
 ------------------------
 Symbolic Z-matrix:
 Charge =  0 Multiplicity = 1

 SCF Done:  E(RwB97XD) =  -3147.82775006     A.U. after   14 cycles
 SCF Done:  E(RwB97XD) =  -3147.82773447     A.U. after    9 cycles
 SCF Done:  E(RwB97XD) =  -3147.82772318     A.U. after    9 cycles
 SCF Done:  E(RwB97XD) =  -3147.82771614     A.U. after   10 cycles
 SCF Done:  E(RwB97XD) =  -3147.82771350     A.U. after   10 cycles
 SCF Done:  E(RwB97XD) =  -3147.82771526     A.U. after   10 cycles
 SCF Done:  E(RwB97XD) =  -3147.82772432     A.U. after   10 cycles
 SCF Done:  E(RwB97XD) =  -3147.82774595     A.U. after   10 cycles
 SCF Done:  E(RwB97XD) =  -3147.82778065     A.U. after   10 cycles
 SCF Done:  E(RwB97XD) =  -3147.82783204     A.U. after   10 cycles
 SCF Done:  E(RwB97XD) =  -3147.82965284     A.U. after   10 cycles
 SCF Done:  E(RwB97XD) =  -3147.82967174     A.U. after   10 cycles
 SCF Done:  E(RwB97XD) =  -3147.82968523     A.U. after    9 cycles
 SCF Done:  E(RwB97XD) =  -3147.82968753     A.U. after    9 cycles
 SCF Done:  E(RwB97XD) =  -3147.82968814     A.U. after    9 cycles
 SCF Done:  E(RwB97XD) =  -3147.82968752     A.U. after    9 cycles
 SCF Done:  E(RwB97XD) =  -3147.82968834     A.U. after    8 cycles
 SCF Done:  E(RwB97XD) =  -3147.82968836     A.U. after    6 cycles
 SCF Done:  E(RwB97XD) =  -3147.82968835     A.U. after    6 cycles
 Optimization completed.
    -- Stationary point found.
 Normal termination of Gaussian 16 at Fri Feb 19 04:48:15 2021.

 ---------------------------------------------------------------------
 #N Geom=AllCheck Guess=TCheck SCRF=Check GenChk RwB97XD/def2TZVP Freq
 ---------------------------------------------------------------------

 Structure from the checkpoint file:  "/beegfs/scratch/user/q/tla25/Gau-7703.chk"
 ------------------------
 0_iteration/TS-655-0.out
 ------------------------
 Charge =  0 Multiplicity = 1

                         Standard orientation:
 ---------------------------------------------------------------------
 Center     Atomic      Atomic             Coordinates (Angstroms)
 Number     Number       Type             X           Y           Z
 ---------------------------------------------------------------------
      1          6           0       -0.986367   -1.146813    0.288195
      2          6           0        0.447423   -1.238761    0.355621
      3          8           0        1.016016   -2.263665    0.744227
      4          6           0       -1.711679   -0.021999   -0.058373
      5          6           0       -2.534339    2.452679    1.119031
      6          1           0       -2.596699    3.048440    2.029245
      7          1           0       -1.848955    2.934753    0.423527
      8          1           0       -3.519812    2.387634    0.663427
      9          7           0       -2.049083    1.101085    1.401935
     10          1           0       -1.143897    1.118072    1.859792
     11          1           0       -2.684414    0.585862    2.002420
     12         35           0       -3.526136   -0.320252   -0.663671
     13          1           0       -1.280417    0.767792   -0.662836
     14          1           0       -1.509651   -2.021715    0.647285
     15          7           0        1.180099   -0.127951   -0.037867
     16          6           0        2.564789    0.039364   -0.113541
     17          6           0        3.491845   -0.814612    0.487605
     18          6           0        4.849370   -0.547643    0.376104
     19          6           0        5.312989    0.558606   -0.318730
     20          6           0        4.391261    1.411225   -0.911707
     21          6           0        3.035749    1.155632   -0.813460
     22          1           0        0.660499    0.632930   -0.438272
     23          1           0        3.143583   -1.677174    1.030968
     24          1           0        5.553475   -1.222063    0.848314
     25          1           0        6.374230    0.755392   -0.397237
     26          1           0        4.727732    2.282696   -1.459520
     27          1           0        2.327575    1.827502   -1.285363
 ---------------------------------------------------------------------

 SCF Done:  E(RwB97XD) =  -3147.82968835     A.U. after    1 cycles

 The electronic state is 1-A.
 Alpha  occ. eigenvalues -- -483.13427 -62.68289 -56.47399 -56.47050 -56.47039
 Alpha  occ. eigenvalues --  -19.20041 -14.49735 -14.46144 -10.39213 -10.38297
 Alpha  occ. eigenvalues --  -10.33715 -10.32343 -10.28964 -10.28798 -10.28721
 Alpha  occ. eigenvalues --  -10.28127 -10.28047 -10.25472  -8.82409  -6.64553
 Alpha  occ. eigenvalues --   -6.63439  -6.63400  -2.74941  -2.74625  -2.74594
 Alpha  occ. eigenvalues --   -2.73693  -2.73693  -1.12938  -1.05076  -1.03638
 Alpha  occ. eigenvalues --   -0.95407  -0.92872  -0.86102  -0.84983  -0.82723
 Alpha  occ. eigenvalues --   -0.79536  -0.73767  -0.71382  -0.70182  -0.65444
 Alpha  occ. eigenvalues --   -0.64210  -0.62871  -0.59874  -0.58058  -0.56195
 Alpha  occ. eigenvalues --   -0.55072  -0.53632  -0.52562  -0.51818  -0.51415
 Alpha  occ. eigenvalues --   -0.50634  -0.48878  -0.48548  -0.47192  -0.46182
 Alpha  occ. eigenvalues --   -0.45373  -0.44507  -0.42718  -0.39338  -0.38097
 Alpha  occ. eigenvalues --   -0.37642  -0.33909  -0.33356  -0.30431  -0.27152
 Alpha virt. eigenvalues --    0.04236   0.05464   0.05563   0.07977   0.09880
 Alpha virt. eigenvalues --    0.12131   0.13847   0.14438   0.15520   0.16724
 Alpha virt. eigenvalues --    0.17088   0.17532   0.18090   0.18715   0.19466

 Mulliken charges:
               1
     1  C   -0.406551
     2  C    0.392973
     3  O   -0.545954
     4  C   -0.092008
     5  C   -0.276471
     6  H    0.160544
     7  H    0.155503
     8  H    0.154361
     9  N   -0.279511
    10  H    0.284322
    11  H    0.287497
    12  Br  -0.102962
    13  H    0.177654
    14  H    0.133583
    15  N   -0.265426
    16  C    0.293892
    17  C   -0.302819
    18  C   -0.101683
    19  C   -0.202253
    20  C   -0.100947
    21  C   -0.309776
    22  H    0.228463
    23  H    0.154745
    24  H    0.140478
    25  H    0.139663
    26  H    0.142461
    27  H    0.140222
 Sum of Mulliken charges =  -0.00000

 Dipole moment (field-independent basis, Debye):
    X=             -5.3216    Y=             10.2537    Z=              2.2663  Tot=             11.7726
 Quadrupole moment (field-independent basis, Debye-Ang):
   XX=            -92.2808   YY=            -99.8787   ZZ=            -91.9453
   XY=             -3.0146   XZ=            -11.2761   YZ=              3.9248

  Exact polarizability: 316.324 -14.632 222.439   3.176 -18.498 163.033
 Approx polarizability: 223.755  -9.041 185.520   4.885 -17.899 142.694

 ******    1 imaginary frequencies (negative Signs) ******

                      1                      2                      3
                      A                      A                      A
 Frequencies --   -369.1497                22.4448                30.5441
 Red. masses --      6.5213                 3.7273                 5.4080
 Frc consts  --      0.5236                 0.0011                 0.0030
 IR Inten    --   1060.3186                 1.5861                 2.0092

                      4                      5                      6
                      A                      A                      A
 Frequencies --     61.4598                69.4007                98.3397
 Red. masses --      3.9919                 5.4096                 5.1935
 Frc consts  --      0.0089                 0.0154                 0.0296
 IR Inten    --      0.3012                 5.9223                 6.2266

                      7                      8                      9
                      A                      A                      A
 Frequencies --    102.9596               160.3359               177.0343
 Red. masses --      2.5891                 4.4431                 1.3452
 Frc consts  --      0.0162                 0.0673                 0.0248
 IR Inten    --      2.2170                 2.6188                 4.0290

                     10                     11                     12
                      A                      A                      A
 Frequencies --    190.3994               237.8068               245.3520
 Red. masses --      3.8461                 4.9062                 4.5235
 Frc consts  --      0.0821                 0.1635                 0.1604
 IR Inten    --     12.5371                 1.8734                 2.7422

                     13                     14                     15
                      A                      A                      A
 Frequencies --    296.5072               350.4666               421.2242
 Red. masses --      2.8943                 6.4191                 4.8943
 Frc consts  --      0.1499                 0.4645                 0.5116
 IR Inten    --      5.2899                 6.9875                33.8248

                     16                     17                     18
                      A                      A                      A
 Frequencies --    423.7665               445.4181               526.4332
 Red. masses --      3.4813                 3.3187                 2.4584
 Frc consts  --      0.3683                 0.3879                 0.4014
 IR Inten    --     13.0637                64.4218                81.7485

                     19                     20                     21
                      A                      A                      A
 Frequencies --    531.4945               574.5028               633.7698
 Red. masses --      1.3673                 4.6992                 5.3629
 Frc consts  --      0.2276                 0.9138                 1.2691
 IR Inten    --    133.6768                45.9016                 5.3481

                     22                     23                     24
                      A                      A                      A
 Frequencies --    646.4239               678.4009               711.1315
 Red. masses --      1.9877                 1.4997                 3.6928
 Frc consts  --      0.4894                 0.4067                 1.1003
 IR Inten    --     57.2009                33.5926                21.6012

                     25                     26                     27
                      A                      A                      A
 Frequencies --    718.0322               780.8551               784.2708
 Red. masses --      1.9142                 2.0489                 3.0777
 Frc consts  --      0.5815                 0.7361                 1.1154
 IR Inten    --     68.7050                23.7468               163.2421

                     28                     29                     30
                      A                      A                      A
 Frequencies --    795.0555               859.5548               879.6092
 Red. masses --      2.6989                 1.2655                 5.2692
 Frc consts  --      1.0052                 0.5509                 2.4020
 IR Inten    --    199.5129                 0.4079                19.3776

                     31                     32                     33
                      A                      A                      A
 Frequencies --    929.9708               990.7162               999.7772
 Red. masses --      1.4810                 4.2597                 1.3483
 Frc consts  --      0.7546                 2.4634                 0.7940
 IR Inten    --     12.6582                15.5214                 0.1978

                     34                     35                     36
                      A                      A                      A
 Frequencies --   1014.3605              1015.4340              1020.1408
 Red. masses --      1.1531                 1.2777                 5.2549
 Frc consts  --      0.6991                 0.7762                 3.2221
 IR Inten    --     21.9210                 0.8172                 8.4528

                     37                     38                     39
                      A                      A                      A
 Frequencies --   1048.3192              1065.1016              1077.2981
 Red. masses --      1.5777                 2.0509                 2.1735
 Frc consts  --      1.0216                 1.3708                 1.4862
 IR Inten    --     11.1680                10.8393               288.1751

                     40                     41                     42
                      A                      A                      A
 Frequencies --   1121.5073              1168.5706              1182.0039
 Red. masses --      1.5231                 1.1397                 1.1175
 Frc consts  --      1.1287                 0.9169                 0.9199
 IR Inten    --     11.3964               128.7694                 3.8949

                     43                     44                     45
                      A                      A                      A
 Frequencies --   1209.6344              1239.5209              1243.1722
 Red. masses --      1.1334                 1.3152                 1.3314
 Frc consts  --      0.9771                 1.1906                 1.2123
 IR Inten    --     33.0511               224.7321               164.7444

                     46                     47                     48
                      A                      A                      A
 Frequencies --   1269.6620              1279.1120              1289.6190
 Red. masses --      2.0228                 1.6053                 4.1887
 Frc consts  --      1.9212                 1.5475                 4.1044
 IR Inten    --    632.4303                82.4110                50.6460

                     49                     50                     51
                      A                      A                      A
 Frequencies --   1342.3891              1344.9957              1362.0738
 Red. masses --      1.3313                 3.5017                 1.6198
 Frc consts  --      1.4135                 3.7322                 1.7706
 IR Inten    --     17.6533               539.7632                 4.1184

                     52                     53                     54
                      A                      A                      A
 Frequencies --   1455.4102              1472.0881              1475.2753
 Red. masses --      1.5526                 1.8679                 2.0768
 Frc consts  --      1.9377                 2.3849                 2.6632
 IR Inten    --    348.7493               415.8424               336.1126

                     55                     56                     57
                      A                      A                      A
 Frequencies --   1493.2079              1504.2118              1546.0467
 Red. masses --      1.0408                 1.0391                 2.4301
 Frc consts  --      1.3673                 1.3853                 3.4223
 IR Inten    --     18.8842                 5.7294               204.0654

                     58                     59                     60
                      A                      A                      A
 Frequencies --   1562.8623              1643.9449              1656.5672
 Red. masses --      2.0644                 1.0942                 6.9460
 Frc consts  --      2.9709                 1.7422                11.2305
 IR Inten    --    476.6692                56.7920               329.1016

                     61                     62                     63
                      A                      A                      A
 Frequencies --   1669.4004              1679.4172              3073.8176
 Red. masses --      3.9807                 5.5752                 1.0333
 Frc consts  --      6.5363                 9.2646                 5.7524
 IR Inten    --    219.2337               769.5520                36.5992

                     64                     65                     66
                      A                      A                      A
 Frequencies --   3152.9534              3173.7104              3175.8554
 Red. masses --      1.1058                 1.0966                 1.1006
 Frc consts  --      6.4770                 6.5076                 6.5401
 IR Inten    --     13.4703                13.4423                 4.3637

                     67                     68                     69
                      A                      A                      A
 Frequencies --   3182.7687              3194.6544              3204.4878
 Red. masses --      1.0886                 1.0880                 1.0929
 Frc consts  --      6.4970                 6.5423                 6.6122
 IR Inten    --     16.1395                 3.2584                30.4501

                     70                     71                     72
                      A                      A                      A
 Frequencies --   3220.0745              3220.2412              3271.5697
 Red. masses --      1.0894                 1.0968                 1.0923
 Frc consts  --      6.6554                 6.7010                 6.8879
 IR Inten    --      8.8942                17.0835                 3.9284

                     73                     74                     75
                      A                      A                      A
 Frequencies --   3512.4992              3594.9032              3660.6263
 Red. masses --      1.0512                 1.0969                 1.0760
 Frc consts  --      7.6412                 8.3520                 8.4950
 IR Inten    --     28.7535                54.9284                26.0850

 - Thermochemistry -
 -------------------
 Temperature   298.150 Kelvin.  Pressure   1.00000 Atm.
 Atom     1 has atomic number  6 and mass  12.00000

 Molecular mass:   256.02112 amu.
 Principal axes and moments of inertia in atomic units:
                           1         2         3
     Eigenvalues --  1580.233269504.48148**********
           X            0.99981  -0.00990  -0.01659
           Y            0.00995   0.99995   0.00268
           Z            0.01656  -0.00285   0.99986
 This molecule is an asymmetric top.
 Rotational symmetry number  1.
 Warning -- assumption of classical behavior for rotation
           may cause significant error
 Rotational temperatures (Kelvin)      0.05481     0.00911     0.00853
 Rotational constants (GHZ):           1.14207     0.18988     0.17777
    1 imaginary frequencies ignored.
 Zero-point vibrational energy     576976.7 (Joules/Mol)
                                  137.90073 (Kcal/Mol)
 Warning -- explicit consideration of  19 degrees of freedom as
           vibrations may cause significant error
 Vibrational temperatures:     32.29    43.95    88.43    99.85   141.49
          (Kelvin)            148.14   230.69   254.71   273.94   342.15
                              353.01   426.61   504.24   606.05   609.71
                              640.86   757.42   764.70   826.58   911.85
                              930.06   976.07  1023.16  1033.09  1123.48
                             1128.39  1143.91  1236.71  1265.56  1338.02
                             1425.42  1438.46  1459.44  1460.98  1467.76
                             1508.30  1532.44  1549.99  1613.60  1681.31
                             1700.64  1740.39  1783.39  1788.65  1826.76
                             1840.36  1855.47  1931.40  1935.15  1959.72
                             2094.01  2118.01  2122.59  2148.39  2164.23
                             2224.42  2248.61  2365.27  2383.43  2401.89
                             2416.31  4422.54  4536.40  4566.26  4569.35
                             4579.29  4596.40  4610.54  4632.97  4633.21
                             4707.06  5053.70  5172.26  5266.82

 Zero-point correction=                           0.219759 (Hartree/Particle)
 Thermal correction to Energy=                    0.233950
 Thermal correction to Enthalpy=                  0.234894
 Thermal correction to Gibbs Free Energy=         0.175453
 Sum of electronic and zero-point Energies=          -3147.609930
 Sum of electronic and thermal Energies=             -3147.595739
 Sum of electronic and thermal Enthalpies=           -3147.594795
 Sum of electronic and thermal Free Energies=        -3147.654236

                     E (Thermal)             CV                S
                      KCal/Mol        Cal/Mol-Kelvin    Cal/Mol-Kelvin
 Total                  146.806             51.390            125.105
 Electronic               0.000              0.000              0.000
 Translational            0.889              2.981             42.520
 Rotational               0.889              2.981             33.388
 Vibrational            145.028             45.429             49.196
 Vibration     1          0.593              1.985              6.405
 Vibration     2          0.594              1.984              5.794
 Vibration     3          0.597              1.973              4.410
 Vibration     4          0.598              1.969              4.170
 Vibration     5          0.604              1.950              3.487
 Vibration     6          0.605              1.947              3.398
 Vibration     7          0.622              1.891              2.546
 Vibration     8          0.628              1.871              2.359
 Vibration     9          0.634              1.853              2.224
 Vibration    10          0.656              1.783              1.819
 Vibration    11          0.660              1.770              1.764
 Vibration    12          0.690              1.680              1.437
 Vibration    13          0.727              1.574              1.164
 Vibration    14          0.784              1.424              0.888
 Vibration    15          0.786              1.419              0.879
 Vibration    16          0.805              1.371              0.810
 Vibration    17          0.881              1.191              0.595
 Vibration    18          0.886              1.180              0.584
 Vibration    19          0.931              1.086              0.496

 Optimization completed.
    -- Stationary point found.
 Normal termination of Gaussian 16 at Fri Feb 19 05:27:58 2021.
