 Gaussian 16, Revision A.03,
 Gaussian 16:  ES64L-G16RevA.03 25-Dec-2016

 ----------------------------------------------------------------------
 # wB97XD def2tzvp, opt=(ts, noeigen, calcfc, maxcycles=70, maxstep=8),
  freq=noraman, scrf=(iefpcm, solvent=water)
 ----------------------------------------------------------------------

 ------------------------
 1_iteration/TS-633-1.out
 ------------------------
 Symbolic Z-matrix:
 Charge =  0 Multiplicity = 1

 SCF Done:  E(RwB97XD) =  -3552.05642400     A.U. after   15 cycles
 Optimization completed.
    -- Stationary point found.
 Normal termination of Gaussian 16 at Sat Feb 20 09:35:49 2021.

 ---------------------------------------------------------------------
 #N Geom=AllCheck Guess=TCheck SCRF=Check GenChk RwB97XD/def2TZVP Freq
 ---------------------------------------------------------------------

 Structure from the checkpoint file:  "/beegfs/scratch/user/q/tla25/Gau-82960.chk"
 ------------------------
 1_iteration/TS-633-1.out
 ------------------------
 Charge =  0 Multiplicity = 1

                         Standard orientation:
 ---------------------------------------------------------------------
 Center     Atomic      Atomic             Coordinates (Angstroms)
 Number     Number       Type             X           Y           Z
 ---------------------------------------------------------------------
      1          6           0        1.023558    0.850803   -0.519209
      2          6           0        0.494316    2.039072   -1.103949
      3          8           0        1.147815    2.940543   -1.615319
      4          6           0        0.247740   -0.140988    0.069571
      5          6           0        0.931358    1.237343    2.534261
      6          1           0        1.023107    1.930243    1.691291
      7          1           0        0.133107    1.578792    3.188201
      8          1           0        1.869488    1.241424    3.084611
      9          7           0        0.639149   -0.095178    2.014581
     10          1           0       -0.133100   -0.548029    2.488251
     11          1           0        1.443050   -0.705867    2.079981
     12         35           0        0.855872   -1.991507   -0.151939
     13          6           0       -1.246791   -0.026780    0.008971
     14          6           0       -1.969510   -0.749961   -0.937229
     15          6           0       -3.341110   -0.593813   -1.044779
     16          6           0       -4.014371    0.280576   -0.204269
     17          6           0       -3.302882    1.006927    0.736971
     18          6           0       -1.928872    0.857409    0.839821
     19          1           0       -1.458319   -1.433761   -1.600769
     20          1           0       -3.884519   -1.160434   -1.789619
     21          1           0       -5.087411    0.396274   -0.284799
     22          1           0       -3.813733    1.697926    1.394621
     23          1           0       -1.392703    1.453819    1.563171
     24         17           0        2.760798    0.690295   -0.521429
     25          1           0       -0.605254    2.095741   -1.093299
 ---------------------------------------------------------------------

 SCF Done:  E(RwB97XD) =  -3552.05642400     A.U. after    1 cycles

 The electronic state is 1-A.
 Alpha  occ. eigenvalues -- -483.13854-101.69625 -62.68694 -56.47816 -56.47458
 Alpha  occ. eigenvalues --  -56.47440 -19.22221 -14.49362 -10.41525 -10.36126
 Alpha  occ. eigenvalues --  -10.32850 -10.32380 -10.32186 -10.30477 -10.30295
 Alpha  occ. eigenvalues --  -10.29962 -10.29901 -10.29858  -9.58155  -8.82794
 Alpha  occ. eigenvalues --   -7.32790  -7.31947  -7.31922  -6.64957  -6.63822
 Alpha  occ. eigenvalues --   -6.63764  -2.75338  -2.75026  -2.74980  -2.74062
 Alpha  occ. eigenvalues --   -2.74062  -1.12765  -1.04892  -0.99367  -0.97166
 Alpha  occ. eigenvalues --   -0.92303  -0.87334  -0.86178  -0.83457  -0.79608
 Alpha  occ. eigenvalues --   -0.74712  -0.71744  -0.70290  -0.65289  -0.63386
 Alpha  occ. eigenvalues --   -0.60997  -0.58537  -0.58158  -0.56491  -0.55990
 Alpha  occ. eigenvalues --   -0.53913  -0.53250  -0.51941  -0.50078  -0.49548
 Alpha  occ. eigenvalues --   -0.48842  -0.48306  -0.47283  -0.45493  -0.44201
 Alpha  occ. eigenvalues --   -0.43518  -0.42038  -0.40580  -0.38041  -0.37770
 Alpha  occ. eigenvalues --   -0.35295  -0.34593  -0.33031  -0.29340
 Alpha virt. eigenvalues --    0.00042   0.03596   0.04249   0.06452   0.10586
 Alpha virt. eigenvalues --    0.11859   0.12891   0.13396   0.14049   0.14427
 Alpha virt. eigenvalues --    0.16149   0.16842   0.17771   0.18026   0.20054

 Mulliken charges:
               1
     1  C   -0.113590
     2  C    0.084955
     3  O   -0.464942
     4  C    0.245139
     5  C   -0.306642
     6  H    0.152853
     7  H    0.168084
     8  H    0.168159
     9  N   -0.355598
    10  H    0.303068
    11  H    0.287270
    12  Br  -0.085664
    13  C    0.046210
    14  C   -0.225961
    15  C   -0.138308
    16  C   -0.135043
    17  C   -0.147920
    18  C   -0.219268
    19  H    0.155946
    20  H    0.149552
    21  H    0.150476
    22  H    0.149281
    23  H    0.161822
    24  Cl  -0.142045
    25  H    0.112167
 Sum of Mulliken charges =  -0.00000

 Dipole moment (field-independent basis, Debye):
    X=             -5.5786    Y=             -4.3849    Z=              8.6042  Tot=             11.1527
 Quadrupole moment (field-independent basis, Debye-Ang):
   XX=            -97.4994   YY=           -117.3410   ZZ=            -91.6711
   XY=            -10.5133   XZ=             10.8863   YZ=             14.6874

  Exact polarizability: 259.446  -2.104 233.529  -1.254   0.310 211.140
 Approx polarizability: 203.703  -2.710 195.275  -1.121   3.362 179.165

 ******    1 imaginary frequencies (negative Signs) ******

                      1                      2                      3
                      A                      A                      A
 Frequencies --   -317.8250                35.7213                72.3798
 Red. masses --      6.0934                 4.5314                 8.2296
 Frc consts  --      0.3626                 0.0034                 0.0254
 IR Inten    --    575.5994                 1.8420                 1.8084

                      4                      5                      6
                      A                      A                      A
 Frequencies --     76.5849                97.2218               131.4027
 Red. masses --      6.5604                 3.2540                 2.6259
 Frc consts  --      0.0227                 0.0181                 0.0267
 IR Inten    --      1.6972                 5.4346                 6.6980

                      7                      8                      9
                      A                      A                      A
 Frequencies --    143.0117               157.8285               170.3706
 Red. masses --      3.5549                 2.9178                 1.9207
 Frc consts  --      0.0428                 0.0428                 0.0328
 IR Inten    --      1.3929                 3.1084                 2.2301

                     10                     11                     12
                      A                      A                      A
 Frequencies --    198.4506               222.9940               276.7296
 Red. masses --      3.5716                 9.5080                 3.7927
 Frc consts  --      0.0829                 0.2786                 0.1711
 IR Inten    --      1.7361                12.4003                 6.0442

                     13                     14                     15
                      A                      A                      A
 Frequencies --    277.3677               286.0809               305.6475
 Red. masses --      5.2260                 6.9945                 4.2118
 Frc consts  --      0.2369                 0.3373                 0.2318
 IR Inten    --      6.6579                 2.8873                13.1951

                     16                     17                     18
                      A                      A                      A
 Frequencies --    333.7526               408.9180               420.8251
 Red. masses --      4.5331                 4.6360                 2.9273
 Frc consts  --      0.2975                 0.4567                 0.3054
 IR Inten    --     61.3269                 6.2228                 0.2536

                     19                     20                     21
                      A                      A                      A
 Frequencies --    506.7873               571.2650               600.1768
 Red. masses --      4.0348                 2.4868                 2.9425
 Frc consts  --      0.6106                 0.4782                 0.6245
 IR Inten    --     21.3665                68.3606                98.7432

                     22                     23                     24
                      A                      A                      A
 Frequencies --    637.7833               657.5901               674.6742
 Red. masses --      6.0848                 3.7074                 5.3115
 Frc consts  --      1.4583                 0.9446                 1.4245
 IR Inten    --     18.2740                97.6530                43.7638

                     25                     26                     27
                      A                      A                      A
 Frequencies --    724.0407               757.7833               826.8568
 Red. masses --      1.7940                 2.6046                 3.2909
 Frc consts  --      0.5541                 0.8812                 1.3256
 IR Inten    --     45.3850               275.9499                34.8997

                     28                     29                     30
                      A                      A                      A
 Frequencies --    876.3855               889.0486               969.2231
 Red. masses --      1.2512                 5.7722                 1.4307
 Frc consts  --      0.5662                 2.6881                 0.7919
 IR Inten    --      0.2972                60.9899                 1.7690

                     31                     32                     33
                      A                      A                      A
 Frequencies --   1016.8192              1018.4324              1026.7244
 Red. masses --      1.4032                 1.6259                 4.3611
 Frc consts  --      0.8548                 0.9936                 2.7086
 IR Inten    --      0.7832                 0.7746                 3.1719

                     34                     35                     36
                      A                      A                      A
 Frequencies --   1034.0942              1037.3493              1054.1787
 Red. masses --      1.1785                 1.3237                 1.9416
 Frc consts  --      0.7425                 0.8392                 1.2712
 IR Inten    --     51.6265                 1.1211               116.6215

                     37                     38                     39
                      A                      A                      A
 Frequencies --   1069.7785              1092.2074              1132.6721
 Red. masses --      2.2408                 1.6219                 1.5981
 Frc consts  --      1.5109                 1.1399                 1.2080
 IR Inten    --      6.4702                12.6152                 3.9752

                     40                     41                     42
                      A                      A                      A
 Frequencies --   1183.3539              1189.6515              1203.4892
 Red. masses --      1.4372                 1.1396                 4.0853
 Frc consts  --      1.1858                 0.9502                 3.4862
 IR Inten    --     29.2994                 0.5050                27.9396

                     43                     44                     45
                      A                      A                      A
 Frequencies --   1230.0958              1249.7497              1314.7553
 Red. masses --      1.1714                 3.8353                 1.3940
 Frc consts  --      1.0443                 3.5293                 1.4197
 IR Inten    --     22.9828               569.2313                 6.9887

                     46                     47                     48
                      A                      A                      A
 Frequencies --   1325.0346              1376.8734              1394.5051
 Red. masses --      4.0567                 1.3687                 2.1073
 Frc consts  --      4.1964                 1.5288                 2.4145
 IR Inten    --      7.3225                 5.3769               398.2174

                     49                     50                     51
                      A                      A                      A
 Frequencies --   1454.5969              1477.6993              1492.0616
 Red. masses --      1.2288                 2.0621                 2.2203
 Frc consts  --      1.5319                 2.6529                 2.9123
 IR Inten    --     70.6754               261.4111                53.3966

                     52                     53                     54
                      A                      A                      A
 Frequencies --   1497.1762              1504.4892              1549.9598
 Red. masses --      1.0682                 1.0339                 2.2463
 Frc consts  --      1.4107                 1.3788                 3.1794
 IR Inten    --     17.8665                14.8350                25.7800

                     55                     56                     57
                      A                      A                      A
 Frequencies --   1646.0566              1652.9586              1674.3184
 Red. masses --      1.0865                 5.5363                 5.7603
 Frc consts  --      1.7345                 8.9124                 9.5143
 IR Inten    --     68.4201                 5.1271                 6.7849

                     58                     59                     60
                      A                      A                      A
 Frequencies --   1685.3672              3002.3014              3039.7158
 Red. masses --      8.8083                 1.0835                 1.0473
 Frc consts  --     14.7412                 5.7540                 5.7013
 IR Inten    --   1061.4986                82.6686                24.2552

                     61                     62                     63
                      A                      A                      A
 Frequencies --   3134.6055              3179.0648              3203.5995
 Red. masses --      1.0871                 1.1072                 1.0866
 Frc consts  --      6.2934                 6.5930                 6.5706
 IR Inten    --     10.7644                13.0372                 0.1103

                     64                     65                     66
                      A                      A                      A
 Frequencies --   3213.0412              3222.9835              3230.7300
 Red. masses --      1.0902                 1.0942                 1.0965
 Frc consts  --      6.6312                 6.6967                 6.7429
 IR Inten    --      9.1794                18.6315                 9.1801

                     67                     68                     69
                      A                      A                      A
 Frequencies --   3250.7575              3539.9090              3622.2455
 Red. masses --      1.0916                 1.0514                 1.0968
 Frc consts  --      6.7967                 7.7627                 8.4786
 IR Inten    --      4.9832                76.4818                61.5608

 - Thermochemistry -
 -------------------
 Temperature   298.150 Kelvin.  Pressure   1.00000 Atm.
 Atom     1 has atomic number  6 and mass  12.00000

 Molecular mass:   274.97125 amu.
 Principal axes and moments of inertia in atomic units:
                           1         2         3
     Eigenvalues --  3162.389574638.920045749.87842
           X            0.99950   0.02201   0.02260
           Y           -0.02306   0.99862   0.04726
           Z           -0.02153  -0.04776   0.99863
 This molecule is an asymmetric top.
 Rotational symmetry number  1.
 Warning -- assumption of classical behavior for rotation
           may cause significant error
 Rotational temperatures (Kelvin)      0.02739     0.01867     0.01506
 Rotational constants (GHZ):           0.57069     0.38904     0.31387
    1 imaginary frequencies ignored.
 Zero-point vibrational energy     505603.5 (Joules/Mol)
                                  120.84214 (Kcal/Mol)
 Warning -- explicit consideration of  20 degrees of freedom as
           vibrations may cause significant error
 Vibrational temperatures:     51.40   104.14   110.19   139.88   189.06
          (Kelvin)            205.76   227.08   245.13   285.53   320.84
                              398.15   399.07   411.61   439.76   480.20
                              588.34   605.47   729.15   821.92   863.52
                              917.63   946.13   970.71  1041.73  1090.28
                             1189.66  1260.92  1279.14  1394.50  1462.98
                             1465.30  1477.23  1487.83  1492.51  1516.73
                             1539.17  1571.44  1629.66  1702.58  1711.64
                             1731.55  1769.83  1798.11  1891.64  1906.43
                             1981.01  2006.38  2092.84  2126.08  2146.74
                             2154.10  2164.62  2230.05  2368.31  2378.24
                             2408.97  2424.87  4319.64  4373.47  4510.00
                             4573.97  4609.27  4622.85  4637.15  4648.30
                             4677.11  5093.14  5211.60

 Zero-point correction=                           0.192574 (Hartree/Particle)
 Thermal correction to Energy=                    0.206762
 Thermal correction to Enthalpy=                  0.207706
 Thermal correction to Gibbs Free Energy=         0.150083
 Sum of electronic and zero-point Energies=          -3551.863850
 Sum of electronic and thermal Energies=             -3551.849662
 Sum of electronic and thermal Enthalpies=           -3551.848718
 Sum of electronic and thermal Free Energies=        -3551.906341

                     E (Thermal)             CV                S
                      KCal/Mol        Cal/Mol-Kelvin    Cal/Mol-Kelvin
 Total                  129.745             51.066            121.278
 Electronic               0.000              0.000              0.000
 Translational            0.889              2.981             42.733
 Rotational               0.889              2.981             32.800
 Vibrational            127.968             45.104             45.744
 Vibration     1          0.594              1.982              5.483
 Vibration     2          0.598              1.967              4.088
 Vibration     3          0.599              1.965              3.977
 Vibration     4          0.603              1.951              3.509
 Vibration     5          0.612              1.922              2.925
 Vibration     6          0.616              1.910              2.763
 Vibration     7          0.621              1.894              2.576
 Vibration     8          0.625              1.879              2.431
 Vibration     9          0.637              1.842              2.147
 Vibration    10          0.649              1.806              1.935
 Vibration    11          0.678              1.716              1.554
 Vibration    12          0.678              1.715              1.550
 Vibration    13          0.684              1.700              1.497
 Vibration    14          0.696              1.663              1.386
 Vibration    15          0.715              1.608              1.242
 Vibration    16          0.773              1.451              0.930
 Vibration    17          0.783              1.425              0.889
 Vibration    18          0.862              1.235              0.641
 Vibration    19          0.927              1.093              0.502
 Vibration    20          0.958              1.031              0.449

 Optimization completed.
    -- Stationary point found.
 Normal termination of Gaussian 16 at Sat Feb 20 10:24:27 2021.
