 Gaussian 16, Revision A.03,
 Gaussian 16:  ES64L-G16RevA.03 25-Dec-2016

 ----------------------------------------------------------------------
 # wB97XD def2tzvp, opt=(ts, noeigen, calcfc, maxcycles=70, maxstep=8),
  freq=noraman, scrf=(iefpcm, solvent=water)
 ----------------------------------------------------------------------

 -----------------------
 1_iteration/TS-63-1.out
 -----------------------
 Symbolic Z-matrix:
 Charge =  0 Multiplicity = 1

 SCF Done:  E(RwB97XD) =  -844.584514865     A.U. after   15 cycles
 SCF Done:  E(RwB97XD) =  -844.584514909     A.U. after    7 cycles
 Optimization completed.
    -- Stationary point found.
 Normal termination of Gaussian 16 at Mon Mar 29 11:13:32 2021.

 ---------------------------------------------------------------------
 #N Geom=AllCheck Guess=TCheck SCRF=Check GenChk RwB97XD/def2TZVP Freq
 ---------------------------------------------------------------------

 Structure from the checkpoint file:  "/beegfs/scratch/user/q/tla25/Gau-72004.chk"
 -----------------------
 1_iteration/TS-63-1.out
 -----------------------
 Charge =  0 Multiplicity = 1

                         Standard orientation:
 ---------------------------------------------------------------------
 Center     Atomic      Atomic             Coordinates (Angstroms)
 Number     Number       Type             X           Y           Z
 ---------------------------------------------------------------------
      1          6           0       -0.622993   -0.936596   -0.692979
      2          6           0        0.777752   -0.891626   -0.937331
      3          8           0        1.423065   -1.794526   -1.496331
      4          6           0       -1.236451   -0.073095    0.257244
      5          6           0        0.110624   -1.192116    2.316732
      6          1           0        0.083160   -1.743067    3.254911
      7          1           0        0.544755   -1.816867    1.537664
      8          1           0        0.715512   -0.295407    2.431947
      9          7           0       -1.237460   -0.808774    1.897540
     10          1           0       -1.845837   -1.619643    1.867993
     11          1           0       -1.654164   -0.141887    2.539131
     12          6           0       -2.669439    0.344489    0.104554
     13          6           0       -3.740395   -0.543459    0.176841
     14          6           0       -5.042291   -0.098475    0.001166
     15          6           0       -5.295303    1.241047   -0.254238
     16          6           0       -4.236957    2.135498   -0.324338
     17          6           0       -2.937676    1.689720   -0.138918
     18          1           0       -3.569521   -1.595078    0.368939
     19          1           0       -5.861237   -0.803913    0.062786
     20          1           0       -6.311703    1.586642   -0.393237
     21          1           0       -4.422650    3.184630   -0.516667
     22          1           0       -2.116586    2.395632   -0.188122
     23          1           0       -0.636434    0.784661    0.540311
     24          6           0       -1.385308   -2.091815   -1.285851
     25          1           0       -2.339419   -1.779893   -1.718869
     26          1           0       -0.792666   -2.553098   -2.074326
     27          1           0       -1.612108   -2.883236   -0.558440
     28          7           0        1.462800    0.280489   -0.552362
     29          6           0        2.818116    0.426723   -0.300931
     30          6           0        3.357264    1.718452   -0.284435
     31          6           0        4.692389    1.926971    0.015265
     32          6           0        5.528211    0.855745    0.300284
     33          6           0        4.997431   -0.426832    0.286812
     34          6           0        3.660932   -0.649671   -0.005097
     35          1           0        0.934202    1.133468   -0.550092
     36          1           0        2.716686    2.564127   -0.509073
     37          1           0        5.081702    2.937813    0.021567
     38          1           0        6.573350    1.017858    0.529521
     39          1           0        5.632124   -1.275418    0.512903
     40          1           0        3.263507   -1.652899   -0.013133
 ---------------------------------------------------------------------

 SCF Done:  E(RwB97XD) =  -844.584514909     A.U. after    1 cycles

 The electronic state is 1-A.
 Alpha  occ. eigenvalues --  -19.18716 -14.50383 -14.44465 -10.36387 -10.34209
 Alpha  occ. eigenvalues --  -10.33091 -10.32105 -10.30607 -10.29488 -10.29388
 Alpha  occ. eigenvalues --  -10.29328 -10.29273 -10.29162 -10.28653 -10.28538
 Alpha  occ. eigenvalues --  -10.28188 -10.27729 -10.27692 -10.26052 -10.24681
 Alpha  occ. eigenvalues --   -1.11273  -1.05756  -1.02299  -0.97322  -0.94708
 Alpha  occ. eigenvalues --   -0.90452  -0.85653  -0.85464  -0.84611  -0.83116
 Alpha  occ. eigenvalues --   -0.79965  -0.78175  -0.74017  -0.71017  -0.70834
 Alpha  occ. eigenvalues --   -0.69405  -0.67555  -0.64933  -0.63311  -0.62059
 Alpha  occ. eigenvalues --   -0.61213  -0.58568  -0.57512  -0.56745  -0.56101
 Alpha  occ. eigenvalues --   -0.55157  -0.53395  -0.52671  -0.51823  -0.51404
 Alpha  occ. eigenvalues --   -0.51094  -0.50292  -0.49566  -0.48883  -0.48604
 Alpha  occ. eigenvalues --   -0.48442  -0.47035  -0.45941  -0.44801  -0.44386
 Alpha  occ. eigenvalues --   -0.44015  -0.43700  -0.42856  -0.42339  -0.42023
 Alpha  occ. eigenvalues --   -0.38443  -0.34140  -0.34003  -0.33536  -0.32226
 Alpha  occ. eigenvalues --   -0.28976  -0.24909
 Alpha virt. eigenvalues --    0.03595   0.04923   0.05770   0.06412   0.09053
 Alpha virt. eigenvalues --    0.10243   0.11917   0.12976   0.13370   0.14249
 Alpha virt. eigenvalues --    0.14794   0.15350   0.16491   0.17133   0.17410

 Mulliken charges:
               1
     1  C   -0.200760
     2  C    0.245942
     3  O   -0.550903
     4  C   -0.100874
     5  C   -0.304799
     6  H    0.169158
     7  H    0.163401
     8  H    0.157106
     9  N   -0.234209
    10  H    0.286980
    11  H    0.294331
    12  C    0.309809
    13  C   -0.331121
    14  C   -0.134278
    15  C   -0.161292
    16  C   -0.131763
    17  C   -0.250555
    18  H    0.172129
    19  H    0.144814
    20  H    0.145343
    21  H    0.144364
    22  H    0.143841
    23  H    0.141397
    24  C   -0.421086
    25  H    0.132460
    26  H    0.130131
    27  H    0.108867
    28  N   -0.276888
    29  C    0.306415
    30  C   -0.333810
    31  C   -0.091172
    32  C   -0.214103
    33  C   -0.090577
    34  C   -0.308151
    35  H    0.249967
    36  H    0.135492
    37  H    0.139297
    38  H    0.136939
    39  H    0.138235
    40  H    0.139922
 Sum of Mulliken charges =  -0.00000

 Dipole moment (field-independent basis, Debye):
    X=             -7.8156    Y=              3.4427    Z=              9.7934  Tot=             12.9940
 Quadrupole moment (field-independent basis, Debye-Ang):
   XX=           -115.9853   YY=           -113.9750   ZZ=           -119.5489
   XY=              7.5843   XZ=              0.7829   YZ=            -14.9210

  Exact polarizability: 414.438  -1.700 306.710   2.724  -1.182 222.897
 Approx polarizability: 296.846  -2.598 260.294   3.461  -1.456 189.831

 ******    1 imaginary frequencies (negative Signs) ******

                      1                      2                      3
                      A                      A                      A
 Frequencies --   -349.9216                19.1796                30.0309
 Red. masses --      6.0989                 4.6135                 4.0783
 Frc consts  --      0.4400                 0.0010                 0.0022
 IR Inten    --    924.4587                 2.4731                 0.8452

                      4                      5                      6
                      A                      A                      A
 Frequencies --     38.4356                60.9228                77.1072
 Red. masses --      4.4735                 3.5518                 3.0641
 Frc consts  --      0.0039                 0.0078                 0.0107
 IR Inten    --      0.1495                 3.5616                 4.1248

                      7                      8                      9
                      A                      A                      A
 Frequencies --     82.7996               106.1848               130.9431
 Red. masses --      3.4119                 4.2547                 4.0938
 Frc consts  --      0.0138                 0.0283                 0.0414
 IR Inten    --      0.8654                 6.3099                 1.6491

                     10                     11                     12
                      A                      A                      A
 Frequencies --    140.4850               174.1730               191.1476
 Red. masses --      3.3848                 4.0321                 1.4372
 Frc consts  --      0.0394                 0.0721                 0.0309
 IR Inten    --     11.5853                12.1116                 4.2217

                     13                     14                     15
                      A                      A                      A
 Frequencies --    207.0819               231.5218               250.2235
 Red. masses --      1.2387                 1.9683                 4.5377
 Frc consts  --      0.0313                 0.0622                 0.1674
 IR Inten    --      1.0885                 8.8891                 5.9440

                     16                     17                     18
                      A                      A                      A
 Frequencies --    286.0230               305.1954               320.3158
 Red. masses --      3.3332                 3.1166                 4.0244
 Frc consts  --      0.1607                 0.1710                 0.2433
 IR Inten    --      3.5112                17.6731                16.7662

                     19                     20                     21
                      A                      A                      A
 Frequencies --    342.5740               363.1965               410.1284
 Red. masses --      4.2569                 4.1343                 4.5828
 Frc consts  --      0.2943                 0.3213                 0.4542
 IR Inten    --     25.2476                18.7954                 7.6458

                     22                     23                     24
                      A                      A                      A
 Frequencies --    424.1329               426.8671               432.2580
 Red. masses --      2.8462                 2.8442                 1.2307
 Frc consts  --      0.3017                 0.3054                 0.1355
 IR Inten    --      1.9364                 6.7195               145.1189

                     25                     26                     27
                      A                      A                      A
 Frequencies --    494.8956               522.9370               564.0419
 Red. masses --      3.5830                 2.7835                 2.7432
 Frc consts  --      0.5170                 0.4485                 0.5142
 IR Inten    --     37.2408                12.2168               175.9146

                     28                     29                     30
                      A                      A                      A
 Frequencies --    602.1766               634.3285               637.5831
 Red. masses --      5.1904                 6.0203                 6.2397
 Frc consts  --      1.1089                 1.4272                 1.4945
 IR Inten    --     23.1483                 4.9608                17.4019

                     31                     32                     33
                      A                      A                      A
 Frequencies --    639.0816               671.5263               715.9794
 Red. masses --      6.3839                 2.1450                 1.8793
 Frc consts  --      1.5362                 0.5699                 0.5676
 IR Inten    --     32.3885                24.4663                56.7503

                     34                     35                     36
                      A                      A                      A
 Frequencies --    731.4940               751.7918               777.4497
 Red. masses --      1.5714                 5.1854                 1.9241
 Frc consts  --      0.4954                 1.7268                 0.6852
 IR Inten    --     88.4785                23.2317               122.6615

                     37                     38                     39
                      A                      A                      A
 Frequencies --    796.9292               808.1922               852.6555
 Red. masses --      2.0680                 2.9070                 1.3428
 Frc consts  --      0.7738                 1.1187                 0.5752
 IR Inten    --     18.8768                12.7817                 1.7456

                     40                     41                     42
                      A                      A                      A
 Frequencies --    857.0725               874.6067               882.1389
 Red. masses --      2.7873                 4.5823                 1.2549
 Frc consts  --      1.2063                 2.0652                 0.5754
 IR Inten    --      0.8098                 5.0677                 0.4765

                     43                     44                     45
                      A                      A                      A
 Frequencies --    904.5310               922.1677               962.0474
 Red. masses --      3.2391                 1.7801                 1.4199
 Frc consts  --      1.5614                 0.8919                 0.7743
 IR Inten    --     50.0107                 3.9744                 4.2808

                     46                     47                     48
                      A                      A                      A
 Frequencies --    992.1598               996.3309              1007.7940
 Red. masses --      1.7157                 1.3477                 1.2861
 Frc consts  --      0.9951                 0.7882                 0.7696
 IR Inten    --     63.9745                 1.9208                 1.1408

                     49                     50                     51
                      A                      A                      A
 Frequencies --   1015.4569              1017.4040              1026.3511
 Red. masses --      1.3601                 5.4514                 5.7244
 Frc consts  --      0.8263                 3.3246                 3.5528
 IR Inten    --      0.2743                12.1018                 2.1933

                     52                     53                     54
                      A                      A                      A
 Frequencies --   1030.8885              1034.6732              1056.8797
 Red. masses --      1.2659                 1.2645                 1.6015
 Frc consts  --      0.7927                 0.7976                 1.0540
 IR Inten    --      6.2252                18.1576                41.3917

                     55                     56                     57
                      A                      A                      A
 Frequencies --   1061.3196              1066.0139              1072.7133
 Red. masses --      1.9543                 1.9089                 1.6737
 Frc consts  --      1.2970                 1.2781                 1.1347
 IR Inten    --      9.5660                 6.9793                10.9871

                     58                     59                     60
                      A                      A                      A
 Frequencies --   1087.5588              1099.0835              1117.6281
 Red. masses --      2.0612                 2.5682                 1.5608
 Frc consts  --      1.4364                 1.8278                 1.1487
 IR Inten    --     68.2097               435.8685                27.2123

                     61                     62                     63
                      A                      A                      A
 Frequencies --   1124.6365              1180.3802              1185.0727
 Red. masses --      1.6067                 1.1155                 1.1393
 Frc consts  --      1.1973                 0.9158                 0.9427
 IR Inten    --     89.5148                 5.5501                 0.1609

                     64                     65                     66
                      A                      A                      A
 Frequencies --   1206.5588              1213.7032              1219.0467
 Red. masses --      1.1295                 1.4605                 1.1612
 Frc consts  --      0.9688                 1.2676                 1.0167
 IR Inten    --     24.9329                32.1358                 0.0456

                     67                     68                     69
                      A                      A                      A
 Frequencies --   1250.6719              1264.7251              1284.2079
 Red. masses --      1.9148                 1.5534                 2.4639
 Frc consts  --      1.7647                 1.4640                 2.3941
 IR Inten    --    279.9292               101.3871                48.0786

                     70                     71                     72
                      A                      A                      A
 Frequencies --   1303.3138              1337.6535              1343.8257
 Red. masses --      1.7454                 3.7149                 3.1106
 Frc consts  --      1.7468                 3.9164                 3.3097
 IR Inten    --     92.5482                41.1701               537.5074

                     73                     74                     75
                      A                      A                      A
 Frequencies --   1351.1074              1360.2756              1372.2406
 Red. masses --      1.3800                 1.7256                 1.4307
 Frc consts  --      1.4843                 1.8812                 1.5873
 IR Inten    --     73.3918                 5.9746                47.1006

                     76                     77                     78
                      A                      A                      A
 Frequencies --   1387.5682              1407.8121              1441.9880
 Red. masses --      2.0026                 1.7856                 1.7611
 Frc consts  --      2.2717                 2.0850                 2.1576
 IR Inten    --     69.0400                 3.5409               185.2941

                     79                     80                     81
                      A                      A                      A
 Frequencies --   1456.3671              1464.9853              1487.2218
 Red. masses --      1.4109                 1.7717                 1.0778
 Frc consts  --      1.7631                 2.2403                 1.4045
 IR Inten    --     91.8805               322.6038                26.1264

                     82                     83                     84
                      A                      A                      A
 Frequencies --   1493.2767              1499.3674              1503.2159
 Red. masses --      1.0443                 1.3560                 1.0677
 Frc consts  --      1.3721                 1.7961                 1.4215
 IR Inten    --     22.6011                20.2975                19.3952

                     85                     86                     87
                      A                      A                      A
 Frequencies --   1511.6901              1537.5694              1545.9522
 Red. masses --      1.5470                 2.1935                 2.4035
 Frc consts  --      2.0829                 3.0554                 3.3844
 IR Inten    --    106.0067               287.2067               144.3112

                     88                     89                     90
                      A                      A                      A
 Frequencies --   1549.6450              1627.7201              1647.8435
 Red. masses --      2.3286                 6.2234                 1.1050
 Frc consts  --      3.2946                 9.7149                 1.7678
 IR Inten    --      5.4421              1389.4436                53.5460

                     91                     92                     93
                      A                      A                      A
 Frequencies --   1653.6295              1655.0763              1672.8147
 Red. masses --      4.9924                 5.1459                 5.9383
 Frc consts  --      8.0434                 8.3051                 9.7906
 IR Inten    --     44.1333                23.2251               293.1479

                     94                     95                     96
                      A                      A                      A
 Frequencies --   1678.2047              2991.6000              3066.8437
 Red. masses --      5.7704                 1.0567                 1.0824
 Frc consts  --      9.5751                 5.5722                 5.9982
 IR Inten    --      0.8507               125.7954                69.0695

                     97                     98                     99
                      A                      A                      A
 Frequencies --   3079.5712              3137.5763              3165.7517
 Red. masses --      1.0322                 1.0959                 1.1054
 Frc consts  --      5.7679                 6.3566                 6.5274
 IR Inten    --     23.2719                21.7850                 4.2283

                    100                    101                    102
                      A                      A                      A
 Frequencies --   3173.6440              3175.4212              3181.5028
 Red. masses --      1.0891                 1.1048                 1.0878
 Frc consts  --      6.4631                 6.5636                 6.4874
 IR Inten    --     26.0609                 5.8646                17.1420

                    103                    104                    105
                      A                      A                      A
 Frequencies --   3189.6290              3192.2142              3197.5860
 Red. masses --      1.0878                 1.0879                 1.0871
 Frc consts  --      6.5207                 6.5319                 6.5489
 IR Inten    --      9.1682                 3.5657                 0.8331

                    106                    107                    108
                      A                      A                      A
 Frequencies --   3201.5181              3205.9914              3214.1048
 Red. masses --      1.0929                 1.0909                 1.0948
 Frc consts  --      6.6001                 6.6064                 6.6633
 IR Inten    --     33.8911                13.5467                37.5375

                    109                    110                    111
                      A                      A                      A
 Frequencies --   3218.5107              3223.3656              3247.1566
 Red. masses --      1.0974                 1.0988                 1.0929
 Frc consts  --      6.6977                 6.7266                 6.7892
 IR Inten    --     27.0004                15.0599                 2.4330

                    112                    113                    114
                      A                      A                      A
 Frequencies --   3518.0076              3597.2560              3674.4961
 Red. masses --      1.0514                 1.0953                 1.0762
 Frc consts  --      7.6670                 8.3507                 8.5610
 IR Inten    --     53.0549                46.3556                31.1979

 - Thermochemistry -
 -------------------
 Temperature   298.150 Kelvin.  Pressure   1.00000 Atm.
 Atom     1 has atomic number  6 and mass  12.00000

 Molecular mass:   268.15756 amu.
 Principal axes and moments of inertia in atomic units:
                           1         2         3
     Eigenvalues --  2396.53079********************
           X            0.99999   0.00435   0.00328
           Y           -0.00422   0.99928  -0.03782
           Z           -0.00345   0.03780   0.99928
 This molecule is an asymmetric top.
 Rotational symmetry number  1.
 Warning -- assumption of classical behavior for rotation
           may cause significant error
 Rotational temperatures (Kelvin)      0.03614     0.00768     0.00723
 Rotational constants (GHZ):           0.75306     0.15999     0.15059
    1 imaginary frequencies ignored.
 Zero-point vibrational energy     892461.6 (Joules/Mol)
                                  213.30344 (Kcal/Mol)
 Warning -- explicit consideration of  27 degrees of freedom as
           vibrations may cause significant error
 Vibrational temperatures:     27.60    43.21    55.30    87.65   110.94
          (Kelvin)            119.13   152.78   188.40   202.13   250.60
                              275.02   297.94   333.11   360.02   411.52
                              439.11   460.86   492.89   522.56   590.08
                              610.23   614.17   621.92   712.04   752.39
                              811.53   866.40   912.66   917.34   919.50
                              966.18  1030.13  1052.46  1081.66  1118.58
                             1146.60  1162.81  1226.78  1233.14  1258.36
                             1269.20  1301.42  1326.79  1384.17  1427.50
                             1433.50  1449.99  1461.02  1463.82  1476.69
                             1483.22  1488.66  1520.61  1527.00  1533.76
                             1543.40  1564.75  1581.34  1608.02  1618.10
                             1698.30  1705.06  1735.97  1746.25  1753.94
                             1799.44  1819.66  1847.69  1875.18  1924.59
                             1933.47  1943.94  1957.13  1974.35  1996.40
                             2025.53  2074.70  2095.39  2107.79  2139.78
                             2148.49  2157.26  2162.79  2174.98  2212.22
                             2224.28  2229.59  2341.93  2370.88  2379.20
                             2381.29  2406.81  2414.56  4304.25  4412.50
                             4430.82  4514.27  4554.81  4566.17  4568.72
                             4577.47  4589.16  4592.88  4600.61  4606.27
                             4612.71  4624.38  4630.72  4637.70  4671.93
                             5061.63  5175.65  5286.78

 Zero-point correction=                           0.339921 (Hartree/Particle)
 Thermal correction to Energy=                    0.358657
 Thermal correction to Enthalpy=                  0.359601
 Thermal correction to Gibbs Free Energy=         0.291020
 Sum of electronic and zero-point Energies=           -844.244594
 Sum of electronic and thermal Energies=              -844.225858
 Sum of electronic and thermal Enthalpies=            -844.224914
 Sum of electronic and thermal Free Energies=         -844.293495

                     E (Thermal)             CV                S
                      KCal/Mol        Cal/Mol-Kelvin    Cal/Mol-Kelvin
 Total                  225.061             71.545            144.342
 Electronic               0.000              0.000              0.000
 Translational            0.889              2.981             42.658
 Rotational               0.889              2.981             34.137
 Vibrational            223.283             65.584             67.547
 Vibration     1          0.593              1.986              6.717
 Vibration     2          0.594              1.984              5.827
 Vibration     3          0.594              1.982              5.338
 Vibration     4          0.597              1.973              4.427
 Vibration     5          0.599              1.964              3.963
 Vibration     6          0.600              1.961              3.823
 Vibration     7          0.605              1.944              3.337
 Vibration     8          0.612              1.922              2.932
 Vibration     9          0.615              1.913              2.797
 Vibration    10          0.627              1.874              2.390
 Vibration    11          0.634              1.852              2.217
 Vibration    12          0.641              1.830              2.069
 Vibration    13          0.653              1.793              1.867
 Vibration    14          0.663              1.762              1.729
 Vibration    15          0.684              1.700              1.497
 Vibration    16          0.696              1.664              1.388
 Vibration    17          0.706              1.635              1.308
 Vibration    18          0.722              1.590              1.200
 Vibration    19          0.737              1.548              1.108
 Vibration    20          0.774              1.448              0.926
 Vibration    21          0.786              1.418              0.878
 Vibration    22          0.789              1.412              0.869
 Vibration    23          0.793              1.400              0.851
 Vibration    24          0.851              1.261              0.671
 Vibration    25          0.878              1.199              0.603
 Vibration    26          0.920              1.109              0.516
 Vibration    27          0.960              1.027              0.446

 Optimization completed on the basis of negligible forces.
    -- Stationary point found.
 Normal termination of Gaussian 16 at Mon Mar 29 13:26:30 2021.
