 Gaussian 16, Revision A.03,
 Gaussian 16:  ES64L-G16RevA.03 25-Dec-2016

 ----------------------------------------------------------------------
 # wB97XD def2tzvp, opt=(ts, noeigen, calcfc, maxcycles=70, maxstep=5),
  freq=noraman, scrf=(iefpcm, solvent=water)
 ----------------------------------------------------------------------

 ------------------------
 2_iteration/TS-629-2.out
 ------------------------
 Symbolic Z-matrix:
 Charge =  0 Multiplicity = 1

 SCF Done:  E(RwB97XD) =  -5760.75027916     A.U. after   15 cycles
 SCF Done:  E(RwB97XD) =  -5760.75027919     A.U. after    7 cycles
 Optimization completed.
    -- Stationary point found.
 Normal termination of Gaussian 16 at Sat Feb 20 17:02:28 2021.

 ---------------------------------------------------------------------
 #N Geom=AllCheck Guess=TCheck SCRF=Check GenChk RwB97XD/def2TZVP Freq
 ---------------------------------------------------------------------

 Structure from the checkpoint file:  "/beegfs/scratch/user/q/tla25/Gau-36842.chk"
 ------------------------
 2_iteration/TS-629-2.out
 ------------------------
 Charge =  0 Multiplicity = 1

                         Standard orientation:
 ---------------------------------------------------------------------
 Center     Atomic      Atomic             Coordinates (Angstroms)
 Number     Number       Type             X           Y           Z
 ---------------------------------------------------------------------
      1          6           0        0.862639    0.288345   -0.063170
      2          6           0        0.889363    1.747391    0.045468
      3          8           0       -0.049369    2.398648    0.515756
      4          6           0       -0.272396   -0.470298    0.188005
      5          6           0        0.120388   -0.089343    2.925818
      6          1           0       -0.748217    0.543044    3.087524
      7          1           0        0.441867   -0.524607    3.870884
      8          1           0        0.925419    0.518203    2.514494
      9          7           0       -0.198882   -1.133135    1.954773
     10          1           0        0.567472   -1.794351    1.884568
     11          1           0       -1.024679   -1.667084    2.204391
     12         35           0       -0.349163   -2.275189   -0.657153
     13          6           0       -1.632157    0.149059    0.008091
     14          6           0       -1.906082    0.702404   -1.243822
     15          6           0       -3.142535    1.252374   -1.521547
     16          6           0       -4.139641    1.254296   -0.554257
     17          6           0       -3.882308    0.693438    0.684228
     18          6           0       -2.640031    0.137909    0.962087
     19          1           0       -1.132142    0.702664   -2.000357
     20          1           0       -3.329482    1.681191   -2.497819
     21          1           0       -5.109167    1.685233   -0.768434
     22          1           0       -4.649418    0.682284    1.447827
     23          1           0       -2.490474   -0.285807    1.943267
     24         35           0        2.548088   -0.609017   -0.240291
     25          7           0        1.998928    2.388694   -0.397982
     26          6           0        2.110400    3.826073   -0.342921
     27          1           0        2.728921    1.865232   -0.844026
     28          1           0        3.113915    4.107531   -0.655379
     29          1           0        1.387765    4.316190   -1.000079
     30          1           0        1.944632    4.189521    0.672222
 ---------------------------------------------------------------------

 SCF Done:  E(RwB97XD) =  -5760.75027919     A.U. after    1 cycles

 The electronic state is 1-A.
 Alpha  occ. eigenvalues -- -483.13032-483.12838 -62.67870 -62.67664 -56.46986
 Alpha  occ. eigenvalues --  -56.46769 -56.46636 -56.46622 -56.46437 -56.46424
 Alpha  occ. eigenvalues --  -19.20052 -14.50093 -14.44608 -10.40988 -10.38360
 Alpha  occ. eigenvalues --  -10.32070 -10.31756 -10.31150 -10.30674 -10.29835
 Alpha  occ. eigenvalues --  -10.29386 -10.29385 -10.29285 -10.29229  -8.81963
 Alpha  occ. eigenvalues --   -8.81773  -6.64101  -6.63882  -6.62999  -6.62951
 Alpha  occ. eigenvalues --   -6.62821  -6.62782  -2.74480  -2.74278  -2.74182
 Alpha  occ. eigenvalues --   -2.74144  -2.73974  -2.73941  -2.73252  -2.73252
 Alpha  occ. eigenvalues --   -2.73085  -2.73084  -1.13087  -1.05553  -1.01414
 Alpha  occ. eigenvalues --   -0.98067  -0.94321  -0.89333  -0.86083  -0.85680
 Alpha  occ. eigenvalues --   -0.81973  -0.79928  -0.79580  -0.72360  -0.71130
 Alpha  occ. eigenvalues --   -0.68510  -0.65655  -0.65283  -0.61570  -0.59052
 Alpha  occ. eigenvalues --   -0.57873  -0.56657  -0.55300  -0.54301  -0.54028
 Alpha  occ. eigenvalues --   -0.52730  -0.51376  -0.51249  -0.50762  -0.48837
 Alpha  occ. eigenvalues --   -0.47434  -0.47072  -0.46930  -0.46244  -0.45202
 Alpha  occ. eigenvalues --   -0.43490  -0.43083  -0.40259  -0.39494  -0.37644
 Alpha  occ. eigenvalues --   -0.36527  -0.35082  -0.34292  -0.33010  -0.31837
 Alpha  occ. eigenvalues --   -0.27545
 Alpha virt. eigenvalues --    0.01019   0.04857   0.05513   0.07028   0.09823
 Alpha virt. eigenvalues --    0.10268   0.12372   0.13391   0.14289   0.15183
 Alpha virt. eigenvalues --    0.15683   0.15932   0.16609   0.17734   0.18495

 Mulliken charges:
               1
     1  C   -0.323400
     2  C    0.397627
     3  O   -0.528326
     4  C    0.181125
     5  C   -0.289234
     6  H    0.155583
     7  H    0.165285
     8  H    0.160364
     9  N   -0.313692
    10  H    0.288330
    11  H    0.293490
    12  Br  -0.126969
    13  C    0.273460
    14  C   -0.303676
    15  C   -0.126086
    16  C   -0.149692
    17  C   -0.168713
    18  C   -0.234951
    19  H    0.156057
    20  H    0.144468
    21  H    0.145529
    22  H    0.144555
    23  H    0.138468
    24  Br  -0.151372
    25  N   -0.323591
    26  C   -0.248484
    27  H    0.251203
    28  H    0.140006
    29  H    0.125200
    30  H    0.127435
 Sum of Mulliken charges =  -0.00000

 Dipole moment (field-independent basis, Debye):
    X=             -0.2023    Y=             -2.3307    Z=              4.2820  Tot=              4.8794
 Quadrupole moment (field-independent basis, Debye-Ang):
   XX=           -109.3619   YY=           -123.3021   ZZ=           -102.8757
   XY=              6.0153   XZ=             -3.2558   YZ=            -14.4116

  Exact polarizability: 300.000 -10.617 268.851 -17.438 -13.758 242.724
 Approx polarizability: 235.030 -11.872 213.799 -15.702 -10.021 209.602

 ******    1 imaginary frequencies (negative Signs) ******

                      1                      2                      3
                      A                      A                      A
 Frequencies --   -352.6745                32.8060                38.1582
 Red. masses --      5.4632                 5.5271                 3.5822
 Frc consts  --      0.4004                 0.0035                 0.0031
 IR Inten    --    564.8732                 1.1394                 5.8781

                      4                      5                      6
                      A                      A                      A
 Frequencies --     50.1018                72.3654                77.6878
 Red. masses --      5.4853                 1.4789                 5.7867
 Frc consts  --      0.0081                 0.0046                 0.0206
 IR Inten    --      3.5872                 3.5959                 6.9200

                      7                      8                      9
                      A                      A                      A
 Frequencies --    104.1633               118.8205               121.9802
 Red. masses --      4.2554                 2.1565                 4.3356
 Frc consts  --      0.0272                 0.0179                 0.0380
 IR Inten    --      9.1849                 1.8335                 8.5082

                     10                     11                     12
                      A                      A                      A
 Frequencies --    135.3656               153.7914               162.0913
 Red. masses --      4.1228                 2.4153                 2.1529
 Frc consts  --      0.0445                 0.0337                 0.0333
 IR Inten    --      1.2932                 6.5293                13.2696

                     13                     14                     15
                      A                      A                      A
 Frequencies --    180.1846               199.7484               242.9167
 Red. masses --      4.5287                 2.8689                 4.4291
 Frc consts  --      0.0866                 0.0674                 0.1540
 IR Inten    --      3.2781                 7.1069                10.6682

                     16                     17                     18
                      A                      A                      A
 Frequencies --    264.5996               275.3464               293.5642
 Red. masses --      4.4329                 5.3234                 4.7365
 Frc consts  --      0.1829                 0.2378                 0.2405
 IR Inten    --      4.9798                 8.8328                20.1909

                     19                     20                     21
                      A                      A                      A
 Frequencies --    302.2795               354.1678               380.0655
 Red. masses --      3.3743                 2.9059                 1.8124
 Frc consts  --      0.1817                 0.2148                 0.1543
 IR Inten    --     15.6344                59.8041                72.0996

                     22                     23                     24
                      A                      A                      A
 Frequencies --    415.8293               421.7245               509.7385
 Red. masses --      4.0275                 2.9101                 3.6860
 Frc consts  --      0.4103                 0.3049                 0.5643
 IR Inten    --     24.0073                 0.6780                22.6571

                     25                     26                     27
                      A                      A                      A
 Frequencies --    560.5605               592.3705               639.3563
 Red. masses --      4.4073                 3.4754                 6.3809
 Frc consts  --      0.8159                 0.7185                 1.5368
 IR Inten    --    155.8104                22.9946                 8.6102

                     28                     29                     30
                      A                      A                      A
 Frequencies --    661.8103               711.8843               720.4827
 Red. masses --      4.0799                 2.2182                 1.5806
 Frc consts  --      1.0528                 0.6623                 0.4834
 IR Inten    --    168.1163                45.1316               154.6766

                     31                     32                     33
                      A                      A                      A
 Frequencies --    771.2166               778.3851               822.3247
 Red. masses --      3.9645                 3.9626                 3.2961
 Frc consts  --      1.3893                 1.4146                 1.3132
 IR Inten    --     52.0300                48.3094                34.7229

                     34                     35                     36
                      A                      A                      A
 Frequencies --    863.9251               866.7252               950.8878
 Red. masses --      3.0204                 1.4286                 1.4615
 Frc consts  --      1.3282                 0.6323                 0.7786
 IR Inten    --     48.4785                11.4474                 0.5380

                     37                     38                     39
                      A                      A                      A
 Frequencies --    993.8989              1007.5595              1012.0087
 Red. masses --      1.6011                 1.7756                 1.4245
 Frc consts  --      0.9318                 1.0620                 0.8596
 IR Inten    --     22.0465                 8.9000                11.6701

                     40                     41                     42
                      A                      A                      A
 Frequencies --   1025.1084              1029.1049              1064.3281
 Red. masses --      5.3214                 1.3100                 2.0154
 Frc consts  --      3.2947                 0.8174                 1.3451
 IR Inten    --      1.8322                 0.4110                 7.6220

                     43                     44                     45
                      A                      A                      A
 Frequencies --   1067.1688              1079.6397              1122.5030
 Red. masses --      2.2107                 1.8429                 1.7980
 Frc consts  --      1.4834                 1.2657                 1.3348
 IR Inten    --      7.2693               139.5511                12.4279

                     46                     47                     48
                      A                      A                      A
 Frequencies --   1132.7848              1156.2503              1185.5226
 Red. masses --      3.1772                 1.2882                 1.3066
 Frc consts  --      2.4021                 1.0147                 1.0820
 IR Inten    --     17.0047                 2.8795                 8.8375

                     49                     50                     51
                      A                      A                      A
 Frequencies --   1185.9676              1214.3803              1218.4189
 Red. masses --      1.4420                 2.4323                 1.3036
 Frc consts  --      1.1950                 2.1134                 1.1402
 IR Inten    --     14.7734                99.4509                29.3182

                     52                     53                     54
                      A                      A                      A
 Frequencies --   1240.8575              1284.5703              1317.6379
 Red. masses --      1.4406                 2.2560                 4.4628
 Frc consts  --      1.3069                 2.1933                 4.5651
 IR Inten    --     29.8998               444.5476                37.8764

                     55                     56                     57
                      A                      A                      A
 Frequencies --   1339.9763              1361.1043              1416.5130
 Red. masses --      1.3141                 1.4528                 4.4545
 Frc consts  --      1.3902                 1.5858                 5.2661
 IR Inten    --     10.4846                 5.1138               672.5688

                     58                     59                     60
                      A                      A                      A
 Frequencies --   1455.5256              1462.0199              1475.8176
 Red. masses --      1.2107                 1.2915                 1.0628
 Frc consts  --      1.5113                 1.6265                 1.3638
 IR Inten    --     40.6338                30.7985                20.0274

                     61                     62                     63
                      A                      A                      A
 Frequencies --   1488.7168              1490.6296              1501.0533
 Red. masses --      1.0377                 2.1894                 1.0543
 Frc consts  --      1.3550                 2.8662                 1.3997
 IR Inten    --     19.0471                41.9132                14.3804

                     64                     65                     66
                      A                      A                      A
 Frequencies --   1505.0831              1542.7977              1545.5842
 Red. masses --      1.0910                 2.3176                 1.9598
 Frc consts  --      1.4561                 3.2502                 2.7584
 IR Inten    --     26.4396                52.2937               691.4042

                     67                     68                     69
                      A                      A                      A
 Frequencies --   1641.1281              1653.6650              1657.8550
 Red. masses --      1.2112                 4.1393                 7.4347
 Frc consts  --      1.9220                 6.6691                12.0394
 IR Inten    --    103.1454               135.1528               383.4390

                     70                     71                     72
                      A                      A                      A
 Frequencies --   1674.0323              3045.6371              3079.0933
 Red. masses --      5.8694                 1.0383                 1.0333
 Frc consts  --      9.6911                 5.6743                 5.7720
 IR Inten    --      1.3321                86.0729                31.2140

                     73                     74                     75
                      A                      A                      A
 Frequencies --   3106.7267              3156.8378              3158.1385
 Red. masses --      1.1008                 1.1022                 1.1049
 Frc consts  --      6.2601                 6.4716                 6.4928
 IR Inten    --     42.9638                24.2244                 5.5532

                     76                     77                     78
                      A                      A                      A
 Frequencies --   3183.0783              3198.9697              3207.7294
 Red. masses --      1.1054                 1.0861                 1.0893
 Frc consts  --      6.5986                 6.5485                 6.6040
 IR Inten    --     11.6070                 0.5868                 5.4525

                     79                     80                     81
                      A                      A                      A
 Frequencies --   3216.7408              3224.7579              3248.3357
 Red. masses --      1.0936                 1.0979                 1.0919
 Frc consts  --      6.6671                 6.7268                 6.7882
 IR Inten    --     22.2761                21.3972                18.0973

                     82                     83                     84
                      A                      A                      A
 Frequencies --   3513.7570              3588.9734              3681.8562
 Red. masses --      1.0517                 1.0958                 1.0782
 Frc consts  --      7.6501                 8.3159                 8.6113
 IR Inten    --     48.6701                55.6020                82.8478

 - Thermochemistry -
 -------------------
 Temperature   298.150 Kelvin.  Pressure   1.00000 Atm.
 Atom     1 has atomic number  6 and mass  12.00000

 Molecular mass:   347.94729 amu.
 Principal axes and moments of inertia in atomic units:
                           1         2         3
     Eigenvalues --  4594.609666191.684648453.61626
           X            0.99914   0.04145   0.00026
           Y           -0.04138   0.99796  -0.04860
           Z           -0.00227   0.04855   0.99882
 This molecule is an asymmetric top.
 Rotational symmetry number  1.
 Warning -- assumption of classical behavior for rotation
           may cause significant error
 Rotational temperatures (Kelvin)      0.01885     0.01399     0.01025
 Rotational constants (GHZ):           0.39280     0.29148     0.21349
    1 imaginary frequencies ignored.
 Zero-point vibrational energy     622101.6 (Joules/Mol)
                                  148.68586 (Kcal/Mol)
 Warning -- explicit consideration of  25 degrees of freedom as
           vibrations may cause significant error
 Vibrational temperatures:     47.20    54.90    72.09   104.12   111.78
          (Kelvin)            149.87   170.96   175.50   194.76   221.27
                              233.21   259.25   287.39   349.50   380.70
                              396.16   422.37   434.91   509.57   546.83
                              598.29   606.77   733.40   806.52   852.29
                              919.89   952.20  1024.24  1036.61  1109.61
                             1119.92  1183.14  1243.00  1247.02  1368.12
                             1430.00  1449.65  1456.05  1474.90  1480.65
                             1531.33  1535.42  1553.36  1615.03  1629.82
                             1663.59  1705.70  1706.34  1747.22  1753.03
                             1785.32  1848.21  1895.79  1927.93  1958.33
                             2038.05  2094.18  2103.52  2123.37  2141.93
                             2144.68  2159.68  2165.48  2219.74  2223.75
                             2361.22  2379.26  2385.28  2408.56  4381.99
                             4430.13  4469.89  4541.99  4543.86  4579.74
                             4602.60  4615.21  4628.17  4639.71  4673.63
                             5055.51  5163.73  5297.37

 Zero-point correction=                           0.236946 (Hartree/Particle)
 Thermal correction to Energy=                    0.254607
 Thermal correction to Enthalpy=                  0.255551
 Thermal correction to Gibbs Free Energy=         0.188906
 Sum of electronic and zero-point Energies=          -5760.513333
 Sum of electronic and thermal Energies=             -5760.495672
 Sum of electronic and thermal Enthalpies=           -5760.494728
 Sum of electronic and thermal Free Energies=        -5760.561373

                     E (Thermal)             CV                S
                      KCal/Mol        Cal/Mol-Kelvin    Cal/Mol-Kelvin
 Total                  159.768             61.944            140.267
 Electronic               0.000              0.000              0.000
 Translational            0.889              2.981             43.435
 Rotational               0.889              2.981             33.841
 Vibrational            157.991             55.983             62.991
 Vibration     1          0.594              1.983              5.652
 Vibration     2          0.594              1.982              5.352
 Vibration     3          0.595              1.978              4.813
 Vibration     4          0.598              1.967              4.088
 Vibration     5          0.599              1.964              3.948
 Vibration     6          0.605              1.946              3.375
 Vibration     7          0.609              1.934              3.119
 Vibration     8          0.609              1.931              3.069
 Vibration     9          0.613              1.918              2.868
 Vibration    10          0.619              1.898              2.625
 Vibration    11          0.622              1.889              2.525
 Vibration    12          0.629              1.867              2.326
 Vibration    13          0.638              1.840              2.135
 Vibration    14          0.659              1.774              1.781
 Vibration    15          0.671              1.738              1.631
 Vibration    16          0.677              1.719              1.562
 Vibration    17          0.688              1.686              1.453
 Vibration    18          0.694              1.669              1.404
 Vibration    19          0.730              1.567              1.148
 Vibration    20          0.750              1.513              1.039
 Vibration    21          0.779              1.436              0.906
 Vibration    22          0.784              1.423              0.886
 Vibration    23          0.865              1.228              0.634
 Vibration    24          0.916              1.117              0.523
 Vibration    25          0.950              1.048              0.463

 Optimization completed.
    -- Stationary point found.
 Normal termination of Gaussian 16 at Sat Feb 20 18:21:44 2021.
