 Gaussian 16, Revision A.03,
 Gaussian 16:  ES64L-G16RevA.03 25-Dec-2016

 ----------------------------------------------------------------------
 # wB97XD def2tzvp, opt=(ts, noeigen, calcfc, maxcycles=70, maxstep=8),
  freq=noraman, scrf=(iefpcm, solvent=water)
 ----------------------------------------------------------------------

 ------------------------
 1_iteration/TS-678-1.out
 ------------------------
 Symbolic Z-matrix:
 Charge =  0 Multiplicity = 1

 SCF Done:  E(RwB97XD) =  -3455.00029658     A.U. after   15 cycles
 SCF Done:  E(RwB97XD) =  -3455.00029679     A.U. after    8 cycles
 Optimization completed.
    -- Stationary point found.
 Normal termination of Gaussian 16 at Fri Feb 19 10:53:56 2021.

 ---------------------------------------------------------------------
 #N Geom=AllCheck Guess=TCheck SCRF=Check GenChk RwB97XD/def2TZVP Freq
 ---------------------------------------------------------------------

 Structure from the checkpoint file:  "/beegfs/scratch/user/q/tla25/Gau-19785.chk"
 ------------------------
 1_iteration/TS-678-1.out
 ------------------------
 Charge =  0 Multiplicity = 1

                         Standard orientation:
 ---------------------------------------------------------------------
 Center     Atomic      Atomic             Coordinates (Angstroms)
 Number     Number       Type             X           Y           Z
 ---------------------------------------------------------------------
      1          6           0       -0.490229    0.693802    0.037303
      2          6           0       -1.917971    0.432618    0.212695
      3          8           0       -2.635887    1.149830    0.913012
      4          6           0        0.451050   -0.306238    0.007478
      5          6           0        1.764204   -2.050849    1.869344
      6          1           0        1.991610   -2.276512    2.911203
      7          1           0        1.130114   -2.837734    1.463840
      8          1           0        2.690962   -2.010530    1.301358
      9          7           0        1.070165   -0.769424    1.743015
     10          1           0        0.207651   -0.759834    2.276221
     11          1           0        1.642246    0.003216    2.066347
     12         35           0        2.164968   -0.013648   -0.853198
     13          1           0        0.099496   -1.299983   -0.229365
     14         17           0        0.029941    2.328767    0.396101
     15          7           0       -2.439121   -0.672855   -0.409844
     16          6           0       -1.950321   -1.223730   -1.659028
     17          6           0       -3.775077   -1.095114   -0.044708
     18          1           0       -1.159651   -0.600267   -2.068253
     19          1           0       -1.573794   -2.243555   -1.534851
     20          1           0       -2.768918   -1.254234   -2.382938
     21          1           0       -3.966512   -0.862602    0.999219
     22          1           0       -4.538717   -0.602139   -0.656270
     23          1           0       -3.857484   -2.172814   -0.193093
 ---------------------------------------------------------------------

 SCF Done:  E(RwB97XD) =  -3455.00029679     A.U. after    1 cycles

 The electronic state is 1-A.
 Alpha  occ. eigenvalues -- -483.13330-101.68638 -62.68188 -56.47299 -56.46952
 Alpha  occ. eigenvalues --  -56.46937 -19.20344 -14.49405 -14.45605 -10.39012
 Alpha  occ. eigenvalues --  -10.38296 -10.32237 -10.31035 -10.31022 -10.30378
 Alpha  occ. eigenvalues --   -9.57158  -8.82304  -7.31787  -7.30948  -7.30938
 Alpha  occ. eigenvalues --   -6.64447  -6.63340  -6.63290  -2.74835  -2.74524
 Alpha  occ. eigenvalues --   -2.74484  -2.73589  -2.73589  -1.13330  -1.04775
 Alpha  occ. eigenvalues --   -1.03022  -0.96707  -0.90707  -0.84300  -0.81382
 Alpha  occ. eigenvalues --   -0.79681  -0.77883  -0.69689  -0.64190  -0.63025
 Alpha  occ. eigenvalues --   -0.60599  -0.57233  -0.56506  -0.55712  -0.54299
 Alpha  occ. eigenvalues --   -0.51915  -0.51107  -0.48844  -0.48700  -0.48439
 Alpha  occ. eigenvalues --   -0.48050  -0.46348  -0.45730  -0.45134  -0.41694
 Alpha  occ. eigenvalues --   -0.39488  -0.37852  -0.37103  -0.34459  -0.31900
 Alpha  occ. eigenvalues --   -0.27152
 Alpha virt. eigenvalues --    0.03595   0.07295   0.09719   0.11980   0.13141
 Alpha virt. eigenvalues --    0.14097   0.14514   0.15716   0.16104   0.17307
 Alpha virt. eigenvalues --    0.18247   0.18813   0.19282   0.19637   0.20559

 Mulliken charges:
               1
     1  C   -0.105173
     2  C    0.241880
     3  O   -0.516726
     4  C   -0.122307
     5  C   -0.274607
     6  H    0.158942
     7  H    0.153695
     8  H    0.153160
     9  N   -0.308809
    10  H    0.288637
    11  H    0.289667
    12  Br  -0.098287
    13  H    0.199199
    14  Cl  -0.175894
    15  N   -0.133260
    16  C   -0.325663
    17  C   -0.290708
    18  H    0.163238
    19  H    0.148910
    20  H    0.143759
    21  H    0.138470
    22  H    0.132573
    23  H    0.139304
 Sum of Mulliken charges =  -0.00000

 Dipole moment (field-independent basis, Debye):
    X=              3.8747    Y=             -9.2337    Z=              2.1524  Tot=             10.2425
 Quadrupole moment (field-independent basis, Debye-Ang):
   XX=            -89.7710   YY=            -88.7953   ZZ=            -76.8697
   XY=              8.5032   XZ=             14.5771   YZ=             -6.8906

  Exact polarizability: 208.769 -10.658 173.852   1.521   1.087 156.830
 Approx polarizability: 158.222  -6.555 145.697  -2.878   2.877 132.924

 ******    1 imaginary frequencies (negative Signs) ******

                      1                      2                      3
                      A                      A                      A
 Frequencies --   -361.0661                45.0022                61.6179
 Red. masses --      6.5825                 4.2851                 2.7709
 Frc consts  --      0.5056                 0.0051                 0.0062
 IR Inten    --    831.8939                 5.1714                 3.4605

                      4                      5                      6
                      A                      A                      A
 Frequencies --     67.9285                93.4976               105.7229
 Red. masses --      2.6458                 5.2306                 5.8393
 Frc consts  --      0.0072                 0.0269                 0.0385
 IR Inten    --      2.2612                 1.5561                 8.1548

                      7                      8                      9
                      A                      A                      A
 Frequencies --    124.1730               144.8213               153.2007
 Red. masses --      1.7725                 1.8800                 4.3203
 Frc consts  --      0.0161                 0.0232                 0.0597
 IR Inten    --      4.5796                 1.0278                 2.0883

                     10                     11                     12
                      A                      A                      A
 Frequencies --    179.9996               200.8524               224.4151
 Red. masses --      1.4510                 2.2887                 2.4472
 Frc consts  --      0.0277                 0.0544                 0.0726
 IR Inten    --      4.3435                 2.7062                27.4143

                     13                     14                     15
                      A                      A                      A
 Frequencies --    249.4236               280.4087               301.6001
 Red. masses --      1.7748                 5.3857                 3.7078
 Frc consts  --      0.0651                 0.2495                 0.1987
 IR Inten    --     23.5428                 2.5207                 5.6480

                     16                     17                     18
                      A                      A                      A
 Frequencies --    325.2739               389.8895               462.7868
 Red. masses --      3.0067                 3.3920                 3.7851
 Frc consts  --      0.1874                 0.3038                 0.4776
 IR Inten    --      8.8717                25.1214                59.4667

                     19                     20                     21
                      A                      A                      A
 Frequencies --    513.1306               596.4324               623.8607
 Red. masses --      5.5473                 3.0163                 4.1339
 Frc consts  --      0.8606                 0.6322                 0.9479
 IR Inten    --     72.8598                53.4856                23.1333

                     22                     23                     24
                      A                      A                      A
 Frequencies --    702.1408               749.7787               798.1406
 Red. masses --      3.1496                 3.1944                 5.6729
 Frc consts  --      0.9149                 1.0581                 2.1292
 IR Inten    --     41.7182               212.7520                60.6068

                     25                     26                     27
                      A                      A                      A
 Frequencies --    874.1500              1011.3635              1042.4459
 Red. masses --      4.9608                 1.0704                 1.3422
 Frc consts  --      2.2334                 0.6451                 0.8593
 IR Inten    --     45.3892                 5.4016                55.6487

                     28                     29                     30
                      A                      A                      A
 Frequencies --   1049.2274              1072.5900              1090.1011
 Red. masses --      2.0200                 3.2791                 1.3833
 Frc consts  --      1.3102                 2.2227                 0.9685
 IR Inten    --    105.9985               246.6887                18.7205

                     31                     32                     33
                      A                      A                      A
 Frequencies --   1135.3451              1143.0565              1170.0442
 Red. masses --      1.2196                 1.1699                 1.3883
 Frc consts  --      0.9262                 0.9006                 1.1198
 IR Inten    --      5.2317                38.5015                 9.6697

                     34                     35                     36
                      A                      A                      A
 Frequencies --   1221.1426              1234.0694              1293.8666
 Red. masses --      2.9270                 1.3830                 1.4642
 Frc consts  --      2.5716                 1.2410                 1.4442
 IR Inten    --    218.9173                27.6527                10.5419

                     37                     38                     39
                      A                      A                      A
 Frequencies --   1311.9648              1342.1559              1408.2493
 Red. masses --      3.3344                 1.3152                 2.8823
 Frc consts  --      3.3815                 1.3959                 3.3678
 IR Inten    --     37.9444                 2.0726               814.8220

                     40                     41                     42
                      A                      A                      A
 Frequencies --   1446.2879              1451.7712              1468.2669
 Red. masses --      1.1648                 1.9398                 1.5809
 Frc consts  --      1.4356                 2.4088                 2.0081
 IR Inten    --     24.8353               270.1295               252.5604

                     43                     44                     45
                      A                      A                      A
 Frequencies --   1475.0616              1485.5786              1492.5403
 Red. masses --      1.2261                 1.1139                 1.0413
 Frc consts  --      1.5719                 1.4485                 1.3667
 IR Inten    --     17.4245                23.9817                17.5302

                     46                     47                     48
                      A                      A                      A
 Frequencies --   1499.4765              1504.1743              1507.6988
 Red. masses --      1.0564                 1.0374                 1.0768
 Frc consts  --      1.3995                 1.3828                 1.4422
 IR Inten    --     18.3280                 8.5975                24.0578

                     49                     50                     51
                      A                      A                      A
 Frequencies --   1534.8136              1643.4312              1650.1946
 Red. masses --      1.2750                 1.0911                 9.1390
 Frc consts  --      1.7696                 1.7363                14.6628
 IR Inten    --    153.2681                96.2553               766.9330

                     52                     53                     54
                      A                      A                      A
 Frequencies --   3026.4478              3031.7835              3071.2340
 Red. masses --      1.0446                 1.0410                 1.0337
 Frc consts  --      5.6375                 5.6378                 5.7450
 IR Inten    --     79.2194               113.0403                41.8780

                     55                     56                     57
                      A                      A                      A
 Frequencies --   3084.5013              3103.6409              3149.7747
 Red. masses --      1.1025                 1.0934                 1.1053
 Frc consts  --      6.1803                 6.2057                 6.4609
 IR Inten    --     62.7962                32.5450                13.3348

                     58                     59                     60
                      A                      A                      A
 Frequencies --   3163.8392              3171.6990              3173.0267
 Red. masses --      1.0986                 1.1000                 1.1053
 Frc consts  --      6.4792                 6.5199                 6.5567
 IR Inten    --     12.9875                13.2067                 9.9834

                     61                     62                     63
                      A                      A                      A
 Frequencies --   3236.9284              3517.4591              3600.3721
 Red. masses --      1.0897                 1.0508                 1.0967
 Frc consts  --      6.7268                 7.6602                 8.3760
 IR Inten    --      0.6069                33.6033                53.7746

 - Thermochemistry -
 -------------------
 Temperature   298.150 Kelvin.  Pressure   1.00000 Atm.
 Atom     1 has atomic number  6 and mass  12.00000

 Molecular mass:   241.98215 amu.
 Principal axes and moments of inertia in atomic units:
                           1         2         3
     Eigenvalues --  2064.374234251.595964679.05437
           X            0.99824   0.02293   0.05469
           Y           -0.01908   0.99737  -0.06998
           Z           -0.05615   0.06881   0.99605
 This molecule is an asymmetric top.
 Rotational symmetry number  1.
 Warning -- assumption of classical behavior for rotation
           may cause significant error
 Rotational temperatures (Kelvin)      0.04196     0.02037     0.01851
 Rotational constants (GHZ):           0.87423     0.42449     0.38571
    1 imaginary frequencies ignored.
 Zero-point vibrational energy     486185.5 (Joules/Mol)
                                  116.20113 (Kcal/Mol)
 Warning -- explicit consideration of  19 degrees of freedom as
           vibrations may cause significant error
 Vibrational temperatures:     64.75    88.65    97.73   134.52   152.11
          (Kelvin)            178.66   208.37   220.42   258.98   288.98
                              322.88   358.86   403.45   433.94   468.00
                              560.96   665.85   738.28   858.13   897.60
                             1010.22  1078.76  1148.35  1257.71  1455.13
                             1499.85  1509.60  1543.22  1568.41  1633.51
                             1644.60  1683.43  1756.95  1775.55  1861.59
                             1887.62  1931.06  2026.16  2080.89  2088.77
                             2112.51  2122.28  2137.42  2147.43  2157.41
                             2164.17  2169.24  2208.25  2364.53  2374.26
                             4354.38  4362.06  4418.82  4437.91  4465.45
                             4531.82  4552.06  4563.37  4565.28  4657.22
                             5060.84  5180.13

 Zero-point correction=                           0.185178 (Hartree/Particle)
 Thermal correction to Energy=                    0.199110
 Thermal correction to Enthalpy=                  0.200054
 Thermal correction to Gibbs Free Energy=         0.142677
 Sum of electronic and zero-point Energies=          -3454.815119
 Sum of electronic and thermal Energies=             -3454.801187
 Sum of electronic and thermal Enthalpies=           -3454.800242
 Sum of electronic and thermal Free Energies=        -3454.857619

                     E (Thermal)             CV                S
                      KCal/Mol        Cal/Mol-Kelvin    Cal/Mol-Kelvin
 Total                  124.944             46.732            120.760
 Electronic               0.000              0.000              0.000
 Translational            0.889              2.981             42.352
 Rotational               0.889              2.981             32.085
 Vibrational            123.166             40.770             46.323
 Vibration     1          0.595              1.979              5.026
 Vibration     2          0.597              1.973              4.405
 Vibration     3          0.598              1.970              4.213
 Vibration     4          0.603              1.954              3.586
 Vibration     5          0.605              1.945              3.346
 Vibration     6          0.610              1.929              3.034
 Vibration     7          0.616              1.908              2.739
 Vibration     8          0.619              1.899              2.632
 Vibration     9          0.629              1.867              2.328
 Vibration    10          0.638              1.839              2.125
 Vibration    11          0.649              1.804              1.923
 Vibration    12          0.662              1.764              1.735
 Vibration    13          0.680              1.710              1.531
 Vibration    14          0.694              1.671              1.408
 Vibration    15          0.709              1.625              1.283
 Vibration    16          0.758              1.492              1.001
 Vibration    17          0.820              1.333              0.758
 Vibration    18          0.868              1.221              0.626
 Vibration    19          0.954              1.039              0.456

 Optimization completed.
    -- Stationary point found.
 Normal termination of Gaussian 16 at Fri Feb 19 11:15:29 2021.
