 Gaussian 16, Revision A.03,
 Gaussian 16:  ES64L-G16RevA.03 25-Dec-2016

 ----------------------------------------------------------------------
 # wB97XD def2tzvp, opt=(ts, noeigen, calcfc, maxcycles=70, maxstep=1),
  freq=noraman, scrf=(iefpcm, solvent=water)
 ----------------------------------------------------------------------

 ------------------------
 0_iteration/TS-658-0.out
 ------------------------
 Symbolic Z-matrix:
 Charge =  0 Multiplicity = 1

 SCF Done:  E(RwB97XD) =  -2940.03545495     A.U. after   15 cycles
 SCF Done:  E(RwB97XD) =  -2940.03540754     A.U. after   10 cycles
 SCF Done:  E(RwB97XD) =  -2940.03536669     A.U. after   10 cycles
 SCF Done:  E(RwB97XD) =  -2940.03533216     A.U. after   10 cycles
 SCF Done:  E(RwB97XD) =  -2940.03530355     A.U. after   10 cycles
 SCF Done:  E(RwB97XD) =  -2940.03528106     A.U. after   10 cycles
 SCF Done:  E(RwB97XD) =  -2940.03526658     A.U. after   10 cycles
 SCF Done:  E(RwB97XD) =  -2940.03526290     A.U. after   10 cycles
 SCF Done:  E(RwB97XD) =  -2940.03527491     A.U. after   10 cycles
 SCF Done:  E(RwB97XD) =  -2940.03530711     A.U. after   10 cycles
 SCF Done:  E(RwB97XD) =  -2940.03692383     A.U. after   10 cycles
 SCF Done:  E(RwB97XD) =  -2940.03694664     A.U. after   10 cycles
 SCF Done:  E(RwB97XD) =  -2940.03695967     A.U. after   10 cycles
 SCF Done:  E(RwB97XD) =  -2940.03696283     A.U. after   10 cycles
 SCF Done:  E(RwB97XD) =  -2940.03696399     A.U. after   10 cycles
 SCF Done:  E(RwB97XD) =  -2940.03696705     A.U. after   10 cycles
 SCF Done:  E(RwB97XD) =  -2940.03696923     A.U. after   10 cycles
 SCF Done:  E(RwB97XD) =  -2940.03696977     A.U. after    9 cycles
 SCF Done:  E(RwB97XD) =  -2940.03696981     A.U. after    7 cycles
 Optimization completed.
    -- Stationary point found.
 Normal termination of Gaussian 16 at Thu Feb 18 21:04:41 2021.

 ---------------------------------------------------------------------
 #N Geom=AllCheck Guess=TCheck SCRF=Check GenChk RwB97XD/def2TZVP Freq
 ---------------------------------------------------------------------

 Structure from the checkpoint file:  "/beegfs/scratch/user/q/tla25/Gau-4971.chk"
 ------------------------
 0_iteration/TS-658-0.out
 ------------------------
 Charge =  0 Multiplicity = 1

                         Standard orientation:
 ---------------------------------------------------------------------
 Center     Atomic      Atomic             Coordinates (Angstroms)
 Number     Number       Type             X           Y           Z
 ---------------------------------------------------------------------
      1          6           0        1.103089   -0.416770    0.262285
      2          6           0        2.377857    0.047216   -0.195371
      3          8           0        3.433079   -0.463240    0.206267
      4          6           0       -0.042890    0.190403   -0.216508
      5          6           0       -1.673950    2.480046    0.441381
      6          1           0       -1.911961    3.261654    1.163113
      7          1           0       -1.258388    2.937409   -0.455390
      8          1           0       -2.584869    1.946216    0.179146
      9          7           0       -0.702689    1.529741    0.981519
     10          1           0        0.158583    1.989020    1.255676
     11          1           0       -1.062894    1.040739    1.793690
     12         35           0       -1.673065   -0.856079   -0.402849
     13          1           0        0.020881    0.862728   -1.059159
     14          6           0        1.080274   -1.502194    1.303210
     15          1           0        0.085906   -1.625032    1.732785
     16          1           0        1.384532   -2.470436    0.894141
     17          1           0        1.771581   -1.272606    2.116703
     18          6           0        2.471392    1.182516   -1.205050
     19          1           0        2.008192    2.097869   -0.831576
     20          1           0        3.522223    1.382237   -1.403356
     21          1           0        1.983051    0.923417   -2.146498
 ---------------------------------------------------------------------

 SCF Done:  E(RwB97XD) =  -2940.03696981     A.U. after    1 cycles

 The electronic state is 1-A.
 Alpha  occ. eigenvalues -- -483.13023 -62.67885 -56.46988 -56.46653 -56.46638
 Alpha  occ. eigenvalues --  -19.20100 -14.49012 -10.38345 -10.34811 -10.32091
 Alpha  occ. eigenvalues --  -10.27220 -10.26719 -10.26028  -8.82003  -6.64119
 Alpha  occ. eigenvalues --   -6.63053  -6.63003  -2.74512  -2.74212  -2.74173
 Alpha  occ. eigenvalues --   -2.73310  -2.73310  -1.10671  -1.04367  -0.93139
 Alpha  occ. eigenvalues --   -0.86541  -0.82369  -0.79514  -0.76917  -0.69386
 Alpha  occ. eigenvalues --   -0.63721  -0.60986  -0.56521  -0.56056  -0.54788
 Alpha  occ. eigenvalues --   -0.52412  -0.51569  -0.48732  -0.48624  -0.47922
 Alpha  occ. eigenvalues --   -0.47003  -0.45265  -0.44837  -0.43919  -0.42281
 Alpha  occ. eigenvalues --   -0.37592  -0.37133  -0.31776  -0.27081
 Alpha virt. eigenvalues --    0.04487   0.06313   0.09508   0.13005   0.13943
 Alpha virt. eigenvalues --    0.14562   0.15537   0.16294   0.18030   0.18510
 Alpha virt. eigenvalues --    0.19207   0.19904   0.20545   0.21483   0.22151

 Mulliken charges:
               1
     1  C   -0.079984
     2  C    0.221226
     3  O   -0.520533
     4  C   -0.139399
     5  C   -0.275171
     6  H    0.157317
     7  H    0.153303
     8  H    0.151748
     9  N   -0.296963
    10  H    0.279776
    11  H    0.288139
    12  Br  -0.116815
    13  H    0.189430
    14  C   -0.386065
    15  H    0.125284
    16  H    0.118634
    17  H    0.119212
    18  C   -0.402238
    19  H    0.138909
    20  H    0.125939
    21  H    0.148252
 Sum of Mulliken charges =  -0.00000

 Dipole moment (field-independent basis, Debye):
    X=             -7.6089    Y=              7.3632    Z=              1.5072  Tot=             10.6950
 Quadrupole moment (field-independent basis, Debye-Ang):
   XX=            -93.4149   YY=            -59.9261   ZZ=            -63.7053
   XY=              1.8682   XZ=             -6.1338   YZ=              3.2884

  Exact polarizability: 207.602 -13.693 146.402  -0.125  -0.894 119.292
 Approx polarizability: 155.206  -8.312 117.994   1.989   0.224 102.320

 ******    1 imaginary frequencies (negative Signs) ******

                      1                      2                      3
                      A                      A                      A
 Frequencies --   -382.9752                60.4877                69.3597
 Red. masses --      6.7507                 2.7857                 2.3232
 Frc consts  --      0.5834                 0.0060                 0.0066
 IR Inten    --   1030.6094                 1.9647                 4.3018

                      4                      5                      6
                      A                      A                      A
 Frequencies --     96.1190               114.7181               146.9413
 Red. masses --      2.3879                 1.5805                 2.4907
 Frc consts  --      0.0130                 0.0123                 0.0317
 IR Inten    --      3.6827                 3.2994                 2.1160

                      7                      8                      9
                      A                      A                      A
 Frequencies --    151.1944               163.7537               182.4066
 Red. masses --      1.0902                 1.6212                 2.9974
 Frc consts  --      0.0147                 0.0256                 0.0588
 IR Inten    --      2.2654                 1.9310                11.5957

                     10                     11                     12
                      A                      A                      A
 Frequencies --    206.3377               256.3127               295.2284
 Red. masses --      2.1783                 3.7241                 3.0195
 Frc consts  --      0.0546                 0.1441                 0.1551
 IR Inten    --      5.8435                 7.3003                 9.9693

                     13                     14                     15
                      A                      A                      A
 Frequencies --    348.8097               447.5317               460.5676
 Red. masses --      4.0661                 3.8389                 3.7378
 Frc consts  --      0.2915                 0.4530                 0.4671
 IR Inten    --      2.2484               102.9500                73.2026

                     16                     17                     18
                      A                      A                      A
 Frequencies --    601.9648               621.6532               638.6844
 Red. masses --      3.8645                 1.8474                 2.4033
 Frc consts  --      0.8251                 0.4206                 0.5776
 IR Inten    --     51.8471                24.9619                27.9517

                     19                     20                     21
                      A                      A                      A
 Frequencies --    762.2808               782.1046               947.5816
 Red. masses --      2.2452                 3.5380                 2.1361
 Frc consts  --      0.7686                 1.2751                 1.1301
 IR Inten    --    224.0688                52.1592                16.6169

                     22                     23                     24
                      A                      A                      A
 Frequencies --   1002.7423              1010.6735              1032.1959
 Red. masses --      1.4579                 1.1316                 1.5174
 Frc consts  --      0.8637                 0.6810                 0.9525
 IR Inten    --    336.1846                33.1861                 6.5301

                     25                     26                     27
                      A                      A                      A
 Frequencies --   1043.8795              1064.1257              1074.2496
 Red. masses --      1.1608                 2.2145                 2.4271
 Frc consts  --      0.7452                 1.4774                 1.6502
 IR Inten    --    118.5325                52.7466                96.2341

                     28                     29                     30
                      A                      A                      A
 Frequencies --   1111.6907              1145.9183              1230.5788
 Red. masses --      1.9921                 1.1020                 1.3879
 Frc consts  --      1.4506                 0.8526                 1.2383
 IR Inten    --     26.4839                41.1286                31.7507

                     31                     32                     33
                      A                      A                      A
 Frequencies --   1268.5950              1343.4760              1368.4785
 Red. masses --      1.3401                 1.3173                 1.5550
 Frc consts  --      1.2707                 1.4009                 1.7157
 IR Inten    --     19.5015                 1.3063               297.8384

                     34                     35                     36
                      A                      A                      A
 Frequencies --   1408.6691              1420.7623              1454.3556
 Red. masses --      1.6974                 1.5612                 2.1414
 Frc consts  --      1.9845                 1.8567                 2.6686
 IR Inten    --    312.2268               325.4900               195.1789

                     37                     38                     39
                      A                      A                      A
 Frequencies --   1464.2277              1472.8071              1475.5948
 Red. masses --      1.2933                 1.0718                 1.0875
 Frc consts  --      1.6337                 1.3698                 1.3951
 IR Inten    --     78.7746                44.4829                23.0368

                     40                     41                     42
                      A                      A                      A
 Frequencies --   1484.7649              1492.8678              1504.0798
 Red. masses --      1.0454                 1.0404                 1.0343
 Frc consts  --      1.3579                 1.3661                 1.3786
 IR Inten    --     17.7622                16.1039                38.5125

                     43                     44                     45
                      A                      A                      A
 Frequencies --   1510.4881              1637.0073              1646.0877
 Red. masses --      1.4448                 7.7495                 1.1008
 Frc consts  --      1.9422                12.2356                 1.7574
 IR Inten    --    399.3702               806.1444                38.2016

                     46                     47                     48
                      A                      A                      A
 Frequencies --   3036.4900              3057.7315              3070.4468
 Red. masses --      1.0416                 1.0376                 1.0336
 Frc consts  --      5.6583                 5.7156                 5.7410
 IR Inten    --     75.5806                 9.9906                43.5640

                     49                     50                     51
                      A                      A                      A
 Frequencies --   3092.2346              3126.0042              3132.8415
 Red. masses --      1.0964                 1.1009                 1.1000
 Frc consts  --      6.1766                 6.3384                 6.3609
 IR Inten    --     43.3825                20.2373                29.0587

                     52                     53                     54
                      A                      A                      A
 Frequencies --   3148.6030              3159.5643              3170.7577
 Red. masses --      1.1054                 1.1022                 1.1052
 Frc consts  --      6.4568                 6.4826                 6.5464
 IR Inten    --     14.3239                29.9113                10.6603

                     55                     56                     57
                      A                      A                      A
 Frequencies --   3233.9477              3518.8916              3602.7231
 Red. masses --      1.0914                 1.0508                 1.0967
 Frc consts  --      6.7253                 7.6660                 8.3868
 IR Inten    --      2.0881                27.2977                47.5544

 - Thermochemistry -
 -------------------
 Temperature   298.150 Kelvin.  Pressure   1.00000 Atm.
 Atom     1 has atomic number  6 and mass  12.00000

 Molecular mass:   193.01023 amu.
 Principal axes and moments of inertia in atomic units:
                           1         2         3
     Eigenvalues --  1248.365052675.953833273.66134
           X            0.99815  -0.05577  -0.02416
           Y            0.05442   0.99709  -0.05332
           Z            0.02706   0.05191   0.99829
 This molecule is an asymmetric top.
 Rotational symmetry number  1.
 Warning -- assumption of classical behavior for rotation
           may cause significant error
 Rotational temperatures (Kelvin)      0.06938     0.03237     0.02646
 Rotational constants (GHZ):           1.44568     0.67443     0.55129
    1 imaginary frequencies ignored.
 Zero-point vibrational energy     462790.9 (Joules/Mol)
                                  110.60967 (Kcal/Mol)
 Warning -- explicit consideration of  15 degrees of freedom as
           vibrations may cause significant error
 Vibrational temperatures:     87.03    99.79   138.29   165.05   211.42
          (Kelvin)            217.53   235.61   262.44   296.87   368.78
                              424.77   501.86   643.90   662.65   866.09
                              894.42   918.92  1096.75  1125.27  1363.36
                             1442.72  1454.13  1485.10  1501.91  1531.04
                             1545.61  1599.48  1648.72  1770.53  1825.23
                             1932.96  1968.94  2026.76  2044.16  2092.49
                             2106.70  2119.04  2123.05  2136.25  2147.90
                             2164.04  2173.26  2355.29  2368.35  4368.83
                             4399.39  4417.69  4449.04  4497.62  4507.46
                             4530.14  4545.91  4562.01  4652.93  5062.90
                             5183.52

 Zero-point correction=                           0.176268 (Hartree/Particle)
 Thermal correction to Energy=                    0.188003
 Thermal correction to Enthalpy=                  0.188948
 Thermal correction to Gibbs Free Energy=         0.137356
 Sum of electronic and zero-point Energies=          -2939.860702
 Sum of electronic and thermal Energies=             -2939.848966
 Sum of electronic and thermal Enthalpies=           -2939.848022
 Sum of electronic and thermal Free Energies=        -2939.899614

                     E (Thermal)             CV                S
                      KCal/Mol        Cal/Mol-Kelvin    Cal/Mol-Kelvin
 Total                  117.974             39.767            108.584
 Electronic               0.000              0.000              0.000
 Translational            0.889              2.981             41.678
 Rotational               0.889              2.981             30.770
 Vibrational            116.196             33.805             36.136
 Vibration     1          0.597              1.973              4.441
 Vibration     2          0.598              1.969              4.171
 Vibration     3          0.603              1.952              3.532
 Vibration     4          0.608              1.937              3.187
 Vibration     5          0.617              1.906              2.711
 Vibration     6          0.619              1.901              2.657
 Vibration     7          0.623              1.887              2.506
 Vibration     8          0.630              1.864              2.304
 Vibration     9          0.641              1.831              2.076
 Vibration    10          0.666              1.752              1.687
 Vibration    11          0.689              1.683              1.444
 Vibration    12          0.726              1.578              1.172
 Vibration    13          0.807              1.366              0.803
 Vibration    14          0.818              1.338              0.764
 Vibration    15          0.960              1.028              0.446

 Optimization completed.
    -- Stationary point found.
 Normal termination of Gaussian 16 at Thu Feb 18 21:15:35 2021.
