 Gaussian 16, Revision A.03,
 Gaussian 16:  ES64L-G16RevA.03 25-Dec-2016

 ----------------------------------------------------------------------
 # wB97XD def2tzvp, opt=(ts, noeigen, calcfc, maxcycles=70, maxstep=8),
  freq=noraman, scrf=(iefpcm, solvent=water)
 ----------------------------------------------------------------------

 ------------------------
 1_iteration/TS-679-1.out
 ------------------------
 Symbolic Z-matrix:
 Charge =  0 Multiplicity = 1

 SCF Done:  E(RwB97XD) =  -3607.44325701     A.U. after   15 cycles
 Optimization completed.
    -- Stationary point found.
 Normal termination of Gaussian 16 at Fri Feb 19 15:10:06 2021.

 ---------------------------------------------------------------------
 #N Geom=AllCheck Guess=TCheck SCRF=Check GenChk RwB97XD/def2TZVP Freq
 ---------------------------------------------------------------------

 Structure from the checkpoint file:  "/beegfs/scratch/user/q/tla25/Gau-13247.chk"
 ------------------------
 1_iteration/TS-679-1.out
 ------------------------
 Charge =  0 Multiplicity = 1

                         Standard orientation:
 ---------------------------------------------------------------------
 Center     Atomic      Atomic             Coordinates (Angstroms)
 Number     Number       Type             X           Y           Z
 ---------------------------------------------------------------------
      1          6           0       -0.710531   -0.354491   -0.016808
      2          6           0        0.575639    0.289909   -0.209128
      3          8           0        0.651039    1.457219   -0.602328
      4          6           0       -1.849061    0.377469   -0.268298
      5          6           0       -3.394921    2.441799    1.075322
      6          1           0       -3.527811    3.049199    1.971112
      7          1           0       -3.086111    3.084809    0.252212
      8          1           0       -4.341411    1.969839    0.820942
      9          7           0       -2.381531    1.407679    1.274692
     10          1           0       -1.489161    1.807039    1.543062
     11          1           0       -2.652781    0.740319    1.988002
     12         35           0       -3.497711   -0.503431   -0.675898
     13          1           0       -1.706681    1.253589   -0.884818
     14         17           0       -0.810601   -1.926061    0.750822
     15          7           0        1.682769   -0.473231    0.058692
     16          6           0        3.037069   -0.134621   -0.023988
     17          6           0        3.512689    1.088829   -0.497338
     18          6           0        4.880279    1.324009   -0.541278
     19          6           0        5.790439    0.365129   -0.126098
     20          6           0        5.315749   -0.853161    0.342092
     21          6           0        3.956709   -1.101621    0.393862
     22          1           0        1.495829   -1.407131    0.385102
     23          1           0        2.814199    1.840869   -0.824688
     24          1           0        5.233339    2.278949   -0.911028
     25          1           0        6.853899    0.561299   -0.166488
     26          1           0        6.007559   -1.618291    0.671452
     27          1           0        3.597909   -2.055761    0.762542
 ---------------------------------------------------------------------

 SCF Done:  E(RwB97XD) =  -3607.44325701     A.U. after    1 cycles

 The electronic state is 1-A.
 Alpha  occ. eigenvalues -- -483.13864-101.69918 -62.68722 -56.47839 -56.47484
 Alpha  occ. eigenvalues --  -56.47466 -19.21152 -14.48822 -14.46748 -10.39554
 Alpha  occ. eigenvalues --  -10.38884 -10.33981 -10.32021 -10.31763 -10.29112
 Alpha  occ. eigenvalues --  -10.28957 -10.28939 -10.28333 -10.28298  -9.58444
 Alpha  occ. eigenvalues --   -8.82844  -7.33069  -7.32250  -7.32207  -6.65010
 Alpha  occ. eigenvalues --   -6.63872  -6.63812  -2.75399  -2.75076  -2.75029
 Alpha  occ. eigenvalues --   -2.74108  -2.74107  -1.14224  -1.04530  -1.04229
 Alpha  occ. eigenvalues --   -0.97878  -0.95415  -0.91559  -0.85542  -0.85184
 Alpha  occ. eigenvalues --   -0.83205  -0.79067  -0.74982  -0.71648  -0.68598
 Alpha  occ. eigenvalues --   -0.64945  -0.63987  -0.62976  -0.60290  -0.57995
 Alpha  occ. eigenvalues --   -0.56744  -0.55166  -0.54122  -0.53041  -0.52619
 Alpha  occ. eigenvalues --   -0.52077  -0.51105  -0.50126  -0.48462  -0.47894
 Alpha  occ. eigenvalues --   -0.47153  -0.45730  -0.44815  -0.42946  -0.42630
 Alpha  occ. eigenvalues --   -0.41553  -0.39860  -0.37909  -0.37405  -0.34554
 Alpha  occ. eigenvalues --   -0.33815  -0.30607  -0.27364
 Alpha virt. eigenvalues --    0.03233   0.05257   0.05336   0.08313   0.10007
 Alpha virt. eigenvalues --    0.12466   0.13052   0.14213   0.14853   0.15415
 Alpha virt. eigenvalues --    0.16335   0.16954   0.17635   0.18077   0.18711

 Mulliken charges:
               1
     1  C   -0.184837
     2  C    0.409443
     3  O   -0.542655
     4  C   -0.058570
     5  C   -0.273296
     6  H    0.155608
     7  H    0.153191
     8  H    0.152522
     9  N   -0.334168
    10  H    0.286414
    11  H    0.287240
    12  Br  -0.066303
    13  H    0.189571
    14  Cl  -0.159328
    15  N   -0.275665
    16  C    0.303087
    17  C   -0.294087
    18  C   -0.109956
    19  C   -0.196214
    20  C   -0.098161
    21  C   -0.309527
    22  H    0.234837
    23  H    0.162141
    24  H    0.141690
    25  H    0.141039
    26  H    0.143908
    27  H    0.142075
 Sum of Mulliken charges =  -0.00000

 Dipole moment (field-independent basis, Debye):
    X=             -4.2464    Y=              2.1517    Z=              4.7321  Tot=              6.7123
 Quadrupole moment (field-independent basis, Debye-Ang):
   XX=            -93.3181   YY=           -101.4575   ZZ=           -105.7728
   XY=            -16.5980   XZ=             -7.0361   YZ=              3.8793

  Exact polarizability: 350.744 -12.078 237.347  -3.995 -14.561 164.326
 Approx polarizability: 242.748  -3.454 204.774  -0.999 -15.713 147.476

 ******    1 imaginary frequencies (negative Signs) ******

                      1                      2                      3
                      A                      A                      A
 Frequencies --   -366.6750                17.4157                27.2406
 Red. masses --      6.8341                 3.9203                 6.6890
 Frc consts  --      0.5414                 0.0007                 0.0029
 IR Inten    --   1164.2328                 0.5586                 1.8160

                      4                      5                      6
                      A                      A                      A
 Frequencies --     48.5835                65.4483                77.7730
 Red. masses --      4.5923                 2.9385                 3.3885
 Frc consts  --      0.0064                 0.0074                 0.0121
 IR Inten    --      5.6197                 9.0608                 2.5612

                      7                      8                      9
                      A                      A                      A
 Frequencies --     81.1359               115.8842               152.1329
 Red. masses --      8.3016                 5.1075                 8.5737
 Frc consts  --      0.0322                 0.0404                 0.1169
 IR Inten    --      4.6507                 8.4970                 5.4112

                     10                     11                     12
                      A                      A                      A
 Frequencies --    161.0609               187.7577               214.5328
 Red. masses --      1.7552                 2.9208                 5.2097
 Frc consts  --      0.0268                 0.0607                 0.1413
 IR Inten    --      4.4247                 2.7869                17.1426

                     13                     14                     15
                      A                      A                      A
 Frequencies --    224.4759               248.5787               292.4503
 Red. masses --      6.2486                 4.5196                 3.4083
 Frc consts  --      0.1855                 0.1645                 0.1717
 IR Inten    --     31.2809                 1.6320                 2.3330

                     16                     17                     18
                      A                      A                      A
 Frequencies --    357.1639               416.6664               423.5801
 Red. masses --      7.6693                 7.6920                 3.1192
 Frc consts  --      0.5764                 0.7868                 0.3297
 IR Inten    --      3.1325                77.1979                 4.6189

                     19                     20                     21
                      A                      A                      A
 Frequencies --    466.7720               528.4439               551.8174
 Red. masses --     10.3624                 2.8129                 7.9487
 Frc consts  --      1.3302                 0.4628                 1.4261
 IR Inten    --     62.1965                34.2998                61.0150

                     22                     23                     24
                      A                      A                      A
 Frequencies --    574.4572               602.8072               635.5818
 Red. masses --      1.1392                 1.9976                 6.3675
 Frc consts  --      0.2215                 0.4277                 1.5155
 IR Inten    --    100.0585                 1.2922                 2.1003

                     25                     26                     27
                      A                      A                      A
 Frequencies --    666.2992               719.0152               736.8133
 Red. masses --      4.3189                 1.8909                 2.7536
 Frc consts  --      1.1297                 0.5760                 0.8808
 IR Inten    --     15.8703                63.7371               125.9466

                     28                     29                     30
                      A                      A                      A
 Frequencies --    763.6009               784.8028               848.2821
 Red. masses --      9.4219                 1.8203                 4.4014
 Frc consts  --      3.2369                 0.6606                 1.8660
 IR Inten    --     29.9487               101.6289                68.2844

                     31                     32                     33
                      A                      A                      A
 Frequencies --    862.6676               873.9624               933.8023
 Red. masses --      1.2588                 5.7391                 1.4653
 Frc consts  --      0.5519                 2.5827                 0.7528
 IR Inten    --      0.1281                 5.5349                12.9169

                     34                     35                     36
                      A                      A                      A
 Frequencies --   1002.4199              1010.8444              1018.9547
 Red. masses --      1.3482                 1.0827                 1.2850
 Frc consts  --      0.7982                 0.6518                 0.7861
 IR Inten    --      0.0146                14.4813                 0.5877

                     37                     38                     39
                      A                      A                      A
 Frequencies --   1020.3285              1038.0092              1055.2242
 Red. masses --      5.9091                 1.1415                 3.3277
 Frc consts  --      3.6246                 0.7247                 2.1831
 IR Inten    --      7.2721               116.8049                41.4976

                     40                     41                     42
                      A                      A                      A
 Frequencies --   1066.9085              1076.9559              1123.8799
 Red. masses --      2.8740                 3.1984                 1.5608
 Frc consts  --      1.9275                 2.1856                 1.1615
 IR Inten    --     91.2199               178.0537                 9.2812

                     43                     44                     45
                      A                      A                      A
 Frequencies --   1144.5871              1183.0671              1208.8469
 Red. masses --      1.1601                 1.1227                 1.1394
 Frc consts  --      0.8954                 0.9259                 0.9810
 IR Inten    --    105.9615                 3.6246                32.7146

                     46                     47                     48
                      A                      A                      A
 Frequencies --   1220.8748              1228.9822              1266.8635
 Red. masses --      1.3710                 1.3331                 2.3660
 Frc consts  --      1.2040                 1.1864                 2.2373
 IR Inten    --     25.2945                73.1752               550.6707

                     49                     50                     51
                      A                      A                      A
 Frequencies --   1278.3916              1345.4441              1347.3215
 Red. masses --      4.4898                 1.3623                 3.9266
 Frc consts  --      4.3232                 1.4530                 4.1996
 IR Inten    --     10.9838                26.7598               668.4506

                     52                     53                     54
                      A                      A                      A
 Frequencies --   1362.2664              1433.7423              1463.7118
 Red. masses --      1.5093                 4.0782                 1.2832
 Frc consts  --      1.6503                 4.9392                 1.6198
 IR Inten    --     35.4610               975.1388                91.8165

                     55                     56                     57
                      A                      A                      A
 Frequencies --   1482.4799              1491.5022              1503.7711
 Red. masses --      2.2151                 1.0407                 1.0348
 Frc consts  --      2.8683                 1.3640                 1.3787
 IR Inten    --    372.7167                18.6435                 9.3960

                     58                     59                     60
                      A                      A                      A
 Frequencies --   1547.0626              1572.0639              1640.1915
 Red. masses --      2.4225                 2.1511                 1.1038
 Frc consts  --      3.4161                 3.1321                 1.7496
 IR Inten    --    162.0641               938.0329                42.7604

                     61                     62                     63
                      A                      A                      A
 Frequencies --   1659.4132              1665.6499              1682.4025
 Red. masses --      6.8583                 4.0223                 6.6797
 Frc consts  --     11.1269                 6.5750                11.1395
 IR Inten    --    205.3635               113.2941               294.3835

                     64                     65                     66
                      A                      A                      A
 Frequencies --   3069.0770              3146.4940              3170.7024
 Red. masses --      1.0341                 1.1047                 1.1052
 Frc consts  --      5.7388                 6.4436                 6.5465
 IR Inten    --     49.1246                14.9830                11.3256

                     67                     68                     69
                      A                      A                      A
 Frequencies --   3188.1334              3197.3332              3207.1022
 Red. masses --      1.0879                 1.0883                 1.0932
 Frc consts  --      6.5151                 6.5553                 6.6251
 IR Inten    --     12.5359                 2.3928                29.4010

                     70                     71                     72
                      A                      A                      A
 Frequencies --   3222.0818              3227.4826              3273.1499
 Red. masses --      1.0980                 1.0901                 1.0922
 Frc consts  --      6.7161                 6.6903                 6.8944
 IR Inten    --     22.8075                 5.6293                 5.9142

                     73                     74                     75
                      A                      A                      A
 Frequencies --   3521.1336              3605.3306              3631.7188
 Red. masses --      1.0506                 1.0968                 1.0764
 Frc consts  --      7.6747                 8.4001                 8.3645
 IR Inten    --     28.6638                52.4219                92.5904

 - Thermochemistry -
 -------------------
 Temperature   298.150 Kelvin.  Pressure   1.00000 Atm.
 Atom     1 has atomic number  6 and mass  12.00000

 Molecular mass:   289.98215 amu.
 Principal axes and moments of inertia in atomic units:
                           1         2         3
     Eigenvalues --  1850.36448********************
           X            0.99974  -0.01860  -0.01332
           Y            0.01881   0.99970   0.01578
           Z            0.01303  -0.01602   0.99979
 This molecule is an asymmetric top.
 Rotational symmetry number  1.
 Warning -- assumption of classical behavior for rotation
           may cause significant error
 Rotational temperatures (Kelvin)      0.04681     0.00786     0.00723
 Rotational constants (GHZ):           0.97534     0.16385     0.15059
    1 imaginary frequencies ignored.
 Zero-point vibrational energy     551854.7 (Joules/Mol)
                                  131.89645 (Kcal/Mol)
 Warning -- explicit consideration of  22 degrees of freedom as
           vibrations may cause significant error
 Vibrational temperatures:     25.06    39.19    69.90    94.17   111.90
          (Kelvin)            116.74   166.73   218.89   231.73   270.14
                              308.66   322.97   357.65   420.77   513.88
                              599.49   609.44   671.58   760.31   793.94
                              826.52   867.31   914.46   958.66  1034.50
                             1060.11  1098.65  1129.16  1220.49  1241.19
                             1257.44  1343.53  1442.26  1454.38  1466.05
                             1468.03  1493.46  1518.23  1535.04  1549.50
                             1617.01  1646.81  1702.17  1739.26  1756.57
                             1768.23  1822.73  1839.32  1935.79  1938.50
                             1960.00  2062.84  2105.95  2132.96  2145.94
                             2163.59  2225.88  2261.85  2359.87  2387.53
                             2396.50  2420.60  4415.72  4527.10  4561.93
                             4587.01  4600.25  4614.30  4635.86  4643.63
                             4709.33  5066.13  5187.27  5225.23

 Zero-point correction=                           0.210190 (Hartree/Particle)
 Thermal correction to Energy=                    0.225782
 Thermal correction to Enthalpy=                  0.226726
 Thermal correction to Gibbs Free Energy=         0.163237
 Sum of electronic and zero-point Energies=          -3607.233067
 Sum of electronic and thermal Energies=             -3607.217475
 Sum of electronic and thermal Enthalpies=           -3607.216531
 Sum of electronic and thermal Free Energies=        -3607.280020

                     E (Thermal)             CV                S
                      KCal/Mol        Cal/Mol-Kelvin    Cal/Mol-Kelvin
 Total                  141.680             54.970            133.624
 Electronic               0.000              0.000              0.000
 Translational            0.889              2.981             42.892
 Rotational               0.889              2.981             33.857
 Vibrational            139.903             49.008             56.876
 Vibration     1          0.593              1.986              6.909
 Vibration     2          0.593              1.984              6.021
 Vibration     3          0.595              1.978              4.874
 Vibration     4          0.597              1.971              4.286
 Vibration     5          0.599              1.964              3.946
 Vibration     6          0.600              1.962              3.863
 Vibration     7          0.608              1.936              3.168
 Vibration     8          0.619              1.900              2.645
 Vibration     9          0.622              1.890              2.537
 Vibration    10          0.632              1.857              2.250
 Vibration    11          0.644              1.819              2.005
 Vibration    12          0.649              1.804              1.923
 Vibration    13          0.662              1.765              1.741
 Vibration    14          0.688              1.688              1.460
 Vibration    15          0.732              1.561              1.134
 Vibration    16          0.780              1.434              0.903
 Vibration    17          0.786              1.419              0.880
 Vibration    18          0.824              1.324              0.747
 Vibration    19          0.883              1.187              0.591
 Vibration    20          0.907              1.136              0.540
 Vibration    21          0.931              1.087              0.496
 Vibration    22          0.961              1.026              0.445

 Optimization completed.
    -- Stationary point found.
 Normal termination of Gaussian 16 at Fri Feb 19 15:54:28 2021.
