 Gaussian 16, Revision A.03,
 Gaussian 16:  ES64L-G16RevA.03 25-Dec-2016

 ----------------------------------------------------------------------
 # wB97XD def2tzvp, opt=(ts, noeigen, calcfc, maxcycles=70, maxstep=5),
  freq=noraman, scrf=(iefpcm, solvent=water)
 ----------------------------------------------------------------------

 ------------------------
 2_iteration/TS-664-2.out
 ------------------------
 Symbolic Z-matrix:
 Charge =  0 Multiplicity = 1

 SCF Done:  E(RwB97XD) =  -3131.77220570     A.U. after   15 cycles
 SCF Done:  E(RwB97XD) =  -3131.77220572     A.U. after    6 cycles
 Optimization completed.
    -- Stationary point found.
 Normal termination of Gaussian 16 at Sat Feb 20 16:45:48 2021.

 ---------------------------------------------------------------------
 #N Geom=AllCheck Guess=TCheck SCRF=Check GenChk RwB97XD/def2TZVP Freq
 ---------------------------------------------------------------------

 Structure from the checkpoint file:  "/beegfs/scratch/user/q/tla25/Gau-107199.chk"
 ------------------------
 2_iteration/TS-664-2.out
 ------------------------
 Charge =  0 Multiplicity = 1

                         Standard orientation:
 ---------------------------------------------------------------------
 Center     Atomic      Atomic             Coordinates (Angstroms)
 Number     Number       Type             X           Y           Z
 ---------------------------------------------------------------------
      1          6           0        0.573177    1.313233    0.212026
      2          6           0       -0.808400    1.675714    0.242521
      3          8           0       -1.216967    2.810736    0.523373
      4          6           0        0.896760   -0.014554   -0.011280
      5          6           0        0.851709   -2.450016    1.527597
      6          1           0        0.867992   -2.952323    2.495189
      7          1           0       -0.107381   -2.638384    1.046233
      8          1           0        1.647605   -2.853092    0.903708
      9          7           0        1.037234   -1.007596    1.662808
     10          1           0        0.298458   -0.583812    2.212239
     11          1           0        1.923763   -0.777532    2.096988
     12         35           0        2.622911   -0.449500   -0.754366
     13          1           0        0.156904   -0.693153   -0.407140
     14          6           0        1.612962    2.341847    0.557743
     15          1           0        2.253913    2.014851    1.381487
     16          1           0        2.266430    2.567905   -0.289288
     17          1           0        1.121381    3.264857    0.859562
     18          6           0       -1.851094    0.630592   -0.074124
     19          6           0       -2.630470    0.107394    0.952677
     20          6           0       -3.614887   -0.830569    0.678806
     21          6           0       -3.838115   -1.244390   -0.627304
     22          6           0       -3.071639   -0.717403   -1.656990
     23          6           0       -2.079730    0.212963   -1.381122
     24          1           0       -2.462536    0.434103    1.972371
     25          1           0       -4.209269   -1.238792    1.486589
     26          1           0       -4.607716   -1.974994   -0.841682
     27          1           0       -3.243669   -1.033397   -2.678271
     28          1           0       -1.474319    0.614693   -2.185129
 ---------------------------------------------------------------------

 SCF Done:  E(RwB97XD) =  -3131.77220572     A.U. after    1 cycles

 The electronic state is 1-A.
 Alpha  occ. eigenvalues -- -483.13403 -62.68259 -56.47366 -56.47028 -56.47010
 Alpha  occ. eigenvalues --  -19.20848 -14.48550 -10.38465 -10.35553 -10.32016
 Alpha  occ. eigenvalues --  -10.29832 -10.29313 -10.29298 -10.29234 -10.29223
 Alpha  occ. eigenvalues --  -10.29078 -10.26910 -10.26872  -8.82375  -6.64503
 Alpha  occ. eigenvalues --   -6.63424  -6.63363  -2.74897  -2.74593  -2.74545
 Alpha  occ. eigenvalues --   -2.73672  -2.73671  -1.11461  -1.03990  -0.96866
 Alpha  occ. eigenvalues --   -0.93667  -0.87489  -0.85405  -0.85310  -0.79335
 Alpha  occ. eigenvalues --   -0.78224  -0.72991  -0.70667  -0.68671  -0.63621
 Alpha  occ. eigenvalues --   -0.63091  -0.60648  -0.57305  -0.56070  -0.55370
 Alpha  occ. eigenvalues --   -0.54058  -0.53427  -0.52463  -0.51199  -0.49908
 Alpha  occ. eigenvalues --   -0.48622  -0.48336  -0.46897  -0.45959  -0.45371
 Alpha  occ. eigenvalues --   -0.44920  -0.44499  -0.43842  -0.42540  -0.37815
 Alpha  occ. eigenvalues --   -0.37304  -0.34355  -0.33953  -0.31803  -0.27716
 Alpha virt. eigenvalues --    0.03188   0.04909   0.05321   0.06671   0.09812
 Alpha virt. eigenvalues --    0.12759   0.13076   0.13863   0.14819   0.15641
 Alpha virt. eigenvalues --    0.16443   0.16790   0.17997   0.18592   0.19220

 Mulliken charges:
               1
     1  C   -0.135234
     2  C    0.235409
     3  O   -0.510670
     4  C   -0.105321
     5  C   -0.279182
     6  H    0.156473
     7  H    0.153983
     8  H    0.151613
     9  N   -0.322174
    10  H    0.274433
    11  H    0.286934
    12  Br  -0.090516
    13  H    0.194842
    14  C   -0.406135
    15  H    0.123932
    16  H    0.128594
    17  H    0.131377
    18  C    0.178557
    19  C   -0.250373
    20  C   -0.134501
    21  C   -0.153420
    22  C   -0.119389
    23  C   -0.242447
    24  H    0.150944
    25  H    0.144243
    26  H    0.145641
    27  H    0.144927
    28  H    0.147463
 Sum of Mulliken charges =  -0.00000

 Dipole moment (field-independent basis, Debye):
    X=              2.4906    Y=             -9.2890    Z=              3.6681  Tot=             10.2929
 Quadrupole moment (field-independent basis, Debye-Ang):
   XX=            -96.8876   YY=           -110.0924   ZZ=            -83.0982
   XY=             10.3689   XZ=              6.6509   YZ=             -7.6679

  Exact polarizability: 249.257  -1.681 238.720  -8.027  -1.668 209.580
 Approx polarizability: 190.317   0.220 192.655  -8.440   1.228 180.187

 ******    1 imaginary frequencies (negative Signs) ******

                      1                      2                      3
                      A                      A                      A
 Frequencies --   -377.5690                29.8530                35.6839
 Red. masses --      6.4836                 4.2296                 4.1170
 Frc consts  --      0.5446                 0.0022                 0.0031
 IR Inten    --   1005.2592                 1.3060                 2.7223

                      4                      5                      6
                      A                      A                      A
 Frequencies --     50.0908                68.4647                74.3300
 Red. masses --      3.2883                 3.9819                 1.4569
 Frc consts  --      0.0049                 0.0110                 0.0047
 IR Inten    --      0.6940                 1.4777                 3.0320

                      7                      8                      9
                      A                      A                      A
 Frequencies --     92.0963               129.6105               158.0165
 Red. masses --      1.8869                 2.7329                 1.8160
 Frc consts  --      0.0094                 0.0270                 0.0267
 IR Inten    --      3.0101                 3.7661                 1.8041

                     10                     11                     12
                      A                      A                      A
 Frequencies --    167.7298               203.1418               217.4295
 Red. masses --      3.7167                 2.0969                 5.6257
 Frc consts  --      0.0616                 0.0510                 0.1567
 IR Inten    --     11.7527                 0.7726                 2.7548

                     13                     14                     15
                      A                      A                      A
 Frequencies --    250.5312               279.8859               330.0662
 Red. masses --      3.4857                 3.2521                 4.8327
 Frc consts  --      0.1289                 0.1501                 0.3102
 IR Inten    --     11.4836                 4.1014                 2.1147

                     16                     17                     18
                      A                      A                      A
 Frequencies --    353.9356               387.5142               414.7470
 Red. masses --      4.7927                 5.2128                 2.8792
 Frc consts  --      0.3537                 0.4612                 0.2918
 IR Inten    --     13.3708                12.9063                 0.4832

                     19                     20                     21
                      A                      A                      A
 Frequencies --    483.5291               580.5663               621.2365
 Red. masses --      4.8754                 3.2186                 1.5750
 Frc consts  --      0.6716                 0.6392                 0.3581
 IR Inten    --    155.2410                 6.1798                 7.8508

                     22                     23                     24
                      A                      A                      A
 Frequencies --    634.4030               656.9906               728.7699
 Red. masses --      6.1084                 5.3351                 1.5508
 Frc consts  --      1.4485                 1.3568                 0.4853
 IR Inten    --      0.5158                79.3540                91.5574

                     25                     26                     27
                      A                      A                      A
 Frequencies --    753.4874               767.5144               773.1978
 Red. masses --      3.5172                 3.5009                 4.3161
 Frc consts  --      1.1765                 1.2151                 1.5203
 IR Inten    --     24.0753               219.3286                32.7934

                     28                     29                     30
                      A                      A                      A
 Frequencies --    810.9780               881.2599               929.2460
 Red. masses --      2.8318                 1.2457                 2.5460
 Frc consts  --      1.0973                 0.5700                 1.2953
 IR Inten    --     75.3786                 0.1817                22.6964

                     31                     32                     33
                      A                      A                      A
 Frequencies --    965.0626              1000.4339              1011.4002
 Red. masses --      1.6240                 1.0680                 1.3764
 Frc consts  --      0.8912                 0.6298                 0.8295
 IR Inten    --     72.4904                 6.0377                 0.7779

                     34                     35                     36
                      A                      A                      A
 Frequencies --   1024.6503              1027.6590              1029.5306
 Red. masses --      4.9677                 1.4691                 1.3009
 Frc consts  --      3.0730                 0.9141                 0.8124
 IR Inten    --     28.2456                60.0888               117.5471

                     37                     38                     39
                      A                      A                      A
 Frequencies --   1031.9261              1061.0279              1063.8183
 Red. masses --      1.4775                 1.7648                 1.9589
 Frc consts  --      0.9270                 1.1705                 1.3062
 IR Inten    --    154.6568                29.3835                 6.4046

                     40                     41                     42
                      A                      A                      A
 Frequencies --   1074.8484              1110.4210              1132.8292
 Red. masses --      3.0932                 1.5530                 1.0911
 Frc consts  --      2.1055                 1.1282                 0.8250
 IR Inten    --    102.8488                14.4452                52.9316

                     43                     44                     45
                      A                      A                      A
 Frequencies --   1183.6198              1189.9442              1207.7087
 Red. masses --      1.1397                 2.1204                 1.1229
 Frc consts  --      0.9407                 1.7689                 0.9650
 IR Inten    --      0.0407                 0.7600                 0.3946

                     46                     47                     48
                      A                      A                      A
 Frequencies --   1221.3624              1272.0032              1318.2662
 Red. masses --      1.4148                 1.6224                 4.4333
 Frc consts  --      1.2435                 1.5467                 4.5392
 IR Inten    --     19.4825                33.7562                 4.1923

                     49                     50                     51
                      A                      A                      A
 Frequencies --   1341.9350              1359.6150              1391.4840
 Red. masses --      1.3298                 1.4427                 2.1467
 Frc consts  --      1.4109                 1.5713                 2.4489
 IR Inten    --      0.3672                 2.0467               555.3012

                     52                     53                     54
                      A                      A                      A
 Frequencies --   1409.2786              1456.4653              1466.7928
 Red. masses --      1.6325                 2.9022                 1.4579
 Frc consts  --      1.9103                 3.6273                 1.8480
 IR Inten    --    479.1184               229.8101                81.4487

                     55                     56                     57
                      A                      A                      A
 Frequencies --   1485.9651              1487.0847              1490.5218
 Red. masses --      1.1691                 1.8575                 1.0403
 Frc consts  --      1.5210                 2.4202                 1.3618
 IR Inten    --    132.6859                26.9460                14.3819

                     58                     59                     60
                      A                      A                      A
 Frequencies --   1493.6562              1507.9252              1540.5131
 Red. masses --      1.1700                 1.0320                 2.3488
 Frc consts  --      1.5380                 1.3825                 3.2842
 IR Inten    --    218.2724                 8.7015                 6.7182

                     61                     62                     63
                      A                      A                      A
 Frequencies --   1624.3014              1643.4243              1648.6679
 Red. masses --     10.9233                 1.0878                 5.8357
 Frc consts  --     16.9800                 1.7310                 9.3456
 IR Inten    --    864.3203                57.4254                20.0283

                     64                     65                     66
                      A                      A                      A
 Frequencies --   1674.0099              3035.5229              3066.5537
 Red. masses --      5.8509                 1.0399                 1.0331
 Frc consts  --      9.6603                 5.6458                 5.7238
 IR Inten    --      0.5901                69.3460                43.6108

                     67                     68                     69
                      A                      A                      A
 Frequencies --   3085.8886              3144.6125              3150.8470
 Red. masses --      1.1015                 1.1054                 1.0966
 Frc consts  --      6.1801                 6.4403                 6.4141
 IR Inten    --     39.8486                14.8613                11.4194

                     70                     71                     72
                      A                      A                      A
 Frequencies --   3162.5911              3189.4583              3191.9247
 Red. masses --      1.1055                 1.0871                 1.0883
 Frc consts  --      6.5149                 6.5153                 6.5328
 IR Inten    --     11.8624                 5.5904                 3.4231

                     73                     74                     75
                      A                      A                      A
 Frequencies --   3202.1713              3210.3904              3221.8206
 Red. masses --      1.0908                 1.0948                 1.0987
 Frc consts  --      6.5902                 6.6484                 6.7195
 IR Inten    --      6.1019                37.4648                19.3567

                     76                     77                     78
                      A                      A                      A
 Frequencies --   3239.9805              3522.3666              3608.4869
 Red. masses --      1.0916                 1.0504                 1.0967
 Frc consts  --      6.7515                 7.6786                 8.4136
 IR Inten    --      3.2167                24.3661                50.8115

 - Thermochemistry -
 -------------------
 Temperature   298.150 Kelvin.  Pressure   1.00000 Atm.
 Atom     1 has atomic number  6 and mass  12.00000

 Molecular mass:   255.02588 amu.
 Principal axes and moments of inertia in atomic units:
                           1         2         3
     Eigenvalues --  2413.323495631.049786365.27171
           X            0.99894   0.03676   0.02761
           Y           -0.03531   0.99806  -0.05124
           Z           -0.02944   0.05021   0.99830
 This molecule is an asymmetric top.
 Rotational symmetry number  1.
 Warning -- assumption of classical behavior for rotation
           may cause significant error
 Rotational temperatures (Kelvin)      0.03589     0.01538     0.01361
 Rotational constants (GHZ):           0.74782     0.32050     0.28353
    1 imaginary frequencies ignored.
 Zero-point vibrational energy     603187.5 (Joules/Mol)
                                  144.16527 (Kcal/Mol)
 Warning -- explicit consideration of  19 degrees of freedom as
           vibrations may cause significant error
 Vibrational temperatures:     42.95    51.34    72.07    98.51   106.94
          (Kelvin)            132.51   186.48   227.35   241.33   292.28
                              312.83   360.46   402.69   474.89   509.23
                              557.55   596.73   695.69   835.31   893.82
                              912.76   945.26  1048.54  1084.10  1104.28
                             1112.46  1166.82  1267.94  1336.98  1388.51
                             1439.40  1455.18  1474.24  1478.57  1481.26
                             1484.71  1526.58  1530.60  1546.47  1597.65
                             1629.89  1702.96  1712.06  1737.62  1757.27
                             1830.13  1896.69  1930.75  1956.18  2002.04
                             2027.64  2095.53  2110.39  2137.97  2139.58
                             2144.53  2149.04  2169.57  2216.45  2337.01
                             2364.52  2372.07  2408.53  4367.44  4412.09
                             4439.91  4524.40  4533.37  4550.26  4588.92
                             4592.47  4607.21  4619.04  4635.48  4661.61
                             5067.90  5191.81

 Zero-point correction=                           0.229742 (Hartree/Particle)
 Thermal correction to Energy=                    0.244717
 Thermal correction to Enthalpy=                  0.245662
 Thermal correction to Gibbs Free Energy=         0.184762
 Sum of electronic and zero-point Energies=          -3131.542464
 Sum of electronic and thermal Energies=             -3131.527488
 Sum of electronic and thermal Enthalpies=           -3131.526544
 Sum of electronic and thermal Free Energies=        -3131.587443

                     E (Thermal)             CV                S
                      KCal/Mol        Cal/Mol-Kelvin    Cal/Mol-Kelvin
 Total                  153.562             52.865            128.173
 Electronic               0.000              0.000              0.000
 Translational            0.889              2.981             42.509
 Rotational               0.889              2.981             32.825
 Vibrational            151.785             46.903             52.839
 Vibration     1          0.594              1.984              5.839
 Vibration     2          0.594              1.982              5.485
 Vibration     3          0.595              1.978              4.814
 Vibration     4          0.598              1.969              4.197
 Vibration     5          0.599              1.966              4.035
 Vibration     6          0.602              1.955              3.615
 Vibration     7          0.612              1.924              2.952
 Vibration     8          0.621              1.894              2.573
 Vibration     9          0.624              1.882              2.461
 Vibration    10          0.639              1.835              2.104
 Vibration    11          0.646              1.815              1.980
 Vibration    12          0.663              1.762              1.727
 Vibration    13          0.680              1.711              1.534
 Vibration    14          0.713              1.615              1.260
 Vibration    15          0.730              1.567              1.149
 Vibration    16          0.756              1.497              1.010
 Vibration    17          0.778              1.438              0.910
 Vibration    18          0.840              1.287              0.701
 Vibration    19          0.937              1.073              0.484

 Optimization completed.
    -- Stationary point found.
 Normal termination of Gaussian 16 at Sat Feb 20 17:36:30 2021.
