 Gaussian 16, Revision A.03,
 Gaussian 16:  ES64L-G16RevA.03 25-Dec-2016

 ----------------------------------------------------------------------
 # wB97XD def2tzvp, opt=(ts, noeigen, calcfc, maxcycles=70, maxstep=3),
  freq=noraman, scrf=(iefpcm, solvent=water)
 ----------------------------------------------------------------------

 ------------------------
 3_iteration/TS-602-3.out
 ------------------------
 Symbolic Z-matrix:
 Charge =  0 Multiplicity = 1

 SCF Done:  E(RwB97XD) =  -3362.81337145     A.U. after   15 cycles
 SCF Done:  E(RwB97XD) =  -3362.81337158     A.U. after    9 cycles
 Optimization completed.
    -- Stationary point found.
 Normal termination of Gaussian 16 at Sun Feb 21 05:59:12 2021.

 ---------------------------------------------------------------------
 #N Geom=AllCheck Guess=TCheck SCRF=Check GenChk RwB97XD/def2TZVP Freq
 ---------------------------------------------------------------------

 Structure from the checkpoint file:  "/beegfs/scratch/user/q/tla25/Gau-15533.chk"
 ------------------------
 3_iteration/TS-602-3.out
 ------------------------
 Charge =  0 Multiplicity = 1

                         Standard orientation:
 ---------------------------------------------------------------------
 Center     Atomic      Atomic             Coordinates (Angstroms)
 Number     Number       Type             X           Y           Z
 ---------------------------------------------------------------------
      1          6           0        0.535532    0.866315   -0.106953
      2          6           0        0.241383    2.254266   -0.398407
      3          8           0        1.131420    3.104650   -0.285820
      4          6           0       -0.383919   -0.173518    0.004911
      5          6           0       -1.053369   -2.034624    2.201452
      6          1           0       -0.782160   -2.397354    3.193299
      7          1           0       -2.068366   -1.644126    2.227947
      8          1           0       -1.004299   -2.858190    1.492708
      9          7           0       -0.141201   -0.977707    1.766875
     10          1           0       -0.168404   -0.184739    2.398061
     11          1           0        0.818151   -1.306213    1.734207
     12         35           0        0.119732   -1.871661   -0.959388
     13          6           0       -1.859672    0.042255    0.029951
     14          6           0       -2.714966   -0.458479   -0.944944
     15          6           0       -4.072299   -0.177528   -0.902671
     16          6           0       -4.597432    0.588365    0.125769
     17          6           0       -3.754587    1.078308    1.113370
     18          6           0       -2.399427    0.808424    1.063284
     19          1           0       -2.320995   -1.056144   -1.754172
     20          1           0       -4.720211   -0.564495   -1.678390
     21          1           0       -5.658329    0.799826    0.161116
     22          1           0       -4.151588    1.676271    1.923247
     23          1           0       -1.751511    1.220725    1.826159
     24          6           0        1.994699    0.568820    0.048283
     25          6           0        2.787311    0.298875   -1.066383
     26          6           0        4.139910    0.027060   -0.935012
     27          6           0        4.732297    0.023390    0.321095
     28          6           0        3.962403    0.305604    1.438594
     29          6           0        2.607895    0.579798    1.299085
     30          1           0        2.331109    0.299626   -2.048794
     31          1           0        4.734448   -0.183687   -1.815484
     32          1           0        5.788264   -0.191899    0.425846
     33          1           0        4.414944    0.319012    2.422373
     34          1           0        2.025757    0.830589    2.178228
     35          6           0       -1.085366    2.745721   -0.949050
     36          1           0       -1.649040    1.995249   -1.495761
     37          1           0       -1.714029    3.119169   -0.139686
     38          1           0       -0.859660    3.582922   -1.608107
 ---------------------------------------------------------------------

 SCF Done:  E(RwB97XD) =  -3362.81337158     A.U. after    1 cycles

 The electronic state is 1-A.
 Alpha  occ. eigenvalues -- -483.12251 -62.67087 -56.46188 -56.45862 -56.45846
 Alpha  occ. eigenvalues --  -19.20537 -14.49296 -10.40865 -10.35910 -10.31941
 Alpha  occ. eigenvalues --  -10.31757 -10.30227 -10.30046 -10.29901 -10.29784
 Alpha  occ. eigenvalues --  -10.29783 -10.29745 -10.28828 -10.28747 -10.28692
 Alpha  occ. eigenvalues --  -10.28673 -10.28466 -10.27304 -10.26969  -8.81173
 Alpha  occ. eigenvalues --   -6.63260  -6.62239  -6.62185  -2.73648  -2.73374
 Alpha  occ. eigenvalues --   -2.73332  -2.72505  -2.72504  -1.11461  -1.04793
 Alpha  occ. eigenvalues --   -0.98446  -0.96585  -0.93075  -0.87254  -0.86681
 Alpha  occ. eigenvalues --   -0.85662  -0.84789  -0.83394  -0.80877  -0.79073
 Alpha  occ. eigenvalues --   -0.74288  -0.71505  -0.70078  -0.68992  -0.67987
 Alpha  occ. eigenvalues --   -0.64510  -0.63069  -0.61333  -0.58999  -0.57410
 Alpha  occ. eigenvalues --   -0.56723  -0.56129  -0.55201  -0.54471  -0.53888
 Alpha  occ. eigenvalues --   -0.53106  -0.52128  -0.51541  -0.51382  -0.50564
 Alpha  occ. eigenvalues --   -0.49269  -0.48924  -0.47985  -0.47862  -0.46368
 Alpha  occ. eigenvalues --   -0.45653  -0.44976  -0.44416  -0.43554  -0.42497
 Alpha  occ. eigenvalues --   -0.42314  -0.41553  -0.37675  -0.37036  -0.34608
 Alpha  occ. eigenvalues --   -0.34260  -0.33455  -0.32779  -0.31984  -0.27904
 Alpha virt. eigenvalues --    0.00351   0.04257   0.04643   0.05392   0.05524
 Alpha virt. eigenvalues --    0.06987   0.09782   0.12566   0.12955   0.13591
 Alpha virt. eigenvalues --    0.14149   0.14226   0.14868   0.16055   0.16654

 Mulliken charges:
               1
     1  C   -0.208274
     2  C    0.251043
     3  O   -0.500774
     4  C    0.221749
     5  C   -0.278066
     6  H    0.160470
     7  H    0.159861
     8  H    0.154650
     9  N   -0.334240
    10  H    0.279757
    11  H    0.296329
    12  Br  -0.168341
    13  C    0.120081
    14  C   -0.174685
    15  C   -0.145925
    16  C   -0.130077
    17  C   -0.108056
    18  C   -0.378221
    19  H    0.150219
    20  H    0.147168
    21  H    0.149264
    22  H    0.148883
    23  H    0.167593
    24  C    0.286029
    25  C   -0.257212
    26  C   -0.145555
    27  C   -0.143510
    28  C   -0.149145
    29  C   -0.323669
    30  H    0.143604
    31  H    0.138978
    32  H    0.141872
    33  H    0.139757
    34  H    0.147739
    35  C   -0.377203
    36  H    0.137236
    37  H    0.146624
    38  H    0.134049
 Sum of Mulliken charges =  -0.00000

 Dipole moment (field-independent basis, Debye):
    X=             -5.9563    Y=             -6.0492    Z=              5.7315  Tot=             10.2430
 Quadrupole moment (field-independent basis, Debye-Ang):
   XX=           -116.4534   YY=           -150.7374   ZZ=           -112.5762
   XY=            -13.2652   XZ=              0.4420   YZ=             -1.2198

  Exact polarizability: 382.419  -2.324 313.902  -1.297  11.994 305.691
 Approx polarizability: 288.293  -3.138 252.560   0.698  17.488 264.763

 ******    1 imaginary frequencies (negative Signs) ******

                      1                      2                      3
                      A                      A                      A
 Frequencies --   -351.3636                25.6673                48.6681
 Red. masses --      6.2150                 5.2237                 3.7447
 Frc consts  --      0.4521                 0.0020                 0.0052
 IR Inten    --    600.1687                 0.2740                 1.5787

                      4                      5                      6
                      A                      A                      A
 Frequencies --     56.6370                69.4665                82.2933
 Red. masses --      5.8637                 5.8592                 4.8091
 Frc consts  --      0.0111                 0.0167                 0.0192
 IR Inten    --      2.5169                 4.6033                 4.2541

                      7                      8                      9
                      A                      A                      A
 Frequencies --     97.7045               105.8252               115.1640
 Red. masses --      2.2159                 2.6020                 3.4389
 Frc consts  --      0.0125                 0.0172                 0.0269
 IR Inten    --      1.6888                 1.9408                 2.5704

                     10                     11                     12
                      A                      A                      A
 Frequencies --    136.3927               172.9463               178.8450
 Red. masses --      4.1797                 2.2325                 4.0334
 Frc consts  --      0.0458                 0.0393                 0.0760
 IR Inten    --      1.5644                 1.9060                 8.1752

                     13                     14                     15
                      A                      A                      A
 Frequencies --    197.5221               208.5614               234.4908
 Red. masses --      5.5095                 1.0910                 3.3569
 Frc consts  --      0.1266                 0.0280                 0.1088
 IR Inten    --     13.5087                 2.7354                 2.0307

                     16                     17                     18
                      A                      A                      A
 Frequencies --    250.4992               272.4420               279.0477
 Red. masses --      6.6681                 3.4929                 3.2912
 Frc consts  --      0.2465                 0.1528                 0.1510
 IR Inten    --     39.7918                16.4118                12.3845

                     19                     20                     21
                      A                      A                      A
 Frequencies --    296.2977               330.5613               371.9029
 Red. masses --      4.0129                 3.8027                 3.6174
 Frc consts  --      0.2076                 0.2448                 0.2948
 IR Inten    --     22.2136                16.4218                 1.3061

                     22                     23                     24
                      A                      A                      A
 Frequencies --    424.5188               428.2097               437.9371
 Red. masses --      3.0156                 2.9665                 4.8775
 Frc consts  --      0.3202                 0.3205                 0.5512
 IR Inten    --      3.6918                 3.7501                51.1592

                     25                     26                     27
                      A                      A                      A
 Frequencies --    511.6064               529.5056               542.2438
 Red. masses --      4.2404                 3.6739                 4.1146
 Frc consts  --      0.6539                 0.6069                 0.7128
 IR Inten    --     10.3095                21.8757                91.0129

                     28                     29                     30
                      A                      A                      A
 Frequencies --    571.1983               623.9623               633.7679
 Red. masses --      3.3486                 3.6854                 5.6805
 Frc consts  --      0.6437                 0.8454                 1.3443
 IR Inten    --     72.8297                12.1444                20.4215

                     31                     32                     33
                      A                      A                      A
 Frequencies --    637.4753               656.7165               676.4854
 Red. masses --      6.2158                 3.3787                 3.0862
 Frc consts  --      1.4882                 0.8585                 0.8321
 IR Inten    --      7.9273               125.5759               113.0564

                     34                     35                     36
                      A                      A                      A
 Frequencies --    701.1083               727.7048               734.3596
 Red. masses --      2.9060                 1.5262                 1.5603
 Frc consts  --      0.8416                 0.4762                 0.4958
 IR Inten    --     27.3060               104.3875                90.5657

                     37                     38                     39
                      A                      A                      A
 Frequencies --    766.9540               788.3871               821.4621
 Red. masses --      2.6075                 2.2350                 2.8135
 Frc consts  --      0.9037                 0.8185                 1.1186
 IR Inten    --    236.5657                24.0198               130.0205

                     40                     41                     42
                      A                      A                      A
 Frequencies --    863.9393               879.5381               884.0719
 Red. masses --      4.6101                 1.2527                 1.2461
 Frc consts  --      2.0273                 0.5709                 0.5738
 IR Inten    --     39.4574                 1.4258                 0.3815

                     43                     44                     45
                      A                      A                      A
 Frequencies --    940.1415               970.7463               974.9072
 Red. masses --      2.0570                 1.4387                 1.9890
 Frc consts  --      1.0712                 0.7988                 1.1138
 IR Inten    --      3.2682                 2.8434                13.4440

                     46                     47                     48
                      A                      A                      A
 Frequencies --   1014.9554              1017.8980              1022.9020
 Red. masses --      1.3916                 1.2929                 1.2119
 Frc consts  --      0.8446                 0.7893                 0.7471
 IR Inten    --      0.8911                25.3564                 6.6929

                     49                     50                     51
                      A                      A                      A
 Frequencies --   1023.9251              1026.4632              1027.1034
 Red. masses --      1.7460                 5.0722                 5.2461
 Frc consts  --      1.0785                 3.1487                 3.2607
 IR Inten    --    239.1606                 8.1762                 1.2016

                     52                     53                     54
                      A                      A                      A
 Frequencies --   1029.5478              1038.5272              1044.6032
 Red. masses --      1.3590                 1.3266                 1.7915
 Frc consts  --      0.8487                 0.8430                 1.1518
 IR Inten    --     26.9335                 1.8513                31.6912

                     55                     56                     57
                      A                      A                      A
 Frequencies --   1051.7419              1062.8598              1067.2920
 Red. masses --      1.3536                 2.0698                 2.3632
 Frc consts  --      0.8822                 1.3776                 1.5860
 IR Inten    --     29.5362                51.4824                41.7161

                     58                     59                     60
                      A                      A                      A
 Frequencies --   1075.2127              1108.9050              1127.7863
 Red. masses --      2.7307                 1.5555                 1.5678
 Frc consts  --      1.8600                 1.1270                 1.1749
 IR Inten    --     70.3372                18.5182                 7.7738

                     61                     62                     63
                      A                      A                      A
 Frequencies --   1181.5912              1187.8019              1189.6250
 Red. masses --      1.1328                 1.2070                 3.0965
 Frc consts  --      0.9318                 1.0033                 2.5819
 IR Inten    --      0.0391                10.3452                56.5572

                     64                     65                     66
                      A                      A                      A
 Frequencies --   1206.2238              1220.4165              1234.7649
 Red. masses --      1.1259                 1.1522                 1.4637
 Frc consts  --      0.9651                 1.0111                 1.3148
 IR Inten    --      0.1321                 8.2867                38.6079

                     67                     68                     69
                      A                      A                      A
 Frequencies --   1251.1577              1307.0813              1322.0507
 Red. masses --      3.1976                 4.4172                 4.5214
 Frc consts  --      2.9492                 4.4464                 4.6561
 IR Inten    --    108.7710                29.8896               185.9470

                     70                     71                     72
                      A                      A                      A
 Frequencies --   1336.4967              1343.8072              1356.1329
 Red. masses --      3.8360                 1.3459                 1.4599
 Frc consts  --      4.0371                 1.4320                 1.5819
 IR Inten    --    809.9969                39.1928                 0.2362

                     73                     74                     75
                      A                      A                      A
 Frequencies --   1368.1030              1393.6491              1450.1052
 Red. masses --      1.4174                 1.3639                 4.5370
 Frc consts  --      1.5630                 1.5608                 5.6211
 IR Inten    --     13.9527               172.8782               603.6698

                     76                     77                     78
                      A                      A                      A
 Frequencies --   1463.7313              1469.4386              1481.6058
 Red. masses --      1.2410                 1.0858                 1.0797
 Frc consts  --      1.5665                 1.3814                 1.3964
 IR Inten    --     87.6880                 9.9387                27.7831

                     79                     80                     81
                      A                      A                      A
 Frequencies --   1486.0908              1492.1841              1493.8983
 Red. masses --      2.1825                 2.1572                 1.0640
 Frc consts  --      2.8398                 2.8300                 1.3990
 IR Inten    --      2.9042                75.3687                10.8583

                     82                     83                     84
                      A                      A                      A
 Frequencies --   1505.5103              1542.8300              1547.0941
 Red. masses --      1.0327                 2.3645                 2.4211
 Frc consts  --      1.3791                 3.3161                 3.4142
 IR Inten    --     15.7718                44.1516                32.1531

                     85                     86                     87
                      A                      A                      A
 Frequencies --   1629.0245              1644.7733              1646.1848
 Red. masses --      8.9342                 1.9287                 1.9665
 Frc consts  --     13.9689                 3.0742                 3.1398
 IR Inten    --    718.2269                46.4465                17.7038

                     88                     89                     90
                      A                      A                      A
 Frequencies --   1652.2660              1672.6688              1674.9955
 Red. masses --      4.3442                 6.0056                 5.7867
 Frc consts  --      6.9875                 9.8997                 9.5655
 IR Inten    --     17.9138                36.9269                 1.6385

                     91                     92                     93
                      A                      A                      A
 Frequencies --   3074.2049              3074.7332              3145.3401
 Red. masses --      1.0375                 1.0355                 1.1006
 Frc consts  --      5.7772                 5.7681                 6.4153
 IR Inten    --     23.8358                33.4206                19.5968

                     94                     95                     96
                      A                      A                      A
 Frequencies --   3155.1798              3180.3020              3180.9891
 Red. masses --      1.1019                 1.1018                 1.1054
 Frc consts  --      6.4633                 6.5659                 6.5904
 IR Inten    --      8.7302                14.6848                 7.3928

                     97                     98                     99
                      A                      A                      A
 Frequencies --   3186.2537              3191.3812              3200.7721
 Red. masses --      1.0868                 1.0873                 1.0864
 Frc consts  --      6.5008                 6.5244                 6.5575
 IR Inten    --     11.8420                 0.6426                 1.4270

                    100                    101                    102
                      A                      A                      A
 Frequencies --   3201.1185              3207.0796              3208.3962
 Red. masses --      1.0911                 1.0891                 1.0950
 Frc consts  --      6.5873                 6.5996                 6.6414
 IR Inten    --     17.2207                 3.1190                45.5454

                    103                    104                    105
                      A                      A                      A
 Frequencies --   3216.0398              3218.9961              3225.8241
 Red. masses --      1.0932                 1.0988                 1.0970
 Frc consts  --      6.6617                 6.7086                 6.7254
 IR Inten    --     23.3374                19.5147                17.7949

                    106                    107                    108
                      A                      A                      A
 Frequencies --   3234.8077              3515.5482              3597.8461
 Red. masses --      1.0949                 1.0512                 1.0959
 Frc consts  --      6.7506                 7.6544                 8.3582
 IR Inten    --      4.8837                34.2811                50.6156

 - Thermochemistry -
 -------------------
 Temperature   298.150 Kelvin.  Pressure   1.00000 Atm.
 Atom     1 has atomic number  6 and mass  12.00000

 Molecular mass:   331.05718 amu.
 Principal axes and moments of inertia in atomic units:
                           1         2         3
     Eigenvalues --  3981.326108242.332009599.76905
           X            0.99997  -0.00799   0.00127
           Y            0.00807   0.99647  -0.08361
           Z           -0.00060   0.08362   0.99650
 This molecule is an asymmetric top.
 Rotational symmetry number  1.
 Warning -- assumption of classical behavior for rotation
           may cause significant error
 Rotational temperatures (Kelvin)      0.02176     0.01051     0.00902
 Rotational constants (GHZ):           0.45330     0.21896     0.18800
    1 imaginary frequencies ignored.
 Zero-point vibrational energy     818028.7 (Joules/Mol)
                                  195.51355 (Kcal/Mol)
 Warning -- explicit consideration of  27 degrees of freedom as
           vibrations may cause significant error
 Vibrational temperatures:     36.93    70.02    81.49    99.95   118.40
          (Kelvin)            140.58   152.26   165.70   196.24   248.83
                              257.32   284.19   300.07   337.38   360.41
                              391.98   401.49   426.31   475.60   535.09
                              610.79   616.10   630.09   736.09   761.84
                              780.17   821.83   897.74   911.85   917.18
                              944.87   973.31  1008.74  1047.00  1056.58
                             1103.48  1134.31  1181.90  1243.02  1265.46
                             1271.98  1352.65  1396.69  1402.67  1460.29
                             1464.53  1471.73  1473.20  1476.85  1477.77
                             1481.29  1494.21  1502.95  1513.22  1529.22
                             1535.60  1546.99  1595.47  1622.63  1700.05
                             1708.98  1711.60  1735.49  1755.91  1776.55
                             1800.14  1880.60  1902.14  1922.92  1933.44
                             1951.17  1968.40  2005.15  2086.38  2105.98
                             2114.19  2131.70  2138.15  2146.92  2149.39
                             2166.09  2219.79  2225.92  2343.80  2366.46
                             2368.49  2377.24  2406.60  2409.94  4423.10
                             4423.86  4525.44  4539.60  4575.75  4576.73
                             4584.31  4591.69  4605.20  4605.70  4614.27
                             4616.17  4627.16  4631.42  4641.24  4654.17
                             5058.09  5176.50

 Zero-point correction=                           0.311571 (Hartree/Particle)
 Thermal correction to Energy=                    0.330586
 Thermal correction to Enthalpy=                  0.331531
 Thermal correction to Gibbs Free Energy=         0.263086
 Sum of electronic and zero-point Energies=          -3362.501801
 Sum of electronic and thermal Energies=             -3362.482785
 Sum of electronic and thermal Enthalpies=           -3362.481841
 Sum of electronic and thermal Free Energies=        -3362.550286

                     E (Thermal)             CV                S
                      KCal/Mol        Cal/Mol-Kelvin    Cal/Mol-Kelvin
 Total                  207.446             71.817            144.054
 Electronic               0.000              0.000              0.000
 Translational            0.889              2.981             43.286
 Rotational               0.889              2.981             34.109
 Vibrational            205.669             65.856             66.658
 Vibration     1          0.593              1.985              6.139
 Vibration     2          0.595              1.978              4.871
 Vibration     3          0.596              1.975              4.571
 Vibration     4          0.598              1.969              4.168
 Vibration     5          0.600              1.961              3.835
 Vibration     6          0.603              1.951              3.500
 Vibration     7          0.605              1.945              3.344
 Vibration     8          0.608              1.937              3.180
 Vibration     9          0.614              1.917              2.854
 Vibration    10          0.626              1.876              2.403
 Vibration    11          0.629              1.868              2.340
 Vibration    12          0.637              1.843              2.156
 Vibration    13          0.642              1.828              2.056
 Vibration    14          0.654              1.788              1.844
 Vibration    15          0.663              1.762              1.727
 Vibration    16          0.675              1.724              1.581
 Vibration    17          0.679              1.712              1.540
 Vibration    18          0.690              1.681              1.438
 Vibration    19          0.713              1.614              1.257
 Vibration    20          0.744              1.530              1.072
 Vibration    21          0.787              1.417              0.877
 Vibration    22          0.790              1.409              0.865
 Vibration    23          0.798              1.387              0.833
 Vibration    24          0.867              1.224              0.630
 Vibration    25          0.884              1.185              0.588
 Vibration    26          0.897              1.157              0.560
 Vibration    27          0.927              1.094              0.502

 Optimization completed.
    -- Stationary point found.
 Normal termination of Gaussian 16 at Sun Feb 21 08:38:00 2021.
