 Gaussian 16, Revision A.03,
 Gaussian 16:  ES64L-G16RevA.03 25-Dec-2016

 ----------------------------------------------------------------------
 # wB97XD def2tzvp, opt=(ts, noeigen, calcfc, maxcycles=70, maxstep=8),
  freq=noraman, scrf=(iefpcm, solvent=water)
 ----------------------------------------------------------------------

 ------------------------
 1_iteration/TS-695-1.out
 ------------------------
 Symbolic Z-matrix:
 Charge =  0 Multiplicity = 1

 SCF Done:  E(RwB97XD) =  -3187.14472036     A.U. after   14 cycles
 SCF Done:  E(RwB97XD) =  -3187.14582760     A.U. after   14 cycles
 SCF Done:  E(RwB97XD) =  -3187.14624684     A.U. after   14 cycles
 SCF Done:  E(RwB97XD) =  -3187.14648378     A.U. after   12 cycles
 SCF Done:  E(RwB97XD) =  -3187.14597968     A.U. after   14 cycles
 SCF Done:  E(RwB97XD) =  -3187.14659824     A.U. after   14 cycles
 SCF Done:  E(RwB97XD) =  -3187.14666038     A.U. after   12 cycles
 SCF Done:  E(RwB97XD) =  -3187.14612794     A.U. after   13 cycles
 SCF Done:  E(RwB97XD) =  -3187.14668450     A.U. after   12 cycles
 SCF Done:  E(RwB97XD) =  -3187.14671858     A.U. after   12 cycles
 SCF Done:  E(RwB97XD) =  -3187.14673262     A.U. after   10 cycles
 SCF Done:  E(RwB97XD) =  -3187.14673500     A.U. after   10 cycles
 SCF Done:  E(RwB97XD) =  -3187.14673775     A.U. after    9 cycles
 SCF Done:  E(RwB97XD) =  -3187.14673824     A.U. after    8 cycles
 SCF Done:  E(RwB97XD) =  -3187.14673856     A.U. after    8 cycles
 SCF Done:  E(RwB97XD) =  -3187.14673880     A.U. after    8 cycles
 SCF Done:  E(RwB97XD) =  -3187.14673876     A.U. after    7 cycles
 SCF Done:  E(RwB97XD) =  -3187.14673870     A.U. after    6 cycles
 Optimization completed.
    -- Stationary point found.
 Normal termination of Gaussian 16 at Sat Feb 20 09:11:49 2021.

 ---------------------------------------------------------------------
 #N Geom=AllCheck Guess=TCheck SCRF=Check GenChk RwB97XD/def2TZVP Freq
 ---------------------------------------------------------------------

 Structure from the checkpoint file:  "/beegfs/scratch/user/q/tla25/Gau-32118.chk"
 ------------------------
 1_iteration/TS-695-1.out
 ------------------------
 Charge =  0 Multiplicity = 1

                         Standard orientation:
 ---------------------------------------------------------------------
 Center     Atomic      Atomic             Coordinates (Angstroms)
 Number     Number       Type             X           Y           Z
 ---------------------------------------------------------------------
      1          6           0       -0.990338   -0.273989   -0.930985
      2          6           0        0.436631   -0.388145   -1.066332
      3          8           0        0.946621   -1.067501   -1.963768
      4          6           0       -1.763983    0.053389    0.179596
      5          6           0       -1.291265   -2.356428    1.432176
      6          1           0       -1.623978   -3.381159    1.587628
      7          1           0       -0.511996   -2.344164    0.668897
      8          1           0       -0.896935   -1.960984    2.364847
      9          7           0       -2.389542   -1.512311    0.968038
     10          1           0       -2.892532   -1.958893    0.208886
     11          1           0       -3.058224   -1.314229    1.705934
     12         35           0       -3.560957    0.746044   -0.324390
     13          6           0       -1.270199    0.787926    1.398012
     14          1           0       -0.393724    0.294437    1.816492
     15          1           0       -1.009612    1.813160    1.131622
     16          1           0       -2.037913    0.836281    2.167123
     17          1           0       -1.515771   -0.696010   -1.778092
     18          7           0        1.245009    0.324247   -0.188150
     19          6           0        2.635818    0.279031   -0.072210
     20          6           0        3.399024   -0.832628   -0.433645
     21          6           0        4.772285   -0.820418   -0.241794
     22          6           0        5.410775    0.279009    0.313836
     23          6           0        4.651461    1.380809    0.682141
     24          6           0        3.280672    1.384204    0.489263
     25          1           0        0.814739    1.106059    0.270461
     26          1           0        2.915029   -1.693878   -0.865858
     27          1           0        5.348959   -1.691292   -0.529012
     28          1           0        6.483145    0.277076    0.459326
     29          1           0        5.127503    2.249444    1.119907
     30          1           0        2.698272    2.252523    0.776068
 ---------------------------------------------------------------------

 SCF Done:  E(RwB97XD) =  -3187.14673870     A.U. after    1 cycles

 The electronic state is 1-A.
 Alpha  occ. eigenvalues -- -483.12515 -62.67385 -56.46480 -56.46153 -56.46142
 Alpha  occ. eigenvalues --  -19.19861 -14.50157 -14.45671 -10.40434 -10.38170
 Alpha  occ. eigenvalues --  -10.33498 -10.32234 -10.29801 -10.28928 -10.28803
 Alpha  occ. eigenvalues --  -10.28660 -10.28179 -10.28133 -10.25209  -8.81499
 Alpha  occ. eigenvalues --   -6.63591  -6.62554  -6.62521  -2.73980  -2.73695
 Alpha  occ. eigenvalues --   -2.73669  -2.72829  -2.72828  -1.12753  -1.05622
 Alpha  occ. eigenvalues --   -1.03338  -0.95368  -0.93515  -0.85769  -0.84985
 Alpha  occ. eigenvalues --   -0.83866  -0.81286  -0.79674  -0.72855  -0.71277
 Alpha  occ. eigenvalues --   -0.67819  -0.65046  -0.64194  -0.62348  -0.59179
 Alpha  occ. eigenvalues --   -0.58086  -0.57155  -0.55760  -0.54538  -0.53370
 Alpha  occ. eigenvalues --   -0.52280  -0.51212  -0.50703  -0.50217  -0.49990
 Alpha  occ. eigenvalues --   -0.48630  -0.46595  -0.45976  -0.44761  -0.44232
 Alpha  occ. eigenvalues --   -0.43679  -0.42691  -0.38925  -0.37567  -0.37294
 Alpha  occ. eigenvalues --   -0.34242  -0.33149  -0.30121  -0.27115
 Alpha virt. eigenvalues --    0.04020   0.04943   0.05521   0.08406   0.09841
 Alpha virt. eigenvalues --    0.12096   0.13532   0.13957   0.14407   0.16004
 Alpha virt. eigenvalues --    0.16512   0.17260   0.17542   0.18510   0.18679

 Mulliken charges:
               1
     1  C   -0.482002
     2  C    0.353019
     3  O   -0.538879
     4  C    0.187491
     5  C   -0.311280
     6  H    0.166946
     7  H    0.158403
     8  H    0.167034
     9  N   -0.269388
    10  H    0.289343
    11  H    0.296011
    12  Br  -0.155987
    13  C   -0.490889
    14  H    0.179078
    15  H    0.178110
    16  H    0.165674
    17  H    0.125974
    18  N   -0.276221
    19  C    0.301841
    20  C   -0.306934
    21  C   -0.093444
    22  C   -0.201033
    23  C   -0.098721
    24  C   -0.307258
    25  H    0.253311
    26  H    0.145748
    27  H    0.140949
    28  H    0.139758
    29  H    0.142098
    30  H    0.141247
 Sum of Mulliken charges =  -0.00000

 Dipole moment (field-independent basis, Debye):
    X=             -5.3551    Y=             -1.6332    Z=              9.3451  Tot=             10.8938
 Quadrupole moment (field-independent basis, Debye-Ang):
   XX=            -98.3118   YY=            -91.4480   ZZ=           -109.1833
   XY=             14.9753   XZ=             -3.4751   YZ=             -5.4491

  Exact polarizability: 335.274  -7.144 220.090  -3.311  16.224 194.911
 Approx polarizability: 238.651  -7.640 186.936  -1.873  15.917 167.920

 ******    1 imaginary frequencies (negative Signs) ******

                      1                      2                      3
                      A                      A                      A
 Frequencies --   -385.3467                25.1026                26.3146
 Red. masses --      5.0059                 5.2056                 3.7347
 Frc consts  --      0.4380                 0.0019                 0.0015
 IR Inten    --    830.0796                 2.2135                 2.2349

                      4                      5                      6
                      A                      A                      A
 Frequencies --     44.0065                78.1549               106.3363
 Red. masses --      6.1245                 2.6741                 3.1552
 Frc consts  --      0.0070                 0.0096                 0.0210
 IR Inten    --      2.5997                 1.1285                10.8400

                      7                      8                      9
                      A                      A                      A
 Frequencies --    113.5826               151.3875               190.8216
 Red. masses --      5.8447                 6.2593                 3.6899
 Frc consts  --      0.0444                 0.0845                 0.0792
 IR Inten    --      1.7826                 6.3813                10.2418

                     10                     11                     12
                      A                      A                      A
 Frequencies --    212.8992               223.5300               259.4558
 Red. masses --      1.2726                 4.1626                 4.6648
 Frc consts  --      0.0340                 0.1225                 0.1850
 IR Inten    --      3.5118                 1.5522                16.9941

                     13                     14                     15
                      A                      A                      A
 Frequencies --    279.5300               299.5340               350.8955
 Red. masses --      2.9602                 3.5098                 3.0970
 Frc consts  --      0.1363                 0.1855                 0.2247
 IR Inten    --      2.9397                17.4679                 1.1569

                     16                     17                     18
                      A                      A                      A
 Frequencies --    364.4101               370.6928               383.2521
 Red. masses --      2.6108                 1.5548                 3.4555
 Frc consts  --      0.2043                 0.1259                 0.2990
 IR Inten    --     29.4649                 9.6506                19.6316

                     19                     20                     21
                      A                      A                      A
 Frequencies --    424.2907               512.1605               522.8122
 Red. masses --      2.9622                 3.5114                 2.3332
 Frc consts  --      0.3142                 0.5427                 0.3757
 IR Inten    --      0.3779                83.9867                20.5906

                     22                     23                     24
                      A                      A                      A
 Frequencies --    531.1969               565.3108               632.7936
 Red. masses --      2.2495                 1.7591                 3.6103
 Frc consts  --      0.3740                 0.3312                 0.8518
 IR Inten    --     20.1272                99.8691               145.3805

                     25                     26                     27
                      A                      A                      A
 Frequencies --    638.6791               703.1636               717.2447
 Red. masses --      4.3707                 3.1345                 1.9096
 Frc consts  --      1.0504                 0.9131                 0.5788
 IR Inten    --    101.2752                12.1043                73.8447

                     28                     29                     30
                      A                      A                      A
 Frequencies --    723.8269               748.2163               780.8154
 Red. masses --      1.6748                 2.1441                 1.8210
 Frc consts  --      0.5170                 0.7072                 0.6541
 IR Inten    --    178.5422                27.2468               102.8960

                     31                     32                     33
                      A                      A                      A
 Frequencies --    808.0999               858.3293               889.4141
 Red. masses --      2.6688                 1.2589                 4.5687
 Frc consts  --      1.0268                 0.5464                 2.1294
 IR Inten    --    112.4316                 1.8111                 7.9113

                     34                     35                     36
                      A                      A                      A
 Frequencies --    914.4799               931.6852              1000.0778
 Red. masses --      3.4886                 1.6446                 1.3542
 Frc consts  --      1.7189                 0.8411                 0.7980
 IR Inten    --    125.7239                 8.0450                 0.2130

                     37                     38                     39
                      A                      A                      A
 Frequencies --   1007.9943              1013.8864              1021.1742
 Red. masses --      1.5417                 1.2798                 4.3199
 Frc consts  --      0.9229                 0.7751                 2.6541
 IR Inten    --      7.9792                 0.0832                 5.6641

                     40                     41                     42
                      A                      A                      A
 Frequencies --   1030.5012              1053.6425              1065.5383
 Red. masses --      1.8859                 1.3040                 1.9905
 Frc consts  --      1.1800                 0.8529                 1.3315
 IR Inten    --     32.2863                17.3251                22.1992

                     43                     44                     45
                      A                      A                      A
 Frequencies --   1072.9203              1081.5546              1106.0478
 Red. masses --      3.6851                 1.3374                 1.6449
 Frc consts  --      2.4994                 0.9218                 1.1856
 IR Inten    --     22.9291                73.9292               169.7265

                     46                     47                     48
                      A                      A                      A
 Frequencies --   1122.5373              1181.9379              1210.6107
 Red. masses --      1.5309                 1.1207                 1.1290
 Frc consts  --      1.1365                 0.9224                 0.9749
 IR Inten    --     13.8057                 5.1505                29.7818

                     49                     50                     51
                      A                      A                      A
 Frequencies --   1246.0338              1266.6135              1297.3588
 Red. masses --      1.3598                 2.1917                 3.7893
 Frc consts  --      1.2439                 2.0716                 3.7577
 IR Inten    --     42.3516               932.0469               108.7566

                     52                     53                     54
                      A                      A                      A
 Frequencies --   1331.3766              1341.8912              1356.1088
 Red. masses --      1.6008                 2.9129                 1.6102
 Frc consts  --      1.6719                 3.0903                 1.7446
 IR Inten    --     69.6180               418.8235               138.1645

                     55                     56                     57
                      A                      A                      A
 Frequencies --   1364.1149              1420.2528              1448.0236
 Red. masses --      1.5446                 1.2807                 1.6412
 Frc consts  --      1.6934                 1.5220                 2.0275
 IR Inten    --     30.0927                26.2722               486.3637

                     58                     59                     60
                      A                      A                      A
 Frequencies --   1469.0344              1474.6443              1493.4391
 Red. masses --      1.8048                 2.0636                 1.0459
 Frc consts  --      2.2948                 2.6439                 1.3744
 IR Inten    --    598.7503               167.2161                19.0480

                     61                     62                     63
                      A                      A                      A
 Frequencies --   1496.1824              1509.4500              1517.7185
 Red. masses --      1.0563                 1.0752                 1.1216
 Frc consts  --      1.3932                 1.4433                 1.5221
 IR Inten    --     20.2469                32.8226                32.7619

                     64                     65                     66
                      A                      A                      A
 Frequencies --   1547.5225              1558.5056              1641.1461
 Red. masses --      2.4721                 1.9955                 1.1236
 Frc consts  --      3.4882                 2.8558                 1.7830
 IR Inten    --    204.4581               303.1152               167.1915

                     67                     68                     69
                      A                      A                      A
 Frequencies --   1652.1303              1664.3983              1677.2191
 Red. masses --      5.8553                 3.8857                 6.1479
 Frc consts  --      9.4165                 6.3422                10.1896
 IR Inten    --    606.6528               200.0427               330.3987

                     70                     71                     72
                      A                      A                      A
 Frequencies --   3071.1770              3073.0296              3148.2146
 Red. masses --      1.0372                 1.0338                 1.1016
 Frc consts  --      5.7640                 5.7519                 6.4330
 IR Inten    --      6.6183                28.8221                10.1499

                     73                     74                     75
                      A                      A                      A
 Frequencies --   3152.9557              3163.4399              3177.8690
 Red. masses --      1.1037                 1.1031                 1.1060
 Frc consts  --      6.4646                 6.5039                 6.5809
 IR Inten    --      4.7400                12.6790                10.3071

                     76                     77                     78
                      A                      A                      A
 Frequencies --   3186.3453              3195.8622              3196.4677
 Red. masses --      1.0878                 1.0882                 1.0869
 Frc consts  --      6.5073                 6.5485                 6.5431
 IR Inten    --     14.6040                 2.0195                 5.2584

                     79                     80                     81
                      A                      A                      A
 Frequencies --   3205.4072              3220.7344              3263.8660
 Red. masses --      1.0931                 1.0978                 1.0921
 Frc consts  --      6.6172                 6.7095                 6.8545
 IR Inten    --     31.2008                23.9499                 1.3843

                     82                     83                     84
                      A                      A                      A
 Frequencies --   3507.7797              3591.7708              3684.0244
 Red. masses --      1.0512                 1.0969                 1.0759
 Frc consts  --      7.6207                 8.3378                 8.6036
 IR Inten    --     58.5779                52.9220                45.7231

 - Thermochemistry -
 -------------------
 Temperature   298.150 Kelvin.  Pressure   1.00000 Atm.
 Atom     1 has atomic number  6 and mass  12.00000

 Molecular mass:   270.03677 amu.
 Principal axes and moments of inertia in atomic units:
                           1         2         3
     Eigenvalues --  1710.118799914.57455**********
           X            0.99980   0.01887  -0.00714
           Y           -0.01890   0.99982  -0.00356
           Z            0.00707   0.00369   0.99997
 This molecule is an asymmetric top.
 Rotational symmetry number  1.
 Warning -- assumption of classical behavior for rotation
           may cause significant error
 Rotational temperatures (Kelvin)      0.05065     0.00874     0.00847
 Rotational constants (GHZ):           1.05533     0.18203     0.17641
    1 imaginary frequencies ignored.
 Zero-point vibrational energy     651743.2 (Joules/Mol)
                                  155.77037 (Kcal/Mol)
 Warning -- explicit consideration of  22 degrees of freedom as
           vibrations may cause significant error
 Vibrational temperatures:     36.12    37.86    63.32   112.45   152.99
          (Kelvin)            163.42   217.81   274.55   306.31   321.61
                              373.30   402.18   430.96   504.86   524.30
                              533.34   551.41   610.46   736.88   752.21
                              764.27   813.36   910.45   918.92  1011.70
                             1031.96  1041.43  1076.52  1123.42  1162.68
                             1234.94  1279.67  1315.73  1340.49  1438.89
                             1450.28  1458.76  1469.24  1482.66  1515.96
                             1533.07  1543.69  1556.12  1591.36  1615.08
                             1700.54  1741.80  1792.76  1822.37  1866.61
                             1915.55  1930.68  1951.14  1962.66  2043.43
                             2083.38  2113.61  2121.68  2148.73  2152.67
                             2171.76  2183.66  2226.54  2242.34  2361.24
                             2377.05  2394.70  2413.14  4418.74  4421.40
                             4529.58  4536.40  4551.48  4572.24  4584.44
                             4598.13  4599.00  4611.87  4633.92  4695.98
                             5046.91  5167.76  5300.49

 Zero-point correction=                           0.248236 (Hartree/Particle)
 Thermal correction to Energy=                    0.263564
 Thermal correction to Enthalpy=                  0.264509
 Thermal correction to Gibbs Free Energy=         0.203127
 Sum of electronic and zero-point Energies=          -3186.898503
 Sum of electronic and thermal Energies=             -3186.883174
 Sum of electronic and thermal Enthalpies=           -3186.882230
 Sum of electronic and thermal Free Energies=        -3186.943612

                     E (Thermal)             CV                S
                      KCal/Mol        Cal/Mol-Kelvin    Cal/Mol-Kelvin
 Total                  165.389             56.878            129.189
 Electronic               0.000              0.000              0.000
 Translational            0.889              2.981             42.679
 Rotational               0.889              2.981             33.516
 Vibrational            163.612             50.916             52.993
 Vibration     1          0.593              1.985              6.183
 Vibration     2          0.593              1.985              6.089
 Vibration     3          0.595              1.980              5.070
 Vibration     4          0.599              1.964              3.937
 Vibration     5          0.605              1.944              3.335
 Vibration     6          0.607              1.938              3.207
 Vibration     7          0.619              1.901              2.655
 Vibration     8          0.634              1.853              2.220
 Vibration     9          0.644              1.821              2.019
 Vibration    10          0.649              1.805              1.930
 Vibration    11          0.668              1.747              1.665
 Vibration    12          0.680              1.711              1.537
 Vibration    13          0.692              1.675              1.420
 Vibration    14          0.728              1.573              1.162
 Vibration    15          0.738              1.546              1.103
 Vibration    16          0.743              1.532              1.077
 Vibration    17          0.752              1.506              1.026
 Vibration    18          0.786              1.417              0.878
 Vibration    19          0.867              1.223              0.628
 Vibration    20          0.878              1.199              0.603
 Vibration    21          0.886              1.181              0.585
 Vibration    22          0.921              1.106              0.513

 Optimization completed.
    -- Stationary point found.
 Normal termination of Gaussian 16 at Sat Feb 20 10:08:00 2021.
