 Gaussian 16, Revision A.03,
 Gaussian 16:  ES64L-G16RevA.03 25-Dec-2016

 ----------------------------------------------------------------------
 # wB97XD def2tzvp, opt=(ts, noeigen, calcfc, maxcycles=70, maxstep=8),
  freq=noraman, scrf=(iefpcm, solvent=water)
 ----------------------------------------------------------------------

 -----------------------
 1_iteration/TS-68-1.out
 -----------------------
 Symbolic Z-matrix:
 Charge =  0 Multiplicity = 1

 SCF Done:  E(RwB97XD) =  -3207.01562165     A.U. after   14 cycles
 SCF Done:  E(RwB97XD) =  -3207.01641957     A.U. after   13 cycles
 SCF Done:  E(RwB97XD) =  -3207.01705574     A.U. after   13 cycles
 SCF Done:  E(RwB97XD) =  -3207.01729568     A.U. after   12 cycles
 SCF Done:  E(RwB97XD) =  -3207.01730493     A.U. after   10 cycles
 SCF Done:  E(RwB97XD) =  -3207.01730521     A.U. after   10 cycles
 SCF Done:  E(RwB97XD) =  -3207.01724816     A.U. after   10 cycles
 SCF Done:  E(RwB97XD) =  -3207.01730553     A.U. after   10 cycles
 SCF Done:  E(RwB97XD) =  -3207.01730572     A.U. after    8 cycles
 SCF Done:  E(RwB97XD) =  -3207.01730577     A.U. after    6 cycles
 Optimization completed.
    -- Stationary point found.
 Normal termination of Gaussian 16 at Sat Jan 30 22:46:32 2021.

 ---------------------------------------------------------------------
 #N Geom=AllCheck Guess=TCheck SCRF=Check GenChk RwB97XD/def2TZVP Freq
 ---------------------------------------------------------------------

 Structure from the checkpoint file:  "/beegfs/scratch/user/q/tla25/Gau-38847.chk"
 -----------------------
 1_iteration/TS-68-1.out
 -----------------------
 Charge =  0 Multiplicity = 1

                         Standard orientation:
 ---------------------------------------------------------------------
 Center     Atomic      Atomic             Coordinates (Angstroms)
 Number     Number       Type             X           Y           Z
 ---------------------------------------------------------------------
      1          6           0       -0.946444    0.023201    0.173454
      2          6           0       -2.199715    0.652314    0.457114
      3          8           0       -2.319194    1.848027    0.710533
      4          6           0        0.209628    0.803952    0.219332
      5          6           0        1.385308    2.891515   -1.364157
      6          1           0        1.308298    3.558201   -2.223490
      7          1           0        1.309469    3.479084   -0.449912
      8          1           0        2.353099    2.393992   -1.381536
      9          7           0        0.330113    1.881657   -1.364511
     10          1           0       -0.592697    2.301034   -1.371372
     11          1           0        0.395566    1.260349   -2.161907
     12          6           0        1.591165    0.260086    0.326953
     13          6           0        2.193391   -0.499718   -0.672557
     14          6           0        3.485621   -0.973800   -0.513763
     15          6           0        4.192818   -0.701945    0.649271
     16          6           0        3.603629    0.058182    1.648085
     17          6           0        2.315150    0.543530    1.481688
     18          1           0        1.657051   -0.720195   -1.585983
     19          1           0        3.942006   -1.557975   -1.302657
     20          1           0        5.201479   -1.075271    0.772092
     21          1           0        4.149589    0.283510    2.555279
     22          1           0        1.863666    1.148309    2.259123
     23          1           0        0.062539    1.684185    0.836927
     24         35           0       -0.928732   -1.771892   -0.470938
     25          8           0       -3.268445   -0.167596    0.431661
     26          6           0       -4.528738    0.432692    0.702200
     27          1           0       -5.260699   -0.366383    0.615779
     28          1           0       -4.554393    0.852609    1.707962
     29          1           0       -4.749890    1.219652   -0.019176
 ---------------------------------------------------------------------

 SCF Done:  E(RwB97XD) =  -3207.01730577     A.U. after    1 cycles

 The electronic state is 1-A.
 Alpha  occ. eigenvalues -- -483.11940 -62.66773 -56.45880 -56.45538 -56.45536
 Alpha  occ. eigenvalues --  -19.28480 -19.21469 -14.48296 -10.40094 -10.34735
 Alpha  occ. eigenvalues --  -10.32739 -10.31808 -10.30886 -10.30423 -10.29587
 Alpha  occ. eigenvalues --  -10.29571 -10.29400 -10.29365 -10.29311  -8.80887
 Alpha  occ. eigenvalues --   -6.63008  -6.61914  -6.61906  -2.73404  -2.73079
 Alpha  occ. eigenvalues --   -2.73073  -2.72188  -2.72188  -1.19895  -1.10112
 Alpha  occ. eigenvalues --   -1.03848  -0.97568  -0.92808  -0.87630  -0.85626
 Alpha  occ. eigenvalues --   -0.83150  -0.81732  -0.78669  -0.73544  -0.71118
 Alpha  occ. eigenvalues --   -0.68283  -0.64182  -0.63456  -0.60466  -0.59605
 Alpha  occ. eigenvalues --   -0.57086  -0.56591  -0.56123  -0.55186  -0.54925
 Alpha  occ. eigenvalues --   -0.52831  -0.51772  -0.51295  -0.49864  -0.48615
 Alpha  occ. eigenvalues --   -0.47923  -0.47219  -0.45706  -0.44478  -0.43797
 Alpha  occ. eigenvalues --   -0.43017  -0.42747  -0.39111  -0.38136  -0.37844
 Alpha  occ. eigenvalues --   -0.34986  -0.34002  -0.33601  -0.26997
 Alpha virt. eigenvalues --    0.02711   0.04867   0.07747   0.08613   0.10807
 Alpha virt. eigenvalues --    0.13177   0.13429   0.13696   0.15205   0.16378
 Alpha virt. eigenvalues --    0.16515   0.16940   0.17513   0.18522   0.18638

 Mulliken charges:
               1
     1  C   -0.208994
     2  C    0.421073
     3  O   -0.523307
     4  C   -0.120460
     5  C   -0.279485
     6  H    0.156164
     7  H    0.151752
     8  H    0.156278
     9  N   -0.328534
    10  H    0.283786
    11  H    0.279137
    12  C    0.287828
    13  C   -0.299971
    14  C   -0.124930
    15  C   -0.150721
    16  C   -0.139680
    17  C   -0.229855
    18  H    0.160000
    19  H    0.146025
    20  H    0.146813
    21  H    0.145537
    22  H    0.145530
    23  H    0.170100
    24  Br  -0.140749
    25  O   -0.303603
    26  C   -0.193926
    27  H    0.138940
    28  H    0.128056
    29  H    0.127196
 Sum of Mulliken charges =  -0.00000

 Dipole moment (field-independent basis, Debye):
    X=              4.7208    Y=              4.1482    Z=             -3.8853  Tot=              7.3884
 Quadrupole moment (field-independent basis, Debye-Ang):
   XX=            -90.1453   YY=           -100.7501   ZZ=            -91.7730
   XY=              3.0093   XZ=              0.8267   YZ=             -6.3656

  Exact polarizability: 283.742  -4.730 216.652  -5.163  14.091 199.544
 Approx polarizability: 206.350  -6.963 181.899  -1.511  15.373 173.725

 ******    1 imaginary frequencies (negative Signs) ******

                      1                      2                      3
                      A                      A                      A
 Frequencies --   -348.8025                30.5383                49.1325
 Red. masses --      6.2089                 5.3661                 4.9962
 Frc consts  --      0.4451                 0.0029                 0.0071
 IR Inten    --    881.7682                 0.8822                 1.2727

                      4                      5                      6
                      A                      A                      A
 Frequencies --     60.3842                77.1455                87.4572
 Red. masses --      2.9119                 3.5030                 4.3360
 Frc consts  --      0.0063                 0.0123                 0.0195
 IR Inten    --      1.6183                 7.7684                 3.7765

                      7                      8                      9
                      A                      A                      A
 Frequencies --     99.1971               125.3589               142.7331
 Red. masses --      4.1574                 2.5506                 2.6314
 Frc consts  --      0.0241                 0.0236                 0.0316
 IR Inten    --      7.6555                 8.1072                 8.9196

                     10                     11                     12
                      A                      A                      A
 Frequencies --    155.4946               176.1160               182.8644
 Red. masses --      4.0055                 1.2767                 1.6274
 Frc consts  --      0.0571                 0.0233                 0.0321
 IR Inten    --      0.1378                 1.3949                 4.0180

                     13                     14                     15
                      A                      A                      A
 Frequencies --    229.5703               240.9730               271.6415
 Red. masses --      4.6113                 2.8589                 5.7995
 Frc consts  --      0.1432                 0.0978                 0.2521
 IR Inten    --      2.4697                18.1358                15.8207

                     16                     17                     18
                      A                      A                      A
 Frequencies --    318.8969               347.9615               400.7848
 Red. masses --      4.6924                 4.3396                 7.5908
 Frc consts  --      0.2812                 0.3096                 0.7184
 IR Inten    --     20.9096                 2.7164                54.3764

                     19                     20                     21
                      A                      A                      A
 Frequencies --    424.1282               435.5979               554.5697
 Red. masses --      3.5885                 4.7784                 2.7310
 Frc consts  --      0.3803                 0.5342                 0.4949
 IR Inten    --     12.3910                43.5762               167.0514

                     22                     23                     24
                      A                      A                      A
 Frequencies --    588.1531               627.7669               646.8756
 Red. masses --      3.2501                 4.6277                 3.3260
 Frc consts  --      0.6624                 1.0745                 0.8200
 IR Inten    --     15.4035                15.8695                21.9745

                     25                     26                     27
                      A                      A                      A
 Frequencies --    712.1192               734.1343               749.9419
 Red. masses --      2.3916                 1.6879                 4.9130
 Frc consts  --      0.7146                 0.5360                 1.6280
 IR Inten    --     49.1021               113.7624                 7.7480

                     28                     29                     30
                      A                      A                      A
 Frequencies --    785.3532               799.3430               862.6808
 Red. masses --     10.4133                 2.1972                 4.1617
 Frc consts  --      3.7841                 0.8272                 1.8248
 IR Inten    --     55.8172                25.1512                18.6297

                     31                     32                     33
                      A                      A                      A
 Frequencies --    885.8119               966.6124               989.8376
 Red. masses --      1.2523                 1.5051                 3.1486
 Frc consts  --      0.5789                 0.8286                 1.8176
 IR Inten    --      0.6774                 5.3591                 1.5541

                     34                     35                     36
                      A                      A                      A
 Frequencies --   1006.6387              1022.1145              1027.4317
 Red. masses --      1.1863                 1.3471                 5.9747
 Frc consts  --      0.7083                 0.8292                 3.7160
 IR Inten    --     11.2280                 2.7073                 1.2089

                     37                     38                     39
                      A                      A                      A
 Frequencies --   1037.3669              1040.1009              1065.5515
 Red. masses --      1.2489                 1.1940                 2.2517
 Frc consts  --      0.7919                 0.7611                 1.5063
 IR Inten    --     38.3780                43.6264                33.1685

                     40                     41                     42
                      A                      A                      A
 Frequencies --   1075.9248              1107.3023              1125.3596
 Red. masses --      4.1403                 4.5472                 1.8045
 Frc consts  --      2.8239                 3.2849                 1.3465
 IR Inten    --    202.8775               172.3465                82.6048

                     43                     44                     45
                      A                      A                      A
 Frequencies --   1182.4047              1184.2189              1188.4353
 Red. masses --      1.2804                 1.1784                 1.1330
 Frc consts  --      1.0547                 0.9737                 0.9428
 IR Inten    --      4.5169                60.4637               113.9306

                     46                     47                     48
                      A                      A                      A
 Frequencies --   1215.1112              1217.0863              1222.2941
 Red. masses --      1.7318                 1.2607                 1.3393
 Frc consts  --      1.5065                 1.1003                 1.1789
 IR Inten    --     65.6631                17.2074                29.9959

                     49                     50                     51
                      A                      A                      A
 Frequencies --   1234.8410              1267.2260              1322.8516
 Red. masses --      2.4600                 1.4123                 5.9480
 Frc consts  --      2.2101                 1.3363                 6.1325
 IR Inten    --     22.0126                76.6238              1054.4567

                     52                     53                     54
                      A                      A                      A
 Frequencies --   1334.3811              1345.8923              1374.0974
 Red. masses --      3.8272                 1.3748                 1.3646
 Frc consts  --      4.0150                 1.4672                 1.5180
 IR Inten    --      0.7457                21.0611                28.4958

                     55                     56                     57
                      A                      A                      A
 Frequencies --   1458.3906              1471.0537              1479.6531
 Red. masses --      1.7431                 1.6036                 1.1613
 Frc consts  --      2.1844                 2.0446                 1.4980
 IR Inten    --    266.4022               160.3479               133.2209

                     58                     59                     60
                      A                      A                      A
 Frequencies --   1484.2448              1491.3075              1496.5515
 Red. masses --      1.1211                 1.0408                 1.1059
 Frc consts  --      1.4552                 1.3638                 1.4594
 IR Inten    --     86.8633                18.1548                 9.5388

                     61                     62                     63
                      A                      A                      A
 Frequencies --   1503.7294              1507.9327              1554.1160
 Red. masses --      1.7487                 1.2027                 2.4961
 Frc consts  --      2.3298                 1.6112                 3.5521
 IR Inten    --    104.8528                29.5553                 7.9178

                     64                     65                     66
                      A                      A                      A
 Frequencies --   1644.2393              1654.9473              1667.9463
 Red. masses --      1.1575                 5.1678                 7.6594
 Frc consts  --      1.8437                 8.3391                12.5547
 IR Inten    --     88.4511                47.6867               535.5919

                     67                     68                     69
                      A                      A                      A
 Frequencies --   1679.7278              3062.2690              3067.3527
 Red. masses --      5.7429                 1.0308                 1.0336
 Frc consts  --      9.5468                 5.6952                 5.7294
 IR Inten    --      0.1527                65.8315                48.8938

                     70                     71                     72
                      A                      A                      A
 Frequencies --   3138.0481              3144.6834              3164.5692
 Red. masses --      1.1068                 1.1053                 1.1022
 Frc consts  --      6.4216                 6.4401                 6.5035
 IR Inten    --     38.0366                19.5141                12.9118

                     73                     74                     75
                      A                      A                      A
 Frequencies --   3166.9636              3171.5389              3194.1723
 Red. masses --      1.0908                 1.1053                 1.0873
 Frc consts  --      6.4461                 6.5507                 6.5363
 IR Inten    --      4.3870                25.7769                 4.3504

                     76                     77                     78
                      A                      A                      A
 Frequencies --   3200.9220              3210.4586              3219.8107
 Red. masses --      1.0883                 1.0917                 1.0951
 Frc consts  --      6.5698                 6.6299                 6.6891
 IR Inten    --      0.7452                21.6092                33.8669

                     79                     80                     81
                      A                      A                      A
 Frequencies --   3227.0752              3528.8915              3611.1042
 Red. masses --      1.0976                 1.0509                 1.0963
 Frc consts  --      6.7343                 7.7104                 8.4225
 IR Inten    --      6.5410                21.8280                48.1600

 - Thermochemistry -
 -------------------
 Temperature   298.150 Kelvin.  Pressure   1.00000 Atm.
 Atom     1 has atomic number  6 and mass  12.00000

 Molecular mass:   271.02079 amu.
 Principal axes and moments of inertia in atomic units:
                           1         2         3
     Eigenvalues --  2613.193905966.087607197.02314
           X            0.99981  -0.01784  -0.00740
           Y            0.01744   0.99858  -0.05032
           Z            0.00828   0.05018   0.99871
 This molecule is an asymmetric top.
 Rotational symmetry number  1.
 Warning -- assumption of classical behavior for rotation
           may cause significant error
 Rotational temperatures (Kelvin)      0.03314     0.01452     0.01203
 Rotational constants (GHZ):           0.69063     0.30250     0.25076
    1 imaginary frequencies ignored.
 Zero-point vibrational energy     619411.4 (Joules/Mol)
                                  148.04289 (Kcal/Mol)
 Warning -- explicit consideration of  21 degrees of freedom as
           vibrations may cause significant error
 Vibrational temperatures:     43.94    70.69    86.88   111.00   125.83
          (Kelvin)            142.72   180.36   205.36   223.72   253.39
                              263.10   330.30   346.71   390.83   458.82
                              500.64   576.64   610.23   626.73   797.90
                              846.22   903.22   930.71  1024.58  1056.26
                             1079.00  1129.95  1150.08  1241.21  1274.49
                             1390.74  1424.16  1448.33  1470.59  1478.25
                             1492.54  1496.47  1533.09  1548.02  1593.16
                             1619.14  1701.22  1703.83  1709.89  1748.27
                             1751.12  1758.61  1776.66  1823.26  1903.29
                             1919.88  1936.44  1977.02  2098.30  2116.52
                             2128.89  2135.50  2145.66  2153.20  2163.53
                             2169.58  2236.03  2365.69  2381.10  2399.80
                             2416.75  4405.92  4413.24  4514.95  4524.50
                             4553.11  4556.55  4563.14  4595.70  4605.41
                             4619.13  4632.59  4643.04  5077.29  5195.57

 Zero-point correction=                           0.235921 (Hartree/Particle)
 Thermal correction to Energy=                    0.251609
 Thermal correction to Enthalpy=                  0.252554
 Thermal correction to Gibbs Free Energy=         0.190665
 Sum of electronic and zero-point Energies=          -3206.781384
 Sum of electronic and thermal Energies=             -3206.765696
 Sum of electronic and thermal Enthalpies=           -3206.764752
 Sum of electronic and thermal Free Energies=        -3206.826641

                     E (Thermal)             CV                S
                      KCal/Mol        Cal/Mol-Kelvin    Cal/Mol-Kelvin
 Total                  157.887             55.474            130.256
 Electronic               0.000              0.000              0.000
 Translational            0.889              2.981             42.690
 Rotational               0.889              2.981             33.084
 Vibrational            156.110             49.512             54.482
 Vibration     1          0.594              1.984              5.794
 Vibration     2          0.595              1.978              4.852
 Vibration     3          0.597              1.973              4.445
 Vibration     4          0.599              1.964              3.962
 Vibration     5          0.601              1.958              3.716
 Vibration     6          0.604              1.950              3.470
 Vibration     7          0.610              1.928              3.016
 Vibration     8          0.616              1.910              2.767
 Vibration     9          0.620              1.897              2.604
 Vibration    10          0.628              1.872              2.369
 Vibration    11          0.630              1.863              2.299
 Vibration    12          0.652              1.796              1.882
 Vibration    13          0.658              1.778              1.796
 Vibration    14          0.675              1.726              1.586
 Vibration    15          0.705              1.637              1.316
 Vibration    16          0.726              1.579              1.175
 Vibration    17          0.767              1.468              0.960
 Vibration    18          0.786              1.418              0.878
 Vibration    19          0.796              1.393              0.841
 Vibration    20          0.910              1.130              0.535
 Vibration    21          0.945              1.057              0.470

 Optimization completed.
    -- Stationary point found.
 Normal termination of Gaussian 16 at Sat Jan 30 23:43:01 2021.
