 Gaussian 16, Revision A.03,
 Gaussian 16:  ES64L-G16RevA.03 25-Dec-2016

 ----------------------------------------------------------------------
 # wB97XD def2tzvp, opt=(ts, noeigen, calcfc, maxcycles=70, maxstep=1),
  freq=noraman, scrf=(iefpcm, solvent=water)
 ----------------------------------------------------------------------

 ------------------------
 0_iteration/TS-643-0.out
 ------------------------
 Symbolic Z-matrix:
 Charge =  0 Multiplicity = 1

 SCF Done:  E(RwB97XD) =  -3147.84417463     A.U. after   14 cycles
 SCF Done:  E(RwB97XD) =  -3147.84416311     A.U. after   10 cycles
 SCF Done:  E(RwB97XD) =  -3147.84415630     A.U. after    9 cycles
 SCF Done:  E(RwB97XD) =  -3147.84415485     A.U. after   10 cycles
 SCF Done:  E(RwB97XD) =  -3147.84415945     A.U. after    9 cycles
 SCF Done:  E(RwB97XD) =  -3147.84417518     A.U. after   10 cycles
 SCF Done:  E(RwB97XD) =  -3147.84419181     A.U. after   10 cycles
 SCF Done:  E(RwB97XD) =  -3147.84420477     A.U. after   10 cycles
 SCF Done:  E(RwB97XD) =  -3147.84421312     A.U. after   10 cycles
 SCF Done:  E(RwB97XD) =  -3147.84421703     A.U. after   10 cycles
 SCF Done:  E(RwB97XD) =  -3147.84421736     A.U. after    8 cycles
 Optimization completed.
    -- Stationary point found.
 Normal termination of Gaussian 16 at Thu Feb 18 23:02:08 2021.

 ---------------------------------------------------------------------
 #N Geom=AllCheck Guess=TCheck SCRF=Check GenChk RwB97XD/def2TZVP Freq
 ---------------------------------------------------------------------

 Structure from the checkpoint file:  "/beegfs/scratch/user/q/tla25/Gau-116443.chk"
 ------------------------
 0_iteration/TS-643-0.out
 ------------------------
 Charge =  0 Multiplicity = 1

                         Standard orientation:
 ---------------------------------------------------------------------
 Center     Atomic      Atomic             Coordinates (Angstroms)
 Number     Number       Type             X           Y           Z
 ---------------------------------------------------------------------
      1          6           0       -0.203816    0.804033   -0.312252
      2          6           0       -0.398282    2.194187   -0.688707
      3          8           0       -1.498428    2.682648   -0.988738
      4          6           0       -1.353053    0.039672   -0.253356
      5          6           0       -2.119941    1.163620    2.141062
      6          1           0       -2.327928    1.067612    3.205754
      7          1           0       -1.150270    1.643368    2.000748
      8          1           0       -2.883157    1.778515    1.670342
      9          7           0       -2.082666   -0.138030    1.484344
     10          1           0       -1.494001   -0.795238    1.984535
     11          1           0       -3.004071   -0.552964    1.400290
     12         35           0       -1.265620   -1.851605   -0.687273
     13          1           0       -2.241804    0.480495   -0.682361
     14          6           0        1.138875    0.260148    0.011451
     15          6           0        2.112227    0.122332   -0.981609
     16          6           0        3.366972   -0.393171   -0.693753
     17          6           0        3.674443   -0.799025    0.597496
     18          6           0        2.720307   -0.674520    1.596567
     19          6           0        1.472145   -0.143068    1.305538
     20          1           0        1.872413    0.418690   -1.996275
     21          1           0        4.102775   -0.489393   -1.482590
     22          1           0        4.651008   -1.208333    0.823180
     23          1           0        2.950259   -0.982829    2.608955
     24          1           0        0.749614   -0.027592    2.104343
     25          7           0        0.705234    3.000741   -0.674865
     26          1           0        0.613841    3.912415   -1.086147
     27          1           0        1.628189    2.616009   -0.587306
 ---------------------------------------------------------------------

 SCF Done:  E(RwB97XD) =  -3147.84421736     A.U. after    1 cycles

 The electronic state is 1-A.
 Alpha  occ. eigenvalues -- -483.12898 -62.67755 -56.46858 -56.46522 -56.46510
 Alpha  occ. eigenvalues --  -19.19406 -14.49259 -14.43444 -10.37799 -10.37602
 Alpha  occ. eigenvalues --  -10.31784 -10.30022 -10.28981 -10.28962 -10.28848
 Alpha  occ. eigenvalues --  -10.28812 -10.28695 -10.26178  -8.81870  -6.63985
 Alpha  occ. eigenvalues --   -6.62917  -6.62874  -2.74378  -2.74076  -2.74043
 Alpha  occ. eigenvalues --   -2.73178  -2.73178  -1.11976  -1.04610  -0.99044
 Alpha  occ. eigenvalues --   -0.96618  -0.92444  -0.87055  -0.84972  -0.82252
 Alpha  occ. eigenvalues --   -0.79152  -0.72827  -0.70345  -0.69638  -0.64969
 Alpha  occ. eigenvalues --   -0.63450  -0.61924  -0.60164  -0.57468  -0.56789
 Alpha  occ. eigenvalues --   -0.54970  -0.54059  -0.53485  -0.51236  -0.50761
 Alpha  occ. eigenvalues --   -0.49669  -0.48745  -0.47936  -0.46605  -0.46065
 Alpha  occ. eigenvalues --   -0.45337  -0.42604  -0.42566  -0.37775  -0.37073
 Alpha  occ. eigenvalues --   -0.34923  -0.34532  -0.33614  -0.32589  -0.27151
 Alpha virt. eigenvalues --    0.04910   0.05094   0.05703   0.07604   0.10144
 Alpha virt. eigenvalues --    0.12663   0.13725   0.14683   0.14907   0.16549
 Alpha virt. eigenvalues --    0.17093   0.17372   0.17961   0.18527   0.18999

 Mulliken charges:
               1
     1  C   -0.234704
     2  C    0.307742
     3  O   -0.552129
     4  C   -0.000373
     5  C   -0.292308
     6  H    0.163969
     7  H    0.154895
     8  H    0.158489
     9  N   -0.323043
    10  H    0.282151
    11  H    0.294629
    12  Br  -0.124827
    13  H    0.187828
    14  C    0.141320
    15  C   -0.292149
    16  C   -0.115625
    17  C   -0.145556
    18  C   -0.168605
    19  C   -0.226920
    20  H    0.147673
    21  H    0.141489
    22  H    0.143225
    23  H    0.139689
    24  H    0.148337
    25  N   -0.470406
    26  H    0.261108
    27  H    0.274102
 Sum of Mulliken charges =  -0.00000

 Dipole moment (field-independent basis, Debye):
    X=              0.0501    Y=             -2.2015    Z=              5.9791  Tot=              6.3717
 Quadrupole moment (field-independent basis, Debye-Ang):
   XX=            -82.1403   YY=           -105.2322   ZZ=            -86.1168
   XY=              9.6311   XZ=            -15.0216   YZ=             -0.2735

  Exact polarizability: 245.016  -4.630 214.166 -12.470 -14.485 207.856
 Approx polarizability: 194.235  -6.439 171.784  -7.644 -11.400 176.292

 ******    1 imaginary frequencies (negative Signs) ******

                      1                      2                      3
                      A                      A                      A
 Frequencies --   -378.9892                27.7021                59.5096
 Red. masses --      5.7461                 3.8188                 7.3283
 Frc consts  --      0.4863                 0.0017                 0.0153
 IR Inten    --    720.1842                 3.6938                 2.7291

                      4                      5                      6
                      A                      A                      A
 Frequencies --     72.7336                91.2958               101.1582
 Red. masses --      4.5523                 5.6477                 4.2540
 Frc consts  --      0.0142                 0.0277                 0.0256
 IR Inten    --      4.6472                19.2528                 1.5775

                      7                      8                      9
                      A                      A                      A
 Frequencies --    123.5801               142.3818               174.7342
 Red. masses --      2.3678                 5.1860                 4.1863
 Frc consts  --      0.0213                 0.0619                 0.0753
 IR Inten    --     13.0638                 9.1117                 1.3801

                     10                     11                     12
                      A                      A                      A
 Frequencies --    198.5786               212.6615               253.8657
 Red. masses --      1.1226                 5.7839                 1.3006
 Frc consts  --      0.0261                 0.1541                 0.0494
 IR Inten    --      3.5897                 6.6968               339.8575

                     13                     14                     15
                      A                      A                      A
 Frequencies --    284.4133               303.7016               348.8206
 Red. masses --      3.8519                 4.4112                 3.4176
 Frc consts  --      0.1836                 0.2397                 0.2450
 IR Inten    --     89.5630                18.1258                24.8950

                     16                     17                     18
                      A                      A                      A
 Frequencies --    384.1116               423.7926               470.3272
 Red. masses --      5.5871                 2.8789                 2.7466
 Frc consts  --      0.4857                 0.3046                 0.3580
 IR Inten    --     23.6905                 0.6505                42.1164

                     19                     20                     21
                      A                      A                      A
 Frequencies --    509.0395               560.7342               589.1071
 Red. masses --      1.6047                 1.9363                 2.9968
 Frc consts  --      0.2450                 0.3587                 0.6128
 IR Inten    --     17.2545                 6.7317                38.3960

                     22                     23                     24
                      A                      A                      A
 Frequencies --    605.7161               640.1464               684.2176
 Red. masses --      4.0256                 6.1615                 3.0172
 Frc consts  --      0.8702                 1.4876                 0.8322
 IR Inten    --    131.2939                 1.1352                61.4150

                     25                     26                     27
                      A                      A                      A
 Frequencies --    729.1561               733.0050               769.9456
 Red. masses --      1.7980                 1.9950                 4.0940
 Frc consts  --      0.5632                 0.6316                 1.4299
 IR Inten    --     93.8762                 0.8624                85.8688

                     28                     29                     30
                      A                      A                      A
 Frequencies --    802.8778               810.0399               878.9945
 Red. masses --      3.9315                 3.0990                 1.2456
 Frc consts  --      1.4931                 1.1981                 0.5670
 IR Inten    --     73.1528                18.0061                 0.6146

                     31                     32                     33
                      A                      A                      A
 Frequencies --    952.0953              1007.5778              1012.3158
 Red. masses --      1.4504                 1.2526                 1.3706
 Frc consts  --      0.7746                 0.7492                 0.8276
 IR Inten    --      1.8128                 9.9400                 2.4422

                     34                     35                     36
                      A                      A                      A
 Frequencies --   1025.3417              1028.3777              1036.2754
 Red. masses --      3.9549                 1.4532                 1.1328
 Frc consts  --      2.4498                 0.9055                 0.7167
 IR Inten    --      0.1610                 0.8681                79.8546

                     37                     38                     39
                      A                      A                      A
 Frequencies --   1039.6334              1067.0864              1080.0415
 Red. masses --      2.6730                 1.9638                 5.1297
 Frc consts  --      1.7022                 1.3175                 3.5255
 IR Inten    --     14.6846                 7.1248                46.6269

                     40                     41                     42
                      A                      A                      A
 Frequencies --   1089.8293              1113.4428              1141.8263
 Red. masses --      1.8006                 1.5665                 1.3219
 Frc consts  --      1.2601                 1.1442                 1.0154
 IR Inten    --     22.6143                29.9861                56.5734

                     43                     44                     45
                      A                      A                      A
 Frequencies --   1182.0981              1188.8224              1211.1467
 Red. masses --      1.1357                 1.3136                 1.1239
 Frc consts  --      0.9350                 1.0938                 0.9713
 IR Inten    --      1.0527                30.1731                 0.4550

                     46                     47                     48
                      A                      A                      A
 Frequencies --   1225.6078              1302.2012              1313.6213
 Red. masses --      1.3828                 3.2705                 2.9521
 Frc consts  --      1.2238                 3.2675                 3.0013
 IR Inten    --     38.3289                39.6978                 1.8107

                     49                     50                     51
                      A                      A                      A
 Frequencies --   1340.9859              1357.7250              1383.6006
 Red. masses --      1.3225                 1.5960                 3.4831
 Frc consts  --      1.4012                 1.7334                 3.9286
 IR Inten    --      1.6243               133.5971               969.3031

                     52                     53                     54
                      A                      A                      A
 Frequencies --   1434.3158              1470.6917              1488.3615
 Red. masses --      3.7356                 1.3174                 2.2632
 Frc consts  --      4.5279                 1.6789                 2.9539
 IR Inten    --    379.9649                57.3865                31.4837

                     55                     56                     57
                      A                      A                      A
 Frequencies --   1496.3991              1504.9273              1546.8197
 Red. masses --      1.0441                 1.0344                 2.4829
 Frc consts  --      1.3775                 1.3803                 3.5002
 IR Inten    --     12.2236                24.4417                35.5197

                     58                     59                     60
                      A                      A                      A
 Frequencies --   1605.6296              1640.7900              1643.9361
 Red. masses --      1.3630                 1.5457                 2.2039
 Frc consts  --      2.0703                 2.4518                 3.5092
 IR Inten    --    326.0213                36.1114                58.5476

                     61                     62                     63
                      A                      A                      A
 Frequencies --   1654.2569              1672.4808              3069.3233
 Red. masses --      5.3362                 5.8901                 1.0340
 Frc consts  --      8.6038                 9.7073                 5.7393
 IR Inten    --    718.2744                 2.6444                31.5579

                     64                     65                     66
                      A                      A                      A
 Frequencies --   3146.5448              3176.2723              3188.0828
 Red. masses --      1.1038                 1.1055                 1.0867
 Frc consts  --      6.4389                 6.5710                 6.5073
 IR Inten    --     10.3103                10.2240                 7.5923

                     67                     68                     69
                      A                      A                      A
 Frequencies --   3193.2596              3202.5274              3209.4873
 Red. masses --      1.0869                 1.0912                 1.0948
 Frc consts  --      6.5302                 6.5938                 6.6441
 IR Inten    --      3.4647                14.9391                52.3467

                     70                     71                     72
                      A                      A                      A
 Frequencies --   3220.2559              3220.6531              3516.7777
 Red. masses --      1.0908                 1.0984                 1.0509
 Frc consts  --      6.6649                 6.7130                 7.6579
 IR Inten    --      5.0976                17.4918                43.9313

                     73                     74                     75
                      A                      A                      A
 Frequencies --   3600.4173              3622.1651              3746.8906
 Red. masses --      1.0965                 1.0455                 1.1042
 Frc consts  --      8.3749                 8.0821                 9.1339
 IR Inten    --     53.5435                68.5241                92.4789

 - Thermochemistry -
 -------------------
 Temperature   298.150 Kelvin.  Pressure   1.00000 Atm.
 Atom     1 has atomic number  6 and mass  12.00000

 Molecular mass:   256.02112 amu.
 Principal axes and moments of inertia in atomic units:
                           1         2         3
     Eigenvalues --  3228.244584096.675495421.77196
           X            0.99089  -0.12860  -0.03990
           Y            0.12747   0.99140  -0.02964
           Z            0.04336   0.02428   0.99876
 This molecule is an asymmetric top.
 Rotational symmetry number  1.
 Warning -- assumption of classical behavior for rotation
           may cause significant error
 Rotational temperatures (Kelvin)      0.02683     0.02114     0.01598
 Rotational constants (GHZ):           0.55905     0.44054     0.33287
    1 imaginary frequencies ignored.
 Zero-point vibrational energy     576344.4 (Joules/Mol)
                                  137.74963 (Kcal/Mol)
 Warning -- explicit consideration of  21 degrees of freedom as
           vibrations may cause significant error
 Vibrational temperatures:     39.86    85.62   104.65   131.35   145.54
          (Kelvin)            177.80   204.86   251.40   285.71   305.97
                              365.26   409.21   436.96   501.88   552.65
                              609.74   676.70   732.39   806.77   847.59
                              871.49   921.03   984.44  1049.09  1054.63
                             1107.78  1155.16  1165.47  1264.68  1369.85
                             1449.68  1456.50  1475.24  1479.61  1490.97
                             1495.80  1535.30  1553.94  1568.02  1602.00
                             1642.83  1700.78  1710.45  1742.57  1763.38
                             1873.58  1890.01  1929.38  1953.46  1990.69
                             2063.66  2116.00  2141.42  2152.98  2165.25
                             2225.53  2310.14  2360.73  2365.26  2380.11
                             2406.33  4416.07  4527.18  4569.95  4586.94
                             4594.39  4607.72  4617.74  4633.23  4633.80
                             5059.86  5180.20  5211.49  5390.94

 Zero-point correction=                           0.219518 (Hartree/Particle)
 Thermal correction to Energy=                    0.233944
 Thermal correction to Enthalpy=                  0.234888
 Thermal correction to Gibbs Free Energy=         0.176456
 Sum of electronic and zero-point Energies=          -3147.624699
 Sum of electronic and thermal Energies=             -3147.610274
 Sum of electronic and thermal Enthalpies=           -3147.609329
 Sum of electronic and thermal Free Energies=        -3147.667761

                     E (Thermal)             CV                S
                      KCal/Mol        Cal/Mol-Kelvin    Cal/Mol-Kelvin
 Total                  146.802             52.501            122.979
 Electronic               0.000              0.000              0.000
 Translational            0.889              2.981             42.520
 Rotational               0.889              2.981             32.639
 Vibrational            145.024             46.539             47.820
 Vibration     1          0.593              1.984              5.988
 Vibration     2          0.597              1.974              4.473
 Vibration     3          0.599              1.967              4.078
 Vibration     4          0.602              1.955              3.632
 Vibration     5          0.604              1.948              3.432
 Vibration     6          0.610              1.929              3.044
 Vibration     7          0.616              1.911              2.772
 Vibration     8          0.627              1.874              2.384
 Vibration     9          0.637              1.842              2.146
 Vibration    10          0.644              1.822              2.021
 Vibration    11          0.665              1.756              1.704
 Vibration    12          0.683              1.703              1.507
 Vibration    13          0.695              1.667              1.396
 Vibration    14          0.726              1.578              1.172
 Vibration    15          0.753              1.504              1.023
 Vibration    16          0.786              1.418              0.879
 Vibration    17          0.827              1.316              0.737
 Vibration    18          0.864              1.230              0.636
 Vibration    19          0.916              1.116              0.522
 Vibration    20          0.946              1.055              0.469
 Vibration    21          0.964              1.020              0.440

 Optimization completed.
    -- Stationary point found.
 Normal termination of Gaussian 16 at Fri Feb 19 00:03:27 2021.
