 Gaussian 16, Revision A.03,
 Gaussian 16:  ES64L-G16RevA.03 25-Dec-2016

 ----------------------------------------------------------------------
 # wB97XD def2tzvp, opt=(ts, noeigen, calcfc, maxcycles=70, maxstep=1),
  freq=noraman, scrf=(iefpcm, solvent=water)
 ----------------------------------------------------------------------

 ------------------------
 0_iteration/TS-656-0.out
 ------------------------
 Symbolic Z-matrix:
 Charge =  0 Multiplicity = 1

 SCF Done:  E(RwB97XD) =  -3092.45792308     A.U. after   15 cycles
 SCF Done:  E(RwB97XD) =  -3092.45783740     A.U. after   10 cycles
 SCF Done:  E(RwB97XD) =  -3092.45775605     A.U. after   10 cycles
 SCF Done:  E(RwB97XD) =  -3092.45767898     A.U. after   10 cycles
 SCF Done:  E(RwB97XD) =  -3092.45760630     A.U. after   10 cycles
 SCF Done:  E(RwB97XD) =  -3092.45753815     A.U. after   10 cycles
 SCF Done:  E(RwB97XD) =  -3092.45747464     A.U. after   10 cycles
 SCF Done:  E(RwB97XD) =  -3092.45741588     A.U. after   10 cycles
 SCF Done:  E(RwB97XD) =  -3092.45736197     A.U. after   10 cycles
 SCF Done:  E(RwB97XD) =  -3092.45731293     A.U. after   10 cycles
 SCF Done:  E(RwB97XD) =  -3092.45865194     A.U. after   10 cycles
 SCF Done:  E(RwB97XD) =  -3092.45868480     A.U. after    9 cycles
 SCF Done:  E(RwB97XD) =  -3092.45871037     A.U. after    9 cycles
 SCF Done:  E(RwB97XD) =  -3092.45872920     A.U. after    9 cycles
 SCF Done:  E(RwB97XD) =  -3092.45874100     A.U. after    9 cycles
 SCF Done:  E(RwB97XD) =  -3092.45874641     A.U. after    9 cycles
 SCF Done:  E(RwB97XD) =  -3092.45874725     A.U. after    9 cycles
 SCF Done:  E(RwB97XD) =  -3092.45874730     A.U. after    7 cycles
 SCF Done:  E(RwB97XD) =  -3092.45874732     A.U. after    6 cycles
 Optimization completed.
    -- Stationary point found.
 Normal termination of Gaussian 16 at Fri Feb 19 00:10:46 2021.

 ---------------------------------------------------------------------
 #N Geom=AllCheck Guess=TCheck SCRF=Check GenChk RwB97XD/def2TZVP Freq
 ---------------------------------------------------------------------

 Structure from the checkpoint file:  "/beegfs/scratch/user/q/tla25/Gau-102861.chk"
 ------------------------
 0_iteration/TS-656-0.out
 ------------------------
 Charge =  0 Multiplicity = 1

                         Standard orientation:
 ---------------------------------------------------------------------
 Center     Atomic      Atomic             Coordinates (Angstroms)
 Number     Number       Type             X           Y           Z
 ---------------------------------------------------------------------
      1          6           0       -0.194551   -0.274565   -0.058349
      2          6           0        0.873883    0.625598   -0.351403
      3          8           0        0.687261    1.758275   -0.819289
      4          6           0       -1.477325    0.130728   -0.350515
      5          6           0       -3.338421    2.158375    0.775633
      6          1           0       -3.530082    2.924480    1.528869
      7          1           0       -3.260400    2.637123   -0.200145
      8          1           0       -4.174351    1.461138    0.758305
      9          7           0       -2.107811    1.422908    1.041784
     10          1           0       -1.298824    2.032501    1.068630
     11          1           0       -2.145258    0.900319    1.908541
     12         35           0       -2.874450   -1.164349   -0.300853
     13          1           0       -1.653180    0.879094   -1.110224
     14          1           0       -0.020010   -1.218107    0.433954
     15          6           0        2.286810    0.174944   -0.093465
     16          6           0        3.315086    0.770078   -0.821028
     17          6           0        4.633261    0.395420   -0.619715
     18          6           0        4.944301   -0.570235    0.328534
     19          6           0        3.929468   -1.159239    1.068630
     20          6           0        2.608571   -0.794059    0.854301
     21          1           0        3.064626    1.529463   -1.550165
     22          1           0        5.420864    0.858403   -1.200918
     23          1           0        5.974617   -0.860111    0.492193
     24          1           0        4.165827   -1.904754    1.817309
     25          1           0        1.832005   -1.256153    1.449587
 ---------------------------------------------------------------------

 SCF Done:  E(RwB97XD) =  -3092.45874732     A.U. after    1 cycles

 The electronic state is 1-A.
 Alpha  occ. eigenvalues -- -483.13710 -62.68570 -56.47679 -56.47336 -56.47318
 Alpha  occ. eigenvalues --  -19.21135 -14.47482 -10.38335 -10.35974 -10.31604
 Alpha  occ. eigenvalues --  -10.29728 -10.29448 -10.29317 -10.29171 -10.29141
 Alpha  occ. eigenvalues --  -10.29064 -10.26168  -8.82695  -6.64837  -6.63736
 Alpha  occ. eigenvalues --   -6.63678  -2.75233  -2.74916  -2.74871  -2.73981
 Alpha  occ. eigenvalues --   -2.73980  -1.11865  -1.02983  -0.96748  -0.93314
 Alpha  occ. eigenvalues --   -0.87060  -0.85336  -0.84113  -0.78557  -0.74402
 Alpha  occ. eigenvalues --   -0.70752  -0.68658  -0.63849  -0.62637  -0.61015
 Alpha  occ. eigenvalues --   -0.56712  -0.56418  -0.54896  -0.53609  -0.53295
 Alpha  occ. eigenvalues --   -0.52327  -0.51203  -0.49206  -0.48531  -0.47756
 Alpha  occ. eigenvalues --   -0.46778  -0.45629  -0.44170  -0.43792  -0.42548
 Alpha  occ. eigenvalues --   -0.38237  -0.37093  -0.34084  -0.33984  -0.32792
 Alpha  occ. eigenvalues --   -0.28735
 Alpha virt. eigenvalues --    0.00675   0.05085   0.06414   0.07434   0.10887
 Alpha virt. eigenvalues --    0.13271   0.14183   0.15184   0.15403   0.16487
 Alpha virt. eigenvalues --    0.16795   0.17597   0.18841   0.19255   0.19873

 Mulliken charges:
               1
     1  C   -0.398474
     2  C    0.318138
     3  O   -0.523076
     4  C    0.011202
     5  C   -0.266068
     6  H    0.149322
     7  H    0.147938
     8  H    0.146884
     9  N   -0.374578
    10  H    0.280113
    11  H    0.279082
    12  Br  -0.074423
    13  H    0.178685
    14  H    0.141522
    15  C    0.138969
    16  C   -0.231612
    17  C   -0.127121
    18  C   -0.139355
    19  C   -0.144856
    20  C   -0.231871
    21  H    0.140178
    22  H    0.143719
    23  H    0.146291
    24  H    0.144034
    25  H    0.145356
 Sum of Mulliken charges =  -0.00000

 Dipole moment (field-independent basis, Debye):
    X=             -3.5271    Y=              0.5937    Z=              4.4445  Tot=              5.7049
 Quadrupole moment (field-independent basis, Debye-Ang):
   XX=            -72.7260   YY=            -89.8122   ZZ=            -86.1506
   XY=            -13.2165   XZ=             -4.5665   YZ=              1.8012

  Exact polarizability: 312.018  -7.058 192.585 -14.778 -21.851 163.820
 Approx polarizability: 214.327  -1.805 165.195  -8.691 -21.209 144.018

 ******    1 imaginary frequencies (negative Signs) ******

                      1                      2                      3
                      A                      A                      A
 Frequencies --   -362.9535                24.0897                37.9893
 Red. masses --      6.4027                 3.8480                 4.4183
 Frc consts  --      0.4970                 0.0013                 0.0038
 IR Inten    --   1020.4627                 1.5019                 4.9718

                      4                      5                      6
                      A                      A                      A
 Frequencies --     51.1200                74.0968                86.0675
 Red. masses --      2.8152                 2.8379                 6.3133
 Frc consts  --      0.0043                 0.0092                 0.0276
 IR Inten    --      1.4996                18.6222                 1.8669

                      7                      8                      9
                      A                      A                      A
 Frequencies --    132.7681               159.9030               168.4049
 Red. masses --      4.2475                 1.2740                 4.8135
 Frc consts  --      0.0441                 0.0192                 0.0804
 IR Inten    --      2.2777                 3.1699                 9.1869

                     10                     11                     12
                      A                      A                      A
 Frequencies --    208.8193               250.0251               274.6371
 Red. masses --      4.6541                 4.5694                 3.9987
 Frc consts  --      0.1196                 0.1683                 0.1777
 IR Inten    --      9.1956                 6.6039                13.5787

                     13                     14                     15
                      A                      A                      A
 Frequencies --    340.1784               408.3550               418.4567
 Red. masses --      5.1827                 5.2079                 2.8541
 Frc consts  --      0.3534                 0.5117                 0.2945
 IR Inten    --     35.6318                29.7943                 0.2576

                     16                     17                     18
                      A                      A                      A
 Frequencies --    484.4040               519.2561               588.7532
 Red. masses --      3.2436                 4.0057                 1.7595
 Frc consts  --      0.4484                 0.6363                 0.3593
 IR Inten    --     35.1007                 1.6050                17.7579

                     19                     20                     21
                      A                      A                      A
 Frequencies --    636.0243               659.0565               709.1571
 Red. masses --      6.3894                 3.6830                 1.4488
 Frc consts  --      1.5229                 0.9425                 0.4293
 IR Inten    --      0.2092               122.0750                 9.3959

                     22                     23                     24
                      A                      A                      A
 Frequencies --    718.4962               742.6205               746.0298
 Red. masses --      2.0021                 2.9874                 2.1769
 Frc consts  --      0.6090                 0.9707                 0.7138
 IR Inten    --     37.8365               192.2208               155.9089

                     25                     26                     27
                      A                      A                      A
 Frequencies --    835.8077               878.8696               894.0913
 Red. masses --      3.0014                 1.2520                 4.0496
 Frc consts  --      1.2353                 0.5698                 1.9073
 IR Inten    --      4.6941                 0.9308                 7.7937

                     28                     29                     30
                      A                      A                      A
 Frequencies --    969.7412               992.7915              1011.8122
 Red. masses --      1.4861                 1.0941                 1.0994
 Frc consts  --      0.8234                 0.6354                 0.6632
 IR Inten    --      1.3483                38.3981               128.6242

                     31                     32                     33
                      A                      A                      A
 Frequencies --   1016.6981              1025.7439              1033.3183
 Red. masses --      1.3814                 5.8890                 1.3224
 Frc consts  --      0.8413                 3.6507                 0.8319
 IR Inten    --      0.4086                 2.6770                 1.2427

                     34                     35                     36
                      A                      A                      A
 Frequencies --   1057.3153              1071.4018              1095.0350
 Red. masses --      2.4124                 3.8336                 2.0498
 Frc consts  --      1.5889                 2.5927                 1.4482
 IR Inten    --     46.2602               212.3466                29.5067

                     37                     38                     39
                      A                      A                      A
 Frequencies --   1116.3095              1131.5349              1183.1380
 Red. masses --      1.7768                 1.1783                 1.1346
 Frc consts  --      1.3045                 0.8888                 0.9358
 IR Inten    --      6.3186               102.8930                 4.3838

                     40                     41                     42
                      A                      A                      A
 Frequencies --   1196.2225              1200.2987              1204.6167
 Red. masses --      1.3272                 1.4179                 1.1505
 Frc consts  --      1.1190                 1.2036                 0.9836
 IR Inten    --     45.5746                64.4714                 2.9289

                     43                     44                     45
                      A                      A                      A
 Frequencies --   1265.0806              1308.2734              1337.2019
 Red. masses --      1.5630                 3.2885                 3.5695
 Frc consts  --      1.4738                 3.3163                 3.7606
 IR Inten    --    188.8714                16.8740                22.6572

                     46                     47                     48
                      A                      A                      A
 Frequencies --   1342.4947              1356.0985              1452.7587
 Red. masses --      1.5293                 1.5122                 1.5681
 Frc consts  --      1.6240                 1.6384                 1.9499
 IR Inten    --      2.1566                19.4449               780.8268

                     49                     50                     51
                      A                      A                      A
 Frequencies --   1469.7727              1489.4665              1493.9681
 Red. masses --      1.9196                 1.0403                 2.3700
 Frc consts  --      2.4433                 1.3598                 3.1167
 IR Inten    --    909.5415                14.3838               352.7526

                     52                     53                     54
                      A                      A                      A
 Frequencies --   1504.8414              1541.0170              1627.6149
 Red. masses --      1.0397                 2.3137                 4.7095
 Frc consts  --      1.3872                 3.2372                 7.3507
 IR Inten    --      9.1453                24.1836               262.0639

                     55                     56                     57
                      A                      A                      A
 Frequencies --   1640.5433              1664.1554              1673.1338
 Red. masses --      1.2071                 6.4848                 5.9799
 Frc consts  --      1.9141                10.5811                 9.8629
 IR Inten    --     77.4986               131.5222                14.0708

                     58                     59                     60
                      A                      A                      A
 Frequencies --   3060.5192              3135.1273              3158.8759
 Red. masses --      1.0344                 1.1037                 1.1051
 Frc consts  --      5.7086                 6.3919                 6.4973
 IR Inten    --     61.9300                20.0353                15.5056

                     61                     62                     63
                      A                      A                      A
 Frequencies --   3195.5197              3204.0249              3213.0293
 Red. masses --      1.0859                 1.0888                 1.0921
 Frc consts  --      6.5334                 6.5857                 6.6427
 IR Inten    --      0.6387                 6.5569                17.7777

                     64                     65                     66
                      A                      A                      A
 Frequencies --   3220.0823              3220.3023              3224.9398
 Red. masses --      1.0923                 1.0943                 1.0980
 Frc consts  --      6.6732                 6.6859                 6.7279
 IR Inten    --      8.6831                23.7611                14.8443

                     67                     68                     69
                      A                      A                      A
 Frequencies --   3246.2345              3527.8136              3614.9805
 Red. masses --      1.0900                 1.0502                 1.0972
 Frc consts  --      6.7678                 7.7007                 8.4481
 IR Inten    --      1.8787                20.8513                48.0472

 - Thermochemistry -
 -------------------
 Temperature   298.150 Kelvin.  Pressure   1.00000 Atm.
 Atom     1 has atomic number  6 and mass  12.00000

 Molecular mass:   241.01023 amu.
 Principal axes and moments of inertia in atomic units:
                           1         2         3
     Eigenvalues --  1471.434487666.168378436.37016
           X            0.99928  -0.03726  -0.00781
           Y            0.03712   0.99917  -0.01688
           Z            0.00843   0.01658   0.99983
 This molecule is an asymmetric top.
 Rotational symmetry number  1.
 Warning -- assumption of classical behavior for rotation
           may cause significant error
 Rotational temperatures (Kelvin)      0.05886     0.01130     0.01027
 Rotational constants (GHZ):           1.22652     0.23542     0.21392
    1 imaginary frequencies ignored.
 Zero-point vibrational energy     529594.7 (Joules/Mol)
                                  126.57618 (Kcal/Mol)
 Warning -- explicit consideration of  17 degrees of freedom as
           vibrations may cause significant error
 Vibrational temperatures:     34.66    54.66    73.55   106.61   123.83
          (Kelvin)            191.02   230.06   242.30   300.44   359.73
                              395.14   489.44   587.53   602.07   696.95
                              747.09   847.08   915.10   948.24  1020.32
                             1033.76  1068.47  1073.37  1202.54  1264.50
                             1286.40  1395.24  1428.41  1455.77  1462.80
                             1475.82  1486.71  1521.24  1541.51  1575.51
                             1606.12  1628.03  1702.27  1721.10  1726.96
                             1733.17  1820.17  1882.31  1923.94  1931.55
                             1951.12  2090.20  2114.68  2143.01  2149.49
                             2165.13  2217.18  2341.77  2360.38  2394.35
                             2407.27  4403.40  4510.75  4544.92  4597.64
                             4609.88  4622.83  4632.98  4633.30  4639.97
                             4670.61  5075.74  5201.15

 Zero-point correction=                           0.201712 (Hartree/Particle)
 Thermal correction to Energy=                    0.215015
 Thermal correction to Enthalpy=                  0.215959
 Thermal correction to Gibbs Free Energy=         0.158417
 Sum of electronic and zero-point Energies=          -3092.257035
 Sum of electronic and thermal Energies=             -3092.243732
 Sum of electronic and thermal Enthalpies=           -3092.242788
 Sum of electronic and thermal Free Energies=        -3092.300331

                     E (Thermal)             CV                S
                      KCal/Mol        Cal/Mol-Kelvin    Cal/Mol-Kelvin
 Total                  134.924             47.260            121.109
 Electronic               0.000              0.000              0.000
 Translational            0.889              2.981             42.340
 Rotational               0.889              2.981             32.920
 Vibrational            133.147             41.298             45.849
 Vibration     1          0.593              1.985              6.265
 Vibration     2          0.594              1.982              5.361
 Vibration     3          0.595              1.977              4.774
 Vibration     4          0.599              1.966              4.041
 Vibration     5          0.601              1.959              3.748
 Vibration     6          0.613              1.921              2.906
 Vibration     7          0.622              1.891              2.551
 Vibration     8          0.625              1.881              2.453
 Vibration     9          0.642              1.827              2.054
 Vibration    10          0.663              1.763              1.730
 Vibration    11          0.677              1.720              1.567
 Vibration    12          0.720              1.595              1.211
 Vibration    13          0.773              1.452              0.932
 Vibration    14          0.781              1.430              0.897
 Vibration    15          0.841              1.285              0.698
 Vibration    16          0.874              1.207              0.612
 Vibration    17          0.946              1.056              0.469

 Optimization completed.
    -- Stationary point found.
 Normal termination of Gaussian 16 at Fri Feb 19 00:43:09 2021.
