 Gaussian 16, Revision A.03,
 Gaussian 16:  ES64L-G16RevA.03 25-Dec-2016

 ----------------------------------------------------------------------
 # wB97XD def2tzvp, opt=(ts, noeigen, calcfc, maxcycles=70, maxstep=8),
  freq=noraman, scrf=(iefpcm, solvent=water)
 ----------------------------------------------------------------------

 -----------------------
 1_iteration/TS-66-1.out
 -----------------------
 Symbolic Z-matrix:
 Charge =  0 Multiplicity = 1

 SCF Done:  E(RwB97XD) =  -3131.77986591     A.U. after   15 cycles
 SCF Done:  E(RwB97XD) =  -3131.78026150     A.U. after   13 cycles
 SCF Done:  E(RwB97XD) =  -3131.78031023     A.U. after   12 cycles
 SCF Done:  E(RwB97XD) =  -3131.78031295     A.U. after   11 cycles
 SCF Done:  E(RwB97XD) =  -3131.78016758     A.U. after   12 cycles
 SCF Done:  E(RwB97XD) =  -3131.78031331     A.U. after   12 cycles
 SCF Done:  E(RwB97XD) =  -3131.78031615     A.U. after   10 cycles
 SCF Done:  E(RwB97XD) =  -3131.78031980     A.U. after   10 cycles
 SCF Done:  E(RwB97XD) =  -3131.78031897     A.U. after   10 cycles
 SCF Done:  E(RwB97XD) =  -3131.78031952     A.U. after    7 cycles
 Optimization completed.
    -- Stationary point found.
 Normal termination of Gaussian 16 at Sun Jan 31 07:44:40 2021.

 ---------------------------------------------------------------------
 #N Geom=AllCheck Guess=TCheck SCRF=Check GenChk RwB97XD/def2TZVP Freq
 ---------------------------------------------------------------------

 Structure from the checkpoint file:  "/beegfs/scratch/user/q/tla25/Gau-30684.chk"
 -----------------------
 1_iteration/TS-66-1.out
 -----------------------
 Charge =  0 Multiplicity = 1

                         Standard orientation:
 ---------------------------------------------------------------------
 Center     Atomic      Atomic             Coordinates (Angstroms)
 Number     Number       Type             X           Y           Z
 ---------------------------------------------------------------------
      1          6           0        1.214663    0.131671    0.288865
      2          6           0        2.415261    0.838503    0.622114
      3          8           0        2.379760    2.053762    0.865563
      4          6           0       -0.001684    0.806208    0.338280
      5          6           0       -1.256601    2.928972   -1.220935
      6          1           0       -2.173319    2.354403   -1.343171
      7          1           0       -1.295276    3.445159   -0.261829
      8          1           0       -1.190018    3.670278   -2.018781
      9          7           0       -0.118676    2.017602   -1.220740
     10          1           0       -0.071825    1.456281   -2.061887
     11          1           0        0.762871    2.505519   -1.112001
     12          6           0       -1.345360    0.177657    0.322030
     13          6           0       -1.823698   -0.571209   -0.750721
     14          6           0       -3.093596   -1.123027   -0.712294
     15          6           0       -3.901727   -0.941863    0.402092
     16          6           0       -3.437069   -0.193095    1.472458
     17          6           0       -2.171307    0.372001    1.425990
     18          1           0       -1.206644   -0.717023   -1.627266
     19          1           0       -3.454121   -1.696322   -1.556829
     20          1           0       -4.892846   -1.376290    0.431074
     21          1           0       -4.063218   -0.038169    2.341791
     22          1           0       -1.817774    0.969345    2.257911
     23          1           0        0.055564    1.670494    0.991593
     24         35           0        1.339831   -1.652544   -0.388880
     25          6           0        3.739414    0.113919    0.672723
     26          1           0        4.051153   -0.173404   -0.333942
     27          1           0        4.488118    0.778285    1.098803
     28          1           0        3.676126   -0.801253    1.262410
 ---------------------------------------------------------------------

 SCF Done:  E(RwB97XD) =  -3131.78031952     A.U. after    2 cycles

 The electronic state is 1-A.
 Alpha  occ. eigenvalues -- -483.12126 -62.66963 -56.46065 -56.45730 -56.45728
 Alpha  occ. eigenvalues --  -19.21103 -14.47366 -10.35991 -10.34477 -10.31521
 Alpha  occ. eigenvalues --  -10.30869 -10.30519 -10.29622 -10.29574 -10.29422
 Alpha  occ. eigenvalues --  -10.29373 -10.29335 -10.27345  -8.81078  -6.63183
 Alpha  occ. eigenvalues --   -6.62112  -6.62107  -2.73581  -2.73263  -2.73259
 Alpha  occ. eigenvalues --   -2.72393  -2.72393  -1.11805  -1.02991  -0.97573
 Alpha  occ. eigenvalues --   -0.92737  -0.87781  -0.85634  -0.83076  -0.82295
 Alpha  occ. eigenvalues --   -0.78307  -0.73637  -0.71107  -0.67958  -0.63114
 Alpha  occ. eigenvalues --   -0.61762  -0.59520  -0.56887  -0.56087  -0.55253
 Alpha  occ. eigenvalues --   -0.54636  -0.53203  -0.52403  -0.51648  -0.51385
 Alpha  occ. eigenvalues --   -0.49589  -0.47947  -0.47421  -0.46746  -0.45034
 Alpha  occ. eigenvalues --   -0.44941  -0.43458  -0.43086  -0.41779  -0.38783
 Alpha  occ. eigenvalues --   -0.37581  -0.34271  -0.33592  -0.32609  -0.27289
 Alpha virt. eigenvalues --    0.01725   0.04875   0.06786   0.08601   0.10802
 Alpha virt. eigenvalues --    0.13072   0.13348   0.13806   0.14496   0.15441
 Alpha virt. eigenvalues --    0.16674   0.17434   0.18444   0.18645   0.18969

 Mulliken charges:
               1
     1  C   -0.169924
     2  C    0.269144
     3  O   -0.526850
     4  C   -0.104997
     5  C   -0.275885
     6  H    0.152711
     7  H    0.148817
     8  H    0.152147
     9  N   -0.360183
    10  H    0.275583
    11  H    0.279749
    12  C    0.290554
    13  C   -0.297826
    14  C   -0.124385
    15  C   -0.148239
    16  C   -0.141592
    17  C   -0.224434
    18  H    0.161763
    19  H    0.146004
    20  H    0.147078
    21  H    0.145598
    22  H    0.145543
    23  H    0.165875
    24  Br  -0.142022
    25  C   -0.375344
    26  H    0.142316
    27  H    0.127239
    28  H    0.141563
 Sum of Mulliken charges =  -0.00000

 Dipole moment (field-independent basis, Debye):
    X=             -5.2362    Y=              2.0805    Z=             -3.9623  Tot=              6.8881
 Quadrupole moment (field-independent basis, Debye-Ang):
   XX=            -93.8778   YY=            -97.1204   ZZ=            -88.6501
   XY=             -6.8555   XZ=             -4.0234   YZ=             -7.0091

  Exact polarizability: 280.151   8.336 217.430   8.276  15.420 197.341
 Approx polarizability: 203.055   9.686 180.867   2.467  16.396 172.257

 ******    1 imaginary frequencies (negative Signs) ******

                      1                      2                      3
                      A                      A                      A
 Frequencies --   -337.9419                36.5899                46.2120
 Red. masses --      5.9678                 5.9282                 4.4164
 Frc consts  --      0.4016                 0.0047                 0.0056
 IR Inten    --    769.6937                 2.6365                 1.3540

                      4                      5                      6
                      A                      A                      A
 Frequencies --     61.5346                84.1438                90.5712
 Red. masses --      2.6005                 3.2179                 4.2175
 Frc consts  --      0.0058                 0.0134                 0.0204
 IR Inten    --      0.3397                 7.9050                 1.1539

                      7                      8                      9
                      A                      A                      A
 Frequencies --    109.3902               132.2760               167.0524
 Red. masses --      4.2175                 2.2421                 1.2125
 Frc consts  --      0.0297                 0.0231                 0.0199
 IR Inten    --     21.4799                 3.6949                 2.3197

                     10                     11                     12
                      A                      A                      A
 Frequencies --    178.1323               187.2947               223.0855
 Red. masses --      1.6148                 3.3729                 4.4154
 Frc consts  --      0.0302                 0.0697                 0.1295
 IR Inten    --      2.8265                13.7177                 6.3059

                     13                     14                     15
                      A                      A                      A
 Frequencies --    231.8744               296.6907               332.7672
 Red. masses --      2.9607                 4.4571                 4.7125
 Frc consts  --      0.0938                 0.2312                 0.3075
 IR Inten    --      6.5588                 3.0821                 4.0481

                     16                     17                     18
                      A                      A                      A
 Frequencies --    391.7288               409.9021               425.9278
 Red. masses --      7.6237                 3.8200                 2.9976
 Frc consts  --      0.6893                 0.3782                 0.3204
 IR Inten    --     39.3071                57.2093                11.8177

                     19                     20                     21
                      A                      A                      A
 Frequencies --    543.7482               550.7247               598.0285
 Red. masses --      2.5099                 4.1469                 2.0326
 Frc consts  --      0.4372                 0.7410                 0.4283
 IR Inten    --     62.7000                72.6804                53.5414

                     22                     23                     24
                      A                      A                      A
 Frequencies --    619.8771               635.6373               660.6179
 Red. masses --      2.7013                 5.6109                 3.9676
 Frc consts  --      0.6115                 1.3357                 1.0202
 IR Inten    --     58.4313                 2.1104                12.2691

                     25                     26                     27
                      A                      A                      A
 Frequencies --    701.9855               730.4914               795.6927
 Red. masses --      3.0024                 1.6494                 2.0455
 Frc consts  --      0.8717                 0.5186                 0.7630
 IR Inten    --     56.9351               100.3833                16.4581

                     28                     29                     30
                      A                      A                      A
 Frequencies --    849.0363               883.1130               961.9762
 Red. masses --      4.4177                 1.2461                 1.6351
 Frc consts  --      1.8763                 0.5726                 0.8915
 IR Inten    --      8.1641                 0.4216                 7.3773

                     31                     32                     33
                      A                      A                      A
 Frequencies --    979.3826               993.4346              1015.0666
 Red. masses --      2.2001                 1.1226                 1.6718
 Frc consts  --      1.2434                 0.6528                 1.0149
 IR Inten    --     47.1246                43.9458                89.1775

                     34                     35                     36
                      A                      A                      A
 Frequencies --   1019.2270              1023.1972              1027.1213
 Red. masses --      1.3859                 1.1726                 6.0328
 Frc consts  --      0.8482                 0.7233                 3.7498
 IR Inten    --     19.4997                69.1981                 0.5568

                     37                     38                     39
                      A                      A                      A
 Frequencies --   1035.2116              1045.1459              1064.6014
 Red. masses --      1.3180                 1.8045                 2.2221
 Frc consts  --      0.8322                 1.1614                 1.4838
 IR Inten    --      2.0774                 5.9332                26.2434

                     40                     41                     42
                      A                      A                      A
 Frequencies --   1077.6513              1120.7329              1160.0460
 Red. masses --      4.1443                 1.5931                 1.2138
 Frc consts  --      2.8357                 1.1790                 0.9624
 IR Inten    --    131.9069                14.6742               159.3307

                     43                     44                     45
                      A                      A                      A
 Frequencies --   1185.7521              1202.0377              1214.5600
 Red. masses --      1.1306                 1.4055                 2.4699
 Frc consts  --      0.9366                 1.1965                 2.1467
 IR Inten    --      2.7692                25.0958                32.5127

                     46                     47                     48
                      A                      A                      A
 Frequencies --   1219.5273              1255.5864              1325.2099
 Red. masses --      1.2900                 1.3726                 3.2481
 Frc consts  --      1.1303                 1.2750                 3.3609
 IR Inten    --      6.3923                67.0064               314.0231

                     49                     50                     51
                      A                      A                      A
 Frequencies --   1332.8716              1344.9768              1370.9324
 Red. masses --      4.1861                 1.3517                 1.3851
 Frc consts  --      4.3816                 1.4407                 1.5338
 IR Inten    --     60.6202                 2.6543                34.0707

                     52                     53                     54
                      A                      A                      A
 Frequencies --   1396.5758              1449.7729              1460.2583
 Red. masses --      1.5065                 1.8302                 1.1374
 Frc consts  --      1.7312                 2.2665                 1.4290
 IR Inten    --     91.4183               538.5899                47.0909

                     55                     56                     57
                      A                      A                      A
 Frequencies --   1469.4257              1474.3772              1489.3389
 Red. masses --      1.4929                 1.0842                 1.0416
 Frc consts  --      1.8992                 1.3886                 1.3612
 IR Inten    --    248.1241                65.7117                18.0661

                     58                     59                     60
                      A                      A                      A
 Frequencies --   1501.0296              1506.4849              1552.5783
 Red. masses --      2.0731                 1.0975                 2.4941
 Frc consts  --      2.7520                 1.4675                 3.5423
 IR Inten    --     98.6613                17.0706                11.2797

                     61                     62                     63
                      A                      A                      A
 Frequencies --   1634.5726              1649.3045              1655.8099
 Red. masses --      5.6407                 1.1835                 5.3867
 Frc consts  --      8.8796                 1.8968                 8.7015
 IR Inten    --    354.9861                73.0666                16.7808

                     64                     65                     66
                      A                      A                      A
 Frequencies --   1679.1337              3059.9621              3060.9459
 Red. masses --      5.8153                 1.0342                 1.0371
 Frc consts  --      9.6604                 5.7053                 5.7252
 IR Inten    --      0.4810                61.9320                 4.5387

                     67                     68                     69
                      A                      A                      A
 Frequencies --   3130.9013              3135.0262              3156.6916
 Red. masses --      1.0990                 1.1042                 1.1049
 Frc consts  --      6.3473                 6.3942                 6.4867
 IR Inten    --     11.6309                22.4217                16.7315

                     70                     71                     72
                      A                      A                      A
 Frequencies --   3165.5280              3169.7963              3194.2450
 Red. masses --      1.1040                 1.0881                 1.0872
 Frc consts  --      6.5177                 6.4412                 6.5357
 IR Inten    --     29.0083                 3.1400                 4.4890

                     73                     74                     75
                      A                      A                      A
 Frequencies --   3200.7237              3209.9853              3219.3394
 Red. masses --      1.0882                 1.0919                 1.0949
 Frc consts  --      6.5685                 6.6290                 6.6856
 IR Inten    --      0.2229                21.5473                34.4718

                     76                     77                     78
                      A                      A                      A
 Frequencies --   3226.3570              3530.2984              3615.2920
 Red. masses --      1.0979                 1.0506                 1.0966
 Frc consts  --      6.7337                 7.7144                 8.4450
 IR Inten    --      6.6378                20.6771                47.1314

 - Thermochemistry -
 -------------------
 Temperature   298.150 Kelvin.  Pressure   1.00000 Atm.
 Atom     1 has atomic number  6 and mass  12.00000

 Molecular mass:   255.02588 amu.
 Principal axes and moments of inertia in atomic units:
                           1         2         3
     Eigenvalues --  2540.099864829.133036139.18333
           X            0.99958   0.02781   0.00853
           Y           -0.02742   0.99871  -0.04281
           Z           -0.00971   0.04256   0.99905
 This molecule is an asymmetric top.
 Rotational symmetry number  1.
 Warning -- assumption of classical behavior for rotation
           may cause significant error
 Rotational temperatures (Kelvin)      0.03410     0.01794     0.01411
 Rotational constants (GHZ):           0.71050     0.37372     0.29397
    1 imaginary frequencies ignored.
 Zero-point vibrational energy     603768.0 (Joules/Mol)
                                  144.30402 (Kcal/Mol)
 Warning -- explicit consideration of  21 degrees of freedom as
           vibrations may cause significant error
 Vibrational temperatures:     52.64    66.49    88.53   121.06   130.31
          (Kelvin)            157.39   190.32   240.35   256.29   269.48
                              320.97   333.62   426.87   478.78   563.61
                              589.76   612.82   782.33   792.37   860.43
                              891.86   914.54   950.48  1010.00  1051.01
                             1144.82  1221.57  1270.60  1384.07  1409.11
                             1429.33  1460.45  1466.44  1472.15  1477.80
                             1489.44  1503.73  1531.72  1550.50  1612.48
                             1669.05  1706.03  1729.46  1747.48  1754.63
                             1806.51  1906.68  1917.71  1935.12  1972.47
                             2009.36  2085.90  2100.99  2114.18  2121.30
                             2142.83  2159.65  2167.50  2233.81  2351.79
                             2372.98  2382.34  2415.90  4402.60  4404.02
                             4504.67  4510.60  4541.78  4554.49  4560.63
                             4595.81  4605.13  4618.45  4631.91  4642.01
                             5079.31  5201.60

 Zero-point correction=                           0.229963 (Hartree/Particle)
 Thermal correction to Energy=                    0.244732
 Thermal correction to Enthalpy=                  0.245676
 Thermal correction to Gibbs Free Energy=         0.186143
 Sum of electronic and zero-point Energies=          -3131.550356
 Sum of electronic and thermal Energies=             -3131.535587
 Sum of electronic and thermal Enthalpies=           -3131.534643
 Sum of electronic and thermal Free Energies=        -3131.594176

                     E (Thermal)             CV                S
                      KCal/Mol        Cal/Mol-Kelvin    Cal/Mol-Kelvin
 Total                  153.572             52.856            125.297
 Electronic               0.000              0.000              0.000
 Translational            0.889              2.981             42.509
 Rotational               0.889              2.981             32.687
 Vibrational            151.794             46.895             50.101
 Vibration     1          0.594              1.982              5.436
 Vibration     2          0.595              1.979              4.973
 Vibration     3          0.597              1.973              4.407
 Vibration     4          0.601              1.960              3.792
 Vibration     5          0.602              1.956              3.648
 Vibration     6          0.606              1.942              3.280
 Vibration     7          0.612              1.921              2.913
 Vibration     8          0.624              1.883              2.468
 Vibration     9          0.629              1.869              2.348
 Vibration    10          0.632              1.857              2.254
 Vibration    11          0.649              1.806              1.934
 Vibration    12          0.653              1.792              1.864
 Vibration    13          0.690              1.680              1.436
 Vibration    14          0.715              1.610              1.247
 Vibration    15          0.759              1.488              0.994
 Vibration    16          0.774              1.449              0.927
 Vibration    17          0.788              1.414              0.872
 Vibration    18          0.899              1.153              0.557
 Vibration    19          0.906              1.138              0.543
 Vibration    20          0.956              1.036              0.453
 Vibration    21          0.980              0.990              0.417

 Optimization completed.
    -- Stationary point found.
 Normal termination of Gaussian 16 at Sun Jan 31 08:34:27 2021.
