 Gaussian 16, Revision A.03,
 Gaussian 16:  ES64L-G16RevA.03 25-Dec-2016

 ----------------------------------------------------------------------
 # wB97XD def2tzvp, opt=(ts, noeigen, calcfc, maxcycles=70, maxstep=1),
  freq=noraman, scrf=(iefpcm, solvent=water)
 ----------------------------------------------------------------------

 ------------------------
 0_iteration/TS-690-0.out
 ------------------------
 Symbolic Z-matrix:
 Charge =  0 Multiplicity = 1

 SCF Done:  E(RwB97XD) =  -2940.04176646     A.U. after   14 cycles
 SCF Done:  E(RwB97XD) =  -2940.04171501     A.U. after   10 cycles
 SCF Done:  E(RwB97XD) =  -2940.04166760     A.U. after   10 cycles
 SCF Done:  E(RwB97XD) =  -2940.04162421     A.U. after   10 cycles
 SCF Done:  E(RwB97XD) =  -2940.04158490     A.U. after   10 cycles
 SCF Done:  E(RwB97XD) =  -2940.04154970     A.U. after   10 cycles
 SCF Done:  E(RwB97XD) =  -2940.04151865     A.U. after   10 cycles
 SCF Done:  E(RwB97XD) =  -2940.04149180     A.U. after   10 cycles
 SCF Done:  E(RwB97XD) =  -2940.04146922     A.U. after   10 cycles
 SCF Done:  E(RwB97XD) =  -2940.04145109     A.U. after   10 cycles
 SCF Done:  E(RwB97XD) =  -2940.04172366     A.U. after   10 cycles
 SCF Done:  E(RwB97XD) =  -2940.04173791     A.U. after   10 cycles
 SCF Done:  E(RwB97XD) =  -2940.04175094     A.U. after   10 cycles
 SCF Done:  E(RwB97XD) =  -2940.04176242     A.U. after   10 cycles
 SCF Done:  E(RwB97XD) =  -2940.04177206     A.U. after   10 cycles
 SCF Done:  E(RwB97XD) =  -2940.04177938     A.U. after   10 cycles
 SCF Done:  E(RwB97XD) =  -2940.04178427     A.U. after   10 cycles
 SCF Done:  E(RwB97XD) =  -2940.04178676     A.U. after   10 cycles
 SCF Done:  E(RwB97XD) =  -2940.04178703     A.U. after    9 cycles
 Optimization completed.
    -- Stationary point found.
 Normal termination of Gaussian 16 at Thu Feb 18 21:32:09 2021.

 ---------------------------------------------------------------------
 #N Geom=AllCheck Guess=TCheck SCRF=Check GenChk RwB97XD/def2TZVP Freq
 ---------------------------------------------------------------------

 Structure from the checkpoint file:  "/beegfs/scratch/user/q/tla25/Gau-32895.chk"
 ------------------------
 0_iteration/TS-690-0.out
 ------------------------
 Charge =  0 Multiplicity = 1

                         Standard orientation:
 ---------------------------------------------------------------------
 Center     Atomic      Atomic             Coordinates (Angstroms)
 Number     Number       Type             X           Y           Z
 ---------------------------------------------------------------------
      1          6           0       -0.826074   -0.606471   -0.355292
      2          6           0       -2.189380   -0.615459    0.064013
      3          8           0       -2.650994   -0.064917    1.073654
      4          6           0        0.207658    0.054305    0.301277
      5          6           0       -0.780402    2.530668   -0.658456
      6          1           0       -0.704238    3.355588   -1.366557
      7          1           0       -1.551045    1.837454   -0.998662
      8          1           0       -1.056155    2.920334    0.318644
      9          7           0        0.473887    1.796108   -0.553324
     10          1           0        0.832916    1.553652   -1.469446
     11          1           0        1.189697    2.325953   -0.068261
     12         35           0        1.982110   -0.655428   -0.130457
     13          6           0        0.132782    0.507054    1.728269
     14          1           0       -0.774705    1.086545    1.877664
     15          1           0        0.070536   -0.371518    2.371940
     16          1           0        1.009190    1.085954    2.012594
     17          1           0       -0.591256   -1.112135   -1.280962
     18          6           0       -3.154187   -1.385568   -0.822880
     19          1           0       -3.895550   -0.689320   -1.220626
     20          1           0       -2.667241   -1.894936   -1.653072
     21          1           0       -3.687628   -2.118177   -0.214820
 ---------------------------------------------------------------------

 SCF Done:  E(RwB97XD) =  -2940.04178703     A.U. after    1 cycles

 The electronic state is 1-A.
 Alpha  occ. eigenvalues -- -483.12853 -62.67721 -56.46820 -56.46488 -56.46475
 Alpha  occ. eigenvalues --  -19.19869 -14.48521 -10.39798 -10.35026 -10.31567
 Alpha  occ. eigenvalues --  -10.28501 -10.26855 -10.25313  -8.81839  -6.63946
 Alpha  occ. eigenvalues --   -6.62890  -6.62850  -2.74338  -2.74043  -2.74011
 Alpha  occ. eigenvalues --   -2.73156  -2.73156  -1.10569  -1.04031  -0.93763
 Alpha  occ. eigenvalues --   -0.85295  -0.83529  -0.79246  -0.78725  -0.67921
 Alpha  occ. eigenvalues --   -0.63133  -0.59495  -0.57571  -0.56244  -0.54938
 Alpha  occ. eigenvalues --   -0.53131  -0.51162  -0.49762  -0.49700  -0.48166
 Alpha  occ. eigenvalues --   -0.46647  -0.44932  -0.44469  -0.43032  -0.42205
 Alpha  occ. eigenvalues --   -0.37509  -0.37022  -0.31466  -0.28482
 Alpha virt. eigenvalues --    0.03733   0.05533   0.10331   0.12860   0.13970
 Alpha virt. eigenvalues --    0.14741   0.15834   0.16543   0.17581   0.19061
 Alpha virt. eigenvalues --    0.19755   0.20929   0.21072   0.21392   0.21923

 Mulliken charges:
               1
     1  C   -0.504681
     2  C    0.339371
     3  O   -0.542916
     4  C    0.208242
     5  C   -0.290042
     6  H    0.158516
     7  H    0.147521
     8  H    0.156763
     9  N   -0.335706
    10  H    0.281227
    11  H    0.288832
    12  Br  -0.128587
    13  C   -0.375534
    14  H    0.154119
    15  H    0.150652
    16  H    0.145999
    17  H    0.133849
    18  C   -0.372756
    19  H    0.131170
    20  H    0.122398
    21  H    0.131563
 Sum of Mulliken charges =  -0.00000

 Dipole moment (field-independent basis, Debye):
    X=              4.0208    Y=              5.2135    Z=             -3.4574  Tot=              7.4365
 Quadrupole moment (field-independent basis, Debye-Ang):
   XX=            -81.2045   YY=            -57.6780   ZZ=            -67.3935
   XY=              4.3191   XZ=              7.9243   YZ=             -1.8204

  Exact polarizability: 191.310  10.853 147.278  -6.504   1.936 127.226
 Approx polarizability: 142.980   3.742 118.741  -7.410   2.963 109.863

 ******    1 imaginary frequencies (negative Signs) ******

                      1                      2                      3
                      A                      A                      A
 Frequencies --   -364.1541                50.9701                65.7941
 Red. masses --      5.5200                 1.4334                 2.2682
 Frc consts  --      0.4313                 0.0022                 0.0058
 IR Inten    --    744.5563                 6.2584                 4.1751

                      4                      5                      6
                      A                      A                      A
 Frequencies --     70.0298                97.7769               162.1234
 Red. masses --      2.4734                 2.3822                 3.6998
 Frc consts  --      0.0071                 0.0134                 0.0573
 IR Inten    --      8.5423                 3.1862                 1.7231

                      7                      8                      9
                      A                      A                      A
 Frequencies --    177.5476               186.1973               245.3557
 Red. masses --      3.6274                 1.1766                 2.8190
 Frc consts  --      0.0674                 0.0240                 0.1000
 IR Inten    --      9.4176                 5.1308                 0.7385

                     10                     11                     12
                      A                      A                      A
 Frequencies --    266.6181               273.6029               298.6246
 Red. masses --      2.4999                 3.9618                 1.6291
 Frc consts  --      0.1047                 0.1747                 0.0856
 IR Inten    --      5.0762                25.4950                 4.3357

                     13                     14                     15
                      A                      A                      A
 Frequencies --    331.2294               408.5242               466.8494
 Red. masses --      2.2743                 3.1512                 2.9278
 Frc consts  --      0.1470                 0.3099                 0.3760
 IR Inten    --      8.8601                21.2663                57.6341

                     16                     17                     18
                      A                      A                      A
 Frequencies --    550.8680               637.5722               665.9739
 Red. masses --      3.8770                 2.2444                 1.4505
 Frc consts  --      0.6932                 0.5375                 0.3790
 IR Inten    --     68.9810                22.6264                18.3727

                     19                     20                     21
                      A                      A                      A
 Frequencies --    715.8047               754.5775               896.1856
 Red. masses --      2.5694                 1.4247                 4.5276
 Frc consts  --      0.7757                 0.4779                 2.1425
 IR Inten    --     49.0505               140.7855                87.8020

                     22                     23                     24
                      A                      A                      A
 Frequencies --    983.6616               992.0048              1016.6281
 Red. masses --      1.6498                 1.3428                 1.5255
 Frc consts  --      0.9406                 0.7786                 0.9289
 IR Inten    --      7.1595                42.9503               126.0127

                     25                     26                     27
                      A                      A                      A
 Frequencies --   1031.1999              1044.4026              1064.8059
 Red. masses --      1.1665                 1.7625                 1.5096
 Frc consts  --      0.7308                 1.1327                 1.0084
 IR Inten    --     23.8414                 2.7306                99.9575

                     28                     29                     30
                      A                      A                      A
 Frequencies --   1080.7267              1107.1498              1216.1461
 Red. masses --      3.6240                 2.0007                 1.4145
 Frc consts  --      2.4939                 1.4449                 1.2326
 IR Inten    --      0.8990               113.2919                19.8877

                     31                     32                     33
                      A                      A                      A
 Frequencies --   1230.0829              1338.0146              1363.0808
 Red. masses --      2.1886                 1.3775                 1.9644
 Frc consts  --      1.9511                 1.4530                 2.1505
 IR Inten    --     83.5518                17.0949               235.8005

                     34                     35                     36
                      A                      A                      A
 Frequencies --   1384.7742              1425.3822              1440.2201
 Red. masses --      1.2342                 1.4145                 1.4114
 Frc consts  --      1.3944                 1.6933                 1.7248
 IR Inten    --     30.5768                34.1886               621.5902

                     37                     38                     39
                      A                      A                      A
 Frequencies --   1456.2129              1466.0100              1471.0691
 Red. masses --      1.2708                 1.0636                 1.0571
 Frc consts  --      1.5878                 1.3468                 1.3478
 IR Inten    --    248.0008                61.8527                31.9684

                     40                     41                     42
                      A                      A                      A
 Frequencies --   1479.9206              1488.9257              1495.2730
 Red. masses --      1.1683                 1.1729                 1.2179
 Frc consts  --      1.5076                 1.5320                 1.6044
 IR Inten    --    205.8524               162.0084               316.7348

                     43                     44                     45
                      A                      A                      A
 Frequencies --   1505.5053              1641.6454              1653.5577
 Red. masses --      1.0534                 1.0985                 7.4830
 Frc consts  --      1.4068                 1.7442                12.0549
 IR Inten    --     35.8832                89.3926               473.6798

                     46                     47                     48
                      A                      A                      A
 Frequencies --   3056.8905              3065.6438              3075.7150
 Red. masses --      1.0360                 1.0339                 1.0369
 Frc consts  --      5.7036                 5.7252                 5.7794
 IR Inten    --     20.1092                37.0948                12.0215

                     49                     50                     51
                      A                      A                      A
 Frequencies --   3128.8975              3139.4593              3149.7451
 Red. masses --      1.1006                 1.1042                 1.1012
 Frc consts  --      6.3483                 6.4123                 6.4368
 IR Inten    --     18.5890                 7.6186                18.3399

                     52                     53                     54
                      A                      A                      A
 Frequencies --   3151.8911              3171.3094              3183.1364
 Red. masses --      1.1036                 1.1048                 1.1023
 Frc consts  --      6.4597                 6.5464                 6.5804
 IR Inten    --     31.3360                15.3409                 0.6990

                     55                     56                     57
                      A                      A                      A
 Frequencies --   3216.5323              3518.6475              3604.4923
 Red. masses --      1.0888                 1.0506                 1.0969
 Frc consts  --      6.6372                 7.6637                 8.3968
 IR Inten    --      4.8970                51.6304                46.2510

 - Thermochemistry -
 -------------------
 Temperature   298.150 Kelvin.  Pressure   1.00000 Atm.
 Atom     1 has atomic number  6 and mass  12.00000

 Molecular mass:   193.01023 amu.
 Principal axes and moments of inertia in atomic units:
                           1         2         3
     Eigenvalues --  1187.723102713.976093187.95980
           X            0.99838   0.05032   0.02642
           Y           -0.05054   0.99869   0.00770
           Z           -0.02600  -0.00902   0.99962
 This molecule is an asymmetric top.
 Rotational symmetry number  1.
 Warning -- assumption of classical behavior for rotation
           may cause significant error
 Rotational temperatures (Kelvin)      0.07292     0.03191     0.02717
 Rotational constants (GHZ):           1.51950     0.66498     0.56611
    1 imaginary frequencies ignored.
 Zero-point vibrational energy     461525.2 (Joules/Mol)
                                  110.30717 (Kcal/Mol)
 Warning -- explicit consideration of  15 degrees of freedom as
           vibrations may cause significant error
 Vibrational temperatures:     73.33    94.66   100.76   140.68   233.26
          (Kelvin)            255.45   267.90   353.01   383.60   393.65
                              429.65   476.57   587.78   671.69   792.58
                              917.32   958.19  1029.88  1085.67  1289.41
                             1415.27  1427.27  1462.70  1483.67  1502.66
                             1532.02  1554.92  1592.94  1749.76  1769.81
                             1925.10  1961.17  1992.38  2050.81  2072.16
                             2095.17  2109.26  2116.54  2129.28  2142.23
                             2151.36  2166.09  2361.96  2379.10  4398.18
                             4410.78  4425.27  4501.79  4516.98  4531.78
                             4534.87  4562.81  4579.82  4627.87  5062.55
                             5186.06

 Zero-point correction=                           0.175786 (Hartree/Particle)
 Thermal correction to Energy=                    0.187432
 Thermal correction to Enthalpy=                  0.188376
 Thermal correction to Gibbs Free Energy=         0.136861
 Sum of electronic and zero-point Energies=          -2939.866001
 Sum of electronic and thermal Energies=             -2939.854355
 Sum of electronic and thermal Enthalpies=           -2939.853411
 Sum of electronic and thermal Free Energies=        -2939.904926

                     E (Thermal)             CV                S
                      KCal/Mol        Cal/Mol-Kelvin    Cal/Mol-Kelvin
 Total                  117.615             40.040            108.423
 Electronic               0.000              0.000              0.000
 Translational            0.889              2.981             41.678
 Rotational               0.889              2.981             30.709
 Vibrational            115.838             34.078             36.037
 Vibration     1          0.595              1.977              4.779
 Vibration     2          0.597              1.971              4.275
 Vibration     3          0.598              1.968              4.153
 Vibration     4          0.603              1.951              3.498
 Vibration     5          0.622              1.889              2.525
 Vibration     6          0.628              1.870              2.354
 Vibration     7          0.632              1.859              2.265
 Vibration     8          0.660              1.770              1.764
 Vibration     9          0.672              1.734              1.618
 Vibration    10          0.676              1.722              1.573
 Vibration    11          0.692              1.676              1.425
 Vibration    12          0.714              1.613              1.254
 Vibration    13          0.773              1.452              0.932
 Vibration    14          0.824              1.324              0.746
 Vibration    15          0.906              1.138              0.542

 Optimization completed.
    -- Stationary point found.
 Normal termination of Gaussian 16 at Thu Feb 18 21:44:46 2021.
