 Gaussian 16, Revision A.03,
 Gaussian 16:  ES64L-G16RevA.03 25-Dec-2016

 ----------------------------------------------------------------------
 # wB97XD def2tzvp, opt=(ts, noeigen, calcfc, maxcycles=70, maxstep=5),
  freq=noraman, scrf=(iefpcm, solvent=water)
 ----------------------------------------------------------------------

 ------------------------
 2_iteration/TS-618-2.out
 ------------------------
 Symbolic Z-matrix:
 Charge =  0 Multiplicity = 1

 SCF Done:  E(RwB97XD) =  -3171.07960096     A.U. after   15 cycles
 SCF Done:  E(RwB97XD) =  -3171.07960565     A.U. after   10 cycles
 SCF Done:  E(RwB97XD) =  -3171.07960555     A.U. after    9 cycles
 SCF Done:  E(RwB97XD) =  -3171.07960565     A.U. after    7 cycles
 Optimization completed.
    -- Stationary point found.
 Normal termination of Gaussian 16 at Sat Feb 20 22:22:32 2021.

 ---------------------------------------------------------------------
 #N Geom=AllCheck Guess=TCheck SCRF=Check GenChk RwB97XD/def2TZVP Freq
 ---------------------------------------------------------------------

 Structure from the checkpoint file:  "/beegfs/scratch/user/q/tla25/Gau-13557.chk"
 ------------------------
 2_iteration/TS-618-2.out
 ------------------------
 Charge =  0 Multiplicity = 1

                         Standard orientation:
 ---------------------------------------------------------------------
 Center     Atomic      Atomic             Coordinates (Angstroms)
 Number     Number       Type             X           Y           Z
 ---------------------------------------------------------------------
      1          6           0        1.282000    0.889245   -0.331721
      2          6           0        0.834319    2.247825   -0.484123
      3          8           0        1.558217    3.087913   -1.040867
      4          6           0        0.477014   -0.157471    0.124463
      5          6           0        0.897664    0.666805    2.753610
      6          1           0        1.330072    1.487411    2.179635
      7          1           0       -0.126995    0.916325    3.016963
      8          1           0        1.480465    0.515630    3.660481
      9          7           0        0.921463   -0.526691    1.912814
     10          1           0        1.870964   -0.867520    1.812644
     11          1           0        0.376678   -1.292910    2.294212
     12         35           0        1.034425   -1.983195   -0.539617
     13          6           0       -1.021427   -0.140726    0.042616
     14          6           0       -1.573981    0.082041   -1.220219
     15          6           0       -2.943594    0.103716   -1.404000
     16          6           0       -3.795263   -0.103301   -0.327149
     17          6           0       -3.258456   -0.342371    0.926095
     18          6           0       -1.882666   -0.369649    1.108853
     19          1           0       -0.913603    0.246586   -2.061621
     20          1           0       -3.347527    0.284947   -2.391690
     21          1           0       -4.868304   -0.082753   -0.466710
     22          1           0       -3.908659   -0.509808    1.774894
     23          1           0       -1.515206   -0.555122    2.106600
     24          6           0        2.739422    0.642173   -0.640197
     25          1           0        3.188062   -0.089336    0.035197
     26          1           0        2.894258    0.268873   -1.657711
     27          1           0        3.296928    1.572025   -0.547360
     28          6           0       -0.491015    2.768681    0.048253
     29          1           0       -1.234884    2.775250   -0.750550
     30          1           0       -0.901104    2.204286    0.880712
     31          1           0       -0.326084    3.799650    0.359246
 ---------------------------------------------------------------------

 SCF Done:  E(RwB97XD) =  -3171.07960565     A.U. after    1 cycles

 The electronic state is 1-A.
 Alpha  occ. eigenvalues -- -483.12477 -62.67318 -56.46421 -56.46091 -56.46076
 Alpha  occ. eigenvalues --  -19.19788 -14.50395 -10.40508 -10.35006 -10.32323
 Alpha  occ. eigenvalues --  -10.31853 -10.30242 -10.29747 -10.29722 -10.29639
 Alpha  occ. eigenvalues --  -10.29578 -10.26811 -10.26648 -10.26413  -8.81408
 Alpha  occ. eigenvalues --   -6.63504  -6.62467  -6.62418  -2.73888  -2.73611
 Alpha  occ. eigenvalues --   -2.73573  -2.72732  -2.72732  -1.10573  -1.05815
 Alpha  occ. eigenvalues --   -0.98292  -0.93294  -0.86316  -0.86078  -0.85837
 Alpha  occ. eigenvalues --   -0.82001  -0.79844  -0.77558  -0.71863  -0.71330
 Alpha  occ. eigenvalues --   -0.68049  -0.65586  -0.61741  -0.59167  -0.58152
 Alpha  occ. eigenvalues --   -0.56761  -0.56224  -0.54425  -0.53226  -0.53007
 Alpha  occ. eigenvalues --   -0.51624  -0.51430  -0.49243  -0.48817  -0.48350
 Alpha  occ. eigenvalues --   -0.47870  -0.47026  -0.45635  -0.45059  -0.44004
 Alpha  occ. eigenvalues --   -0.43118  -0.42681  -0.41769  -0.37895  -0.37392
 Alpha  occ. eigenvalues --   -0.34483  -0.33150  -0.31671  -0.27190
 Alpha virt. eigenvalues --    0.01148   0.04236   0.05066   0.07318   0.09834
 Alpha virt. eigenvalues --    0.12523   0.13058   0.13683   0.14305   0.15507
 Alpha virt. eigenvalues --    0.16015   0.16769   0.17702   0.18130   0.18732

 Mulliken charges:
               1
     1  C   -0.251023
     2  C    0.245052
     3  O   -0.524638
     4  C    0.173198
     5  C   -0.318574
     6  H    0.165687
     7  H    0.163236
     8  H    0.170428
     9  N   -0.280237
    10  H    0.287285
    11  H    0.294722
    12  Br  -0.158066
    13  C    0.190558
    14  C   -0.321266
    15  C   -0.118701
    16  C   -0.140947
    17  C   -0.162188
    18  C   -0.185516
    19  H    0.164270
    20  H    0.147444
    21  H    0.147908
    22  H    0.146861
    23  H    0.139134
    24  C   -0.384617
    25  H    0.114240
    26  H    0.125466
    27  H    0.129343
    28  C   -0.362557
    29  H    0.142080
    30  H    0.128021
    31  H    0.133398
 Sum of Mulliken charges =  -0.00000

 Dipole moment (field-independent basis, Debye):
    X=             -3.7605    Y=             -5.2058    Z=              8.4836  Tot=             10.6401
 Quadrupole moment (field-independent basis, Debye-Ang):
   XX=            -97.9061   YY=           -126.7248   ZZ=            -87.2527
   XY=            -11.9614   XZ=             10.9674   YZ=              3.6706

  Exact polarizability: 264.703   0.920 254.215 -10.185 -21.000 237.215
 Approx polarizability: 207.268   1.506 201.228  -7.626 -17.419 204.029

 ******    1 imaginary frequencies (negative Signs) ******

                      1                      2                      3
                      A                      A                      A
 Frequencies --   -370.7025                20.2515                64.5351
 Red. masses --      5.4822                 3.0363                 6.8760
 Frc consts  --      0.4439                 0.0007                 0.0169
 IR Inten    --    687.0826                 0.5720                 6.3609

                      4                      5                      6
                      A                      A                      A
 Frequencies --     75.3108                86.5126               116.0149
 Red. masses --      3.7100                 4.8762                 1.2486
 Frc consts  --      0.0124                 0.0215                 0.0099
 IR Inten    --      5.0001                 4.1918                 1.0392

                      7                      8                      9
                      A                      A                      A
 Frequencies --    130.5193               149.1044               162.2322
 Red. masses --      3.3351                 2.1932                 1.2771
 Frc consts  --      0.0335                 0.0287                 0.0198
 IR Inten    --      5.4847                 2.8196                 1.4211

                     10                     11                     12
                      A                      A                      A
 Frequencies --    166.5887               176.8283               186.8192
 Red. masses --      1.7165                 2.4806                 2.1819
 Frc consts  --      0.0281                 0.0457                 0.0449
 IR Inten    --      4.4510                 2.7999                 4.8118

                     13                     14                     15
                      A                      A                      A
 Frequencies --    236.4560               251.3282               282.2371
 Red. masses --      5.8698                 2.6316                 3.4535
 Frc consts  --      0.1934                 0.0979                 0.1621
 IR Inten    --     48.9754                 7.8365                 5.3810

                     16                     17                     18
                      A                      A                      A
 Frequencies --    300.1104               342.5750               369.6336
 Red. masses --      3.4566                 3.5113                 4.1543
 Frc consts  --      0.1834                 0.2428                 0.3344
 IR Inten    --     23.1374                 1.1872                 1.8978

                     19                     20                     21
                      A                      A                      A
 Frequencies --    378.0380               422.7016               477.6400
 Red. masses --      3.5196                 2.8424                 3.2627
 Frc consts  --      0.2964                 0.2992                 0.4386
 IR Inten    --      7.0338                 0.6086                19.1803

                     22                     23                     24
                      A                      A                      A
 Frequencies --    517.6655               559.5889               596.6542
 Red. masses --      3.7687                 3.6772                 3.5431
 Frc consts  --      0.5950                 0.6784                 0.7432
 IR Inten    --     37.3665               115.4427                49.1887

                     25                     26                     27
                      A                      A                      A
 Frequencies --    636.7905               636.9300               678.0175
 Red. masses --      3.1214                 3.9227                 4.8318
 Frc consts  --      0.7457                 0.9376                 1.3087
 IR Inten    --     15.7182                33.9948               146.0875

                     28                     29                     30
                      A                      A                      A
 Frequencies --    695.6425               720.4585               740.1406
 Red. masses --      1.9043                 1.8010                 2.5343
 Frc consts  --      0.5429                 0.5508                 0.8180
 IR Inten    --     39.7170                27.9077               393.5991

                     31                     32                     33
                      A                      A                      A
 Frequencies --    818.5928               869.3822               887.3281
 Red. masses --      2.6358                 1.2590                 2.6298
 Frc consts  --      1.0406                 0.5606                 1.2200
 IR Inten    --     24.9056                 0.3774                65.9380

                     34                     35                     36
                      A                      A                      A
 Frequencies --    955.7647               982.9707              1006.9064
 Red. masses --      1.4778                 1.9704                 1.2028
 Frc consts  --      0.7954                 1.1217                 0.7185
 IR Inten    --      2.5255                10.1008                67.5954

                     37                     38                     39
                      A                      A                      A
 Frequencies --   1014.8042              1020.9802              1025.1432
 Red. masses --      1.3896                 2.0324                 4.1637
 Frc consts  --      0.8432                 1.2482                 2.5781
 IR Inten    --     30.6678               207.8504                18.5059

                     40                     41                     42
                      A                      A                      A
 Frequencies --   1035.2866              1039.7160              1062.5818
 Red. masses --      1.3332                 1.6014                 1.5625
 Frc consts  --      0.8419                 1.0199                 1.0395
 IR Inten    --      3.2307                22.2052                20.8864

                     43                     44                     45
                      A                      A                      A
 Frequencies --   1069.5930              1074.7989              1077.5050
 Red. masses --      2.0755                 2.1146                 1.6306
 Frc consts  --      1.3990                 1.4392                 1.1154
 IR Inten    --      1.9563                 8.9842               152.3083

                     46                     47                     48
                      A                      A                      A
 Frequencies --   1120.7604              1131.5402              1188.4671
 Red. masses --      2.3367                 1.6025                 1.1359
 Frc consts  --      1.7293                 1.2089                 0.9453
 IR Inten    --      8.5469                 5.7334                 0.1775

                     49                     50                     51
                      A                      A                      A
 Frequencies --   1223.0809              1229.6270              1239.3939
 Red. masses --      2.6439                 1.1675                 1.5707
 Frc consts  --      2.3303                 1.0400                 1.4215
 IR Inten    --     66.7702                 7.5363                16.2543

                     52                     53                     54
                      A                      A                      A
 Frequencies --   1319.1714              1340.9868              1358.5487
 Red. masses --      4.8361                 1.3244                 2.9588
 Frc consts  --      4.9585                 1.4032                 3.2175
 IR Inten    --     11.8809                 7.0289               673.9334

                     55                     56                     57
                      A                      A                      A
 Frequencies --   1372.1998              1395.3283              1413.0818
 Red. masses --      1.3923                 1.4155                 1.2282
 Frc consts  --      1.5446                 1.6237                 1.4449
 IR Inten    --     13.3403               228.9480                23.1557

                     58                     59                     60
                      A                      A                      A
 Frequencies --   1437.0373              1458.9182              1465.4103
 Red. masses --      2.4900                 1.4005                 1.1065
 Frc consts  --      3.0296                 1.7563                 1.4000
 IR Inten    --    394.1629               137.3554                11.6423

                     61                     62                     63
                      A                      A                      A
 Frequencies --   1472.3763              1485.4260              1491.4040
 Red. masses --      1.0893                 1.0977                 2.0421
 Frc consts  --      1.3914                 1.4270                 2.6761
 IR Inten    --      6.3987                29.8538                30.1261

                     64                     65                     66
                      A                      A                      A
 Frequencies --   1495.3666              1503.7257              1507.0036
 Red. masses --      1.0637                 1.1541                 1.0530
 Frc consts  --      1.4014                 1.5375                 1.4091
 IR Inten    --     45.7313               168.3732                13.8870

                     67                     68                     69
                      A                      A                      A
 Frequencies --   1547.9366              1617.0534              1646.0141
 Red. masses --      2.3048                 8.3600                 1.3619
 Frc consts  --      3.2538                12.8796                 2.1740
 IR Inten    --     37.3841               783.2680                51.0154

                     70                     71                     72
                      A                      A                      A
 Frequencies --   1655.8813              1675.5870              3030.9083
 Red. masses --      2.8367                 5.5042                 1.0452
 Frc consts  --      4.5827                 9.1050                 5.6569
 IR Inten    --     23.4681                 0.2288                74.1395

                     73                     74                     75
                      A                      A                      A
 Frequencies --   3070.9676              3072.8446              3087.8302
 Red. masses --      1.0388                 1.0344                 1.0949
 Frc consts  --      5.7720                 5.7548                 6.1508
 IR Inten    --     16.8555                34.1023                46.8749

                     76                     77                     78
                      A                      A                      A
 Frequencies --   3141.3001              3145.8711              3151.9052
 Red. masses --      1.0999                 1.0974                 1.1030
 Frc consts  --      6.3948                 6.3986                 6.4561
 IR Inten    --     19.6317                24.4479                 3.0685

                     79                     80                     81
                      A                      A                      A
 Frequencies --   3179.4518              3180.0239              3200.9180
 Red. masses --      1.1019                 1.1043                 1.0863
 Frc consts  --      6.5630                 6.5797                 6.5577
 IR Inten    --     18.9507                21.1750                 0.4632

                     82                     83                     84
                      A                      A                      A
 Frequencies --   3208.8473              3217.4606              3225.9269
 Red. masses --      1.0894                 1.0937                 1.0980
 Frc consts  --      6.6088                 6.6705                 6.7320
 IR Inten    --      4.6461                18.5606                20.0440

                     85                     86                     87
                      A                      A                      A
 Frequencies --   3247.4368              3520.7916              3594.8437
 Red. masses --      1.0921                 1.0518                 1.0955
 Frc consts  --      6.7856                 7.6820                 8.3413
 IR Inten    --     15.5707                49.5658                52.8775

 - Thermochemistry -
 -------------------
 Temperature   298.150 Kelvin.  Pressure   1.00000 Atm.
 Atom     1 has atomic number  6 and mass  12.00000

 Molecular mass:   269.04153 amu.
 Principal axes and moments of inertia in atomic units:
                           1         2         3
     Eigenvalues --  3540.803934177.568015454.59416
           X            0.99406   0.10661   0.02173
           Y           -0.10616   0.99413  -0.02095
           Z           -0.02383   0.01852   0.99954
 This molecule is an asymmetric top.
 Rotational symmetry number  1.
 Warning -- assumption of classical behavior for rotation
           may cause significant error
 Rotational temperatures (Kelvin)      0.02446     0.02073     0.01588
 Rotational constants (GHZ):           0.50970     0.43201     0.33087
    1 imaginary frequencies ignored.
 Zero-point vibrational energy     677010.6 (Joules/Mol)
                                  161.80942 (Kcal/Mol)
 Warning -- explicit consideration of  23 degrees of freedom as
           vibrations may cause significant error
 Vibrational temperatures:     29.14    92.85   108.36   124.47   166.92
          (Kelvin)            187.79   214.53   233.42   239.68   254.42
                              268.79   340.21   361.61   406.08   431.79
                              492.89   531.82   543.91   608.17   687.22
                              744.81   805.12   858.45   916.20   916.40
                              975.52  1000.87  1036.58  1064.90  1177.77
                             1250.85  1276.67  1375.13  1414.28  1448.71
                             1460.08  1468.96  1474.95  1489.55  1495.92
                             1528.82  1538.91  1546.40  1550.29  1612.52
                             1628.03  1709.94  1759.74  1769.16  1783.21
                             1897.99  1929.38  1954.65  1974.29  2007.57
                             2033.11  2067.58  2099.06  2108.40  2118.42
                             2137.20  2145.80  2151.50  2163.53  2168.24
                             2227.14  2326.58  2368.25  2382.44  2410.80
                             4360.80  4418.44  4421.14  4442.70  4519.63
                             4526.21  4534.89  4574.52  4575.35  4605.41
                             4616.82  4629.21  4641.39  4672.34  5065.63
                             5172.18

 Zero-point correction=                           0.257860 (Hartree/Particle)
 Thermal correction to Energy=                    0.273892
 Thermal correction to Enthalpy=                  0.274837
 Thermal correction to Gibbs Free Energy=         0.213297
 Sum of electronic and zero-point Energies=          -3170.821746
 Sum of electronic and thermal Energies=             -3170.805713
 Sum of electronic and thermal Enthalpies=           -3170.804769
 Sum of electronic and thermal Free Energies=        -3170.866308

                     E (Thermal)             CV                S
                      KCal/Mol        Cal/Mol-Kelvin    Cal/Mol-Kelvin
 Total                  171.870             58.736            129.521
 Electronic               0.000              0.000              0.000
 Translational            0.889              2.981             42.668
 Rotational               0.889              2.981             32.756
 Vibrational            170.093             52.774             54.096
 Vibration     1          0.593              1.986              6.609
 Vibration     2          0.597              1.971              4.313
 Vibration     3          0.599              1.965              4.010
 Vibration     4          0.601              1.959              3.737
 Vibration     5          0.608              1.936              3.166
 Vibration     6          0.612              1.923              2.938
 Vibration     7          0.618              1.904              2.684
 Vibration     8          0.622              1.889              2.524
 Vibration     9          0.624              1.884              2.474
 Vibration    10          0.628              1.871              2.362
 Vibration    11          0.632              1.858              2.259
 Vibration    12          0.655              1.785              1.829
 Vibration    13          0.663              1.761              1.721
 Vibration    14          0.681              1.707              1.520
 Vibration    15          0.693              1.673              1.416
 Vibration    16          0.722              1.590              1.200
 Vibration    17          0.742              1.535              1.081
 Vibration    18          0.748              1.517              1.047
 Vibration    19          0.785              1.421              0.883
 Vibration    20          0.834              1.300              0.716
 Vibration    21          0.873              1.211              0.615
 Vibration    22          0.915              1.119              0.525
 Vibration    23          0.954              1.039              0.455

 Optimization completed.
    -- Stationary point found.
 Normal termination of Gaussian 16 at Sat Feb 20 23:40:33 2021.
