 Gaussian 16, Revision A.03,
 Gaussian 16:  ES64L-G16RevA.03 25-Dec-2016

 ----------------------------------------------------------------------
 # wB97XD def2tzvp, opt=(ts, noeigen, calcfc, maxcycles=70, maxstep=1),
  freq=noraman, scrf=(iefpcm, solvent=water)
 ----------------------------------------------------------------------

 ------------------------
 0_iteration/TS-649-0.out
 ------------------------
 Symbolic Z-matrix:
 Charge =  0 Multiplicity = 1

 SCF Done:  E(RwB97XD) =  -2861.39832101     A.U. after   15 cycles
 SCF Done:  E(RwB97XD) =  -2861.39822952     A.U. after   10 cycles
 SCF Done:  E(RwB97XD) =  -2861.39814244     A.U. after   10 cycles
 SCF Done:  E(RwB97XD) =  -2861.39805960     A.U. after   10 cycles
 SCF Done:  E(RwB97XD) =  -2861.39798105     A.U. after   10 cycles
 SCF Done:  E(RwB97XD) =  -2861.39790679     A.U. after   10 cycles
 SCF Done:  E(RwB97XD) =  -2861.39783687     A.U. after   10 cycles
 SCF Done:  E(RwB97XD) =  -2861.39777129     A.U. after   10 cycles
 SCF Done:  E(RwB97XD) =  -2861.39771007     A.U. after   10 cycles
 SCF Done:  E(RwB97XD) =  -2861.39765322     A.U. after   10 cycles
 SCF Done:  E(RwB97XD) =  -2861.39835773     A.U. after   10 cycles
 SCF Done:  E(RwB97XD) =  -2861.39839233     A.U. after   10 cycles
 SCF Done:  E(RwB97XD) =  -2861.39842223     A.U. after   10 cycles
 SCF Done:  E(RwB97XD) =  -2861.39845033     A.U. after   10 cycles
 SCF Done:  E(RwB97XD) =  -2861.39847510     A.U. after   10 cycles
 SCF Done:  E(RwB97XD) =  -2861.39849453     A.U. after   10 cycles
 SCF Done:  E(RwB97XD) =  -2861.39850750     A.U. after   10 cycles
 SCF Done:  E(RwB97XD) =  -2861.39851329     A.U. after   10 cycles
 SCF Done:  E(RwB97XD) =  -2861.39851356     A.U. after    9 cycles
 Optimization completed.
    -- Stationary point found.
 Normal termination of Gaussian 16 at Thu Feb 18 15:37:43 2021.

 ---------------------------------------------------------------------
 #N Geom=AllCheck Guess=TCheck SCRF=Check GenChk RwB97XD/def2TZVP Freq
 ---------------------------------------------------------------------

 Structure from the checkpoint file:  "/beegfs/scratch/user/q/tla25/Gau-3901.chk"
 ------------------------
 0_iteration/TS-649-0.out
 ------------------------
 Charge =  0 Multiplicity = 1

                         Standard orientation:
 ---------------------------------------------------------------------
 Center     Atomic      Atomic             Coordinates (Angstroms)
 Number     Number       Type             X           Y           Z
 ---------------------------------------------------------------------
      1          6           0        1.465811   -0.365720    0.265649
      2          6           0        2.691036    0.058552   -0.310305
      3          8           0        3.819803   -0.192873    0.109297
      4          6           0        0.282172    0.035337   -0.310268
      5          6           0       -1.441838    2.448567   -0.210133
      6          1           0       -2.339898    1.834960   -0.168699
      7          1           0       -1.653362    3.418512    0.242306
      8          1           0       -1.164470    2.598366   -1.252952
      9          7           0       -0.356218    1.752344    0.474628
     10          1           0        0.500477    2.293599    0.469093
     11          1           0       -0.585362    1.544220    1.439956
     12         35           0       -1.289869   -1.018086   -0.004677
     13          1           0        0.279416    0.456193   -1.307332
     14          1           0        1.476379   -0.958646    1.171353
     15          1           0        2.584235    0.661952   -1.236468
 ---------------------------------------------------------------------

 SCF Done:  E(RwB97XD) =  -2861.39851356     A.U. after    1 cycles

 The electronic state is 1-A.
 Alpha  occ. eigenvalues -- -483.13681 -62.68545 -56.47655 -56.47309 -56.47293
 Alpha  occ. eigenvalues --  -19.21316 -14.47907 -10.38937 -10.35102 -10.31755
 Alpha  occ. eigenvalues --  -10.26380  -8.82672  -6.64818  -6.63707  -6.63655
 Alpha  occ. eigenvalues --   -2.75210  -2.74893  -2.74853  -2.73954  -2.73953
 Alpha  occ. eigenvalues --   -1.11521  -1.03389  -0.93515  -0.85491  -0.78780
 Alpha  occ. eigenvalues --   -0.71632  -0.66051  -0.62693  -0.57791  -0.55354
 Alpha  occ. eigenvalues --   -0.54020  -0.53088  -0.48605  -0.48008  -0.47447
 Alpha  occ. eigenvalues --   -0.46639  -0.44457  -0.38234  -0.37263  -0.32727
 Alpha  occ. eigenvalues --   -0.29133
 Alpha virt. eigenvalues --    0.03096   0.06473   0.10639   0.12916   0.13631
 Alpha virt. eigenvalues --    0.14939   0.17425   0.18030   0.18632   0.19745
 Alpha virt. eigenvalues --    0.20283   0.21902   0.23479   0.25301   0.26292

 Mulliken charges:
               1
     1  C   -0.260255
     2  C    0.127782
     3  O   -0.496838
     4  C   -0.068467
     5  C   -0.265770
     6  H    0.147769
     7  H    0.151801
     8  H    0.149505
     9  N   -0.361971
    10  H    0.277449
    11  H    0.281960
    12  Br  -0.081332
    13  H    0.192950
    14  H    0.140188
    15  H    0.065229
 Sum of Mulliken charges =  -0.00000

 Dipole moment (field-independent basis, Debye):
    X=             -7.9540    Y=              6.2683    Z=             -0.0815  Tot=             10.1274
 Quadrupole moment (field-independent basis, Debye-Ang):
   XX=            -86.1777   YY=            -45.9899   ZZ=            -51.7837
   XY=              0.7210   XZ=             -3.3596   YZ=              0.5924

  Exact polarizability: 176.390 -13.164 114.016  -0.477  -3.737  86.896
 Approx polarizability: 129.691  -6.461  91.284   0.884  -3.168  76.638

 ******    1 imaginary frequencies (negative Signs) ******

                      1                      2                      3
                      A                      A                      A
 Frequencies --   -352.4044                61.3851                91.1581
 Red. masses --      6.0843                 2.1413                 4.9519
 Frc consts  --      0.4452                 0.0048                 0.0242
 IR Inten    --    902.1199                 3.9074                 5.7446

                      4                      5                      6
                      A                      A                      A
 Frequencies --    150.2216               161.1878               192.4150
 Red. masses --      3.8802                 1.4044                 2.7867
 Frc consts  --      0.0516                 0.0215                 0.0608
 IR Inten    --      6.1980                 2.5163                13.3552

                      7                      8                      9
                      A                      A                      A
 Frequencies --    235.5525               283.2724               314.0540
 Red. masses --      2.0285                 3.3003                 6.2754
 Frc consts  --      0.0663                 0.1560                 0.3647
 IR Inten    --      5.9640                 2.8119                 9.0969

                     10                     11                     12
                      A                      A                      A
 Frequencies --    418.1692               556.7609               627.5760
 Red. masses --      4.3404                 2.7629                 1.6618
 Frc consts  --      0.4472                 0.5046                 0.3856
 IR Inten    --    150.8145                27.3387                 4.3577

                     13                     14                     15
                      A                      A                      A
 Frequencies --    764.7454               783.3998               995.9452
 Red. masses --      3.1408                 1.3263                 1.0692
 Frc consts  --      1.0822                 0.4796                 0.6248
 IR Inten    --    205.2009               183.3458                11.3770

                     16                     17                     18
                      A                      A                      A
 Frequencies --   1017.1511              1035.9091              1068.6028
 Red. masses --      1.1025                 1.6014                 4.7505
 Frc consts  --      0.6720                 1.0125                 3.1961
 IR Inten    --    112.9262                13.5319               167.0138

                     19                     20                     21
                      A                      A                      A
 Frequencies --   1131.0669              1194.4269              1210.4881
 Red. masses --      1.1342                 1.9199                 1.2139
 Frc consts  --      0.8549                 1.6138                 1.0480
 IR Inten    --     75.2199               207.9057               118.2149

                     22                     23                     24
                      A                      A                      A
 Frequencies --   1213.7606              1283.7501              1340.9086
 Red. masses --      1.4143                 2.0835                 1.3301
 Frc consts  --      1.2276                 2.0230                 1.4090
 IR Inten    --     57.4957                56.6107                 1.6171

                     25                     26                     27
                      A                      A                      A
 Frequencies --   1403.4923              1460.8453              1490.9578
 Red. masses --      1.4959                 1.1801                 1.0398
 Frc consts  --      1.7361                 1.4838                 1.3619
 IR Inten    --    517.3107                 8.0183                15.4107

                     28                     29                     30
                      A                      A                      A
 Frequencies --   1504.0409              1510.1864              1642.2870
 Red. masses --      1.2531                 1.7965                 1.0899
 Frc consts  --      1.6701                 2.4140                 1.7319
 IR Inten    --    221.1854               284.9823                79.3872

                     31                     32                     33
                      A                      A                      A
 Frequencies --   1680.9103              2888.1149              3063.2384
 Red. masses --      6.8170                 1.0803                 1.0347
 Frc consts  --     11.3483                 5.3090                 5.7201
 IR Inten    --   1274.2929               166.7794                51.9773

                     34                     35                     36
                      A                      A                      A
 Frequencies --   3138.9578              3163.5715              3204.7883
 Red. masses --      1.1036                 1.1051                 1.0949
 Frc consts  --      6.4069                 6.5162                 6.6258
 IR Inten    --     17.2923                14.3241                 1.0139

                     37                     38                     39
                      A                      A                      A
 Frequencies --   3206.1859              3521.5586              3607.8042
 Red. masses --      1.0877                 1.0506                 1.0968
 Frc consts  --      6.5876                 7.6761                 8.4111
 IR Inten    --      7.3854                23.5698                41.1733

 - Thermochemistry -
 -------------------
 Temperature   298.150 Kelvin.  Pressure   1.00000 Atm.
 Atom     1 has atomic number  6 and mass  12.00000

 Molecular mass:   164.97893 amu.
 Principal axes and moments of inertia in atomic units:
                           1         2         3
     Eigenvalues --   862.671591931.789802682.77071
           X            0.99713  -0.07567  -0.00167
           Y            0.07565   0.99709  -0.00963
           Z            0.00240   0.00948   0.99995
 This molecule is an asymmetric top.
 Rotational symmetry number  1.
 Warning -- assumption of classical behavior for rotation
           may cause significant error
 Rotational temperatures (Kelvin)      0.10040     0.04484     0.03229
 Rotational constants (GHZ):           2.09204     0.93423     0.67272
    1 imaginary frequencies ignored.
 Zero-point vibrational energy     314730.6 (Joules/Mol)
                                   75.22242 (Kcal/Mol)
 Warning -- explicit consideration of  10 degrees of freedom as
           vibrations may cause significant error
 Vibrational temperatures:     88.32   131.16   216.14   231.91   276.84
          (Kelvin)            338.91   407.57   451.85   601.65   801.05
                              902.94  1100.30  1127.14  1432.94  1463.45
                             1490.44  1537.48  1627.35  1718.51  1741.62
                             1746.33  1847.03  1929.27  2019.31  2101.83
                             2145.16  2163.98  2172.82  2362.88  2418.46
                             4155.35  4407.32  4516.26  4551.67  4610.98
                             4612.99  5066.74  5190.83

 Zero-point correction=                           0.119875 (Hartree/Particle)
 Thermal correction to Energy=                    0.128514
 Thermal correction to Enthalpy=                  0.129458
 Thermal correction to Gibbs Free Energy=         0.084714
 Sum of electronic and zero-point Energies=          -2861.278639
 Sum of electronic and thermal Energies=             -2861.269999
 Sum of electronic and thermal Enthalpies=           -2861.269055
 Sum of electronic and thermal Free Energies=        -2861.313800

                     E (Thermal)             CV                S
                      KCal/Mol        Cal/Mol-Kelvin    Cal/Mol-Kelvin
 Total                   80.644             28.619             94.173
 Electronic               0.000              0.000              0.000
 Translational            0.889              2.981             41.210
 Rotational               0.889              2.981             29.882
 Vibrational             78.866             22.657             23.081
 Vibration     1          0.597              1.973              4.412
 Vibration     2          0.602              1.955              3.635
 Vibration     3          0.618              1.902              2.669
 Vibration     4          0.622              1.890              2.536
 Vibration     5          0.634              1.850              2.204
 Vibration     6          0.655              1.786              1.836
 Vibration     7          0.682              1.705              1.514
 Vibration     8          0.702              1.647              1.341
 Vibration     9          0.781              1.431              0.898
 Vibration    10          0.912              1.125              0.530

 Optimization completed.
    -- Stationary point found.
 Normal termination of Gaussian 16 at Thu Feb 18 15:43:00 2021.
