 Gaussian 16, Revision A.03,
 Gaussian 16:  ES64L-G16RevA.03 25-Dec-2016

 ----------------------------------------------------------------------
 # wB97XD def2tzvp, opt=(ts, noeigen, calcfc, maxcycles=70, maxstep=1),
  freq=noraman, scrf=(iefpcm, solvent=water)
 ----------------------------------------------------------------------

 ------------------------
 0_iteration/TS-747-0.out
 ------------------------
 Symbolic Z-matrix:
 Charge =  0 Multiplicity = 1

 SCF Done:  E(RwB97XD) =  -8063.98786527     A.U. after   16 cycles
 SCF Done:  E(RwB97XD) =  -8063.98777772     A.U. after   11 cycles
 SCF Done:  E(RwB97XD) =  -8063.98769849     A.U. after   12 cycles
 SCF Done:  E(RwB97XD) =  -8063.98762947     A.U. after   12 cycles
 SCF Done:  E(RwB97XD) =  -8063.98756964     A.U. after   12 cycles
 SCF Done:  E(RwB97XD) =  -8063.98754679     A.U. after   12 cycles
 SCF Done:  E(RwB97XD) =  -8063.98751118     A.U. after   12 cycles
 SCF Done:  E(RwB97XD) =  -8063.98749994     A.U. after   12 cycles
 SCF Done:  E(RwB97XD) =  -8063.98749206     A.U. after   11 cycles
 SCF Done:  E(RwB97XD) =  -8063.98751203     A.U. after   12 cycles
 SCF Done:  E(RwB97XD) =  -8063.99250107     A.U. after   11 cycles
 SCF Done:  E(RwB97XD) =  -8063.99249476     A.U. after   10 cycles
 SCF Done:  E(RwB97XD) =  -8063.99249688     A.U. after   10 cycles
 SCF Done:  E(RwB97XD) =  -8063.99250150     A.U. after   10 cycles
 SCF Done:  E(RwB97XD) =  -8063.99250159     A.U. after    9 cycles
 SCF Done:  E(RwB97XD) =  -8063.99250159     A.U. after    8 cycles
 SCF Done:  E(RwB97XD) =  -8063.99249560     A.U. after   11 cycles
 SCF Done:  E(RwB97XD) =  -8063.99250139     A.U. after   10 cycles
 SCF Done:  E(RwB97XD) =  -8063.99250173     A.U. after    9 cycles
 Optimization completed.
    -- Stationary point found.
 Normal termination of Gaussian 16 at Sun Feb 21 23:20:04 2021.

 ---------------------------------------------------------------------
 #N Geom=AllCheck Guess=TCheck SCRF=Check GenChk RwB97XD/def2TZVP Freq
 ---------------------------------------------------------------------

 Structure from the checkpoint file:  "/beegfs/scratch/user/q/tla25/Gau-75733.chk"
 ------------------------
 0_iteration/TS-747-0.out
 ------------------------
 Charge =  0 Multiplicity = 1

                         Standard orientation:
 ---------------------------------------------------------------------
 Center     Atomic      Atomic             Coordinates (Angstroms)
 Number     Number       Type             X           Y           Z
 ---------------------------------------------------------------------
      1          6           0        0.749107    0.536774   -0.187601
      2          6           0        1.099311    1.953825   -0.034972
      3          8           0        2.252163    2.357393   -0.155717
      4          6           0       -0.486424   -0.037291    0.053284
      5          6           0        0.113119   -0.206903    2.785971
      6          1           0       -0.093431    0.067590    3.819719
      7          1           0        0.270968   -1.281125    2.720124
      8          1           0        1.011854    0.310963    2.452068
      9          7           0       -0.990244    0.174242    1.913800
     10          1           0       -1.833624   -0.360742    2.091236
     11          1           0       -1.208504    1.160054    2.013765
     12         35           0       -0.693700   -1.932975   -0.117235
     13         35           0       -2.114686    0.795524   -0.690187
     14         35           0        2.280184   -0.569891   -0.444233
     15          7           0        0.119478    2.833600    0.349299
     16          1           0       -0.840411    2.669719    0.097544
     17          1           0        0.407595    3.798036    0.317441
 ---------------------------------------------------------------------

 SCF Done:  E(RwB97XD) =  -8063.99250173     A.U. after    1 cycles

 The electronic state is 1-A.
 Alpha  occ. eigenvalues -- -483.15192-483.14953-483.12668 -62.70028 -62.69793
 Alpha  occ. eigenvalues --  -62.67498 -56.49176 -56.48924 -56.48780 -56.48758
 Alpha  occ. eigenvalues --  -56.48548 -56.48538 -56.46627 -56.46255 -56.46245
 Alpha  occ. eigenvalues --  -19.21300 -14.50224 -14.44729 -10.45440 -10.39824
 Alpha  occ. eigenvalues --  -10.32765 -10.32372  -8.84139  -8.83894  -8.81613
 Alpha  occ. eigenvalues --   -6.66386  -6.66082  -6.65124  -6.65060  -6.64895
 Alpha  occ. eigenvalues --   -6.64862  -6.63803  -6.62612  -6.62586  -2.76759
 Alpha  occ. eigenvalues --   -2.76454  -2.76404  -2.76355  -2.76126  -2.76098
 Alpha  occ. eigenvalues --   -2.75334  -2.75333  -2.75141  -2.75139  -2.74185
 Alpha  occ. eigenvalues --   -2.73840  -2.73819  -2.72856  -2.72856  -1.14308
 Alpha  occ. eigenvalues --   -1.05660  -1.00591  -0.97245  -0.90531  -0.88579
 Alpha  occ. eigenvalues --   -0.82034  -0.79781  -0.72415  -0.65567  -0.64466
 Alpha  occ. eigenvalues --   -0.61170  -0.58918  -0.57973  -0.55342  -0.52999
 Alpha  occ. eigenvalues --   -0.51737  -0.50395  -0.48828  -0.47717  -0.45813
 Alpha  occ. eigenvalues --   -0.41478  -0.40257  -0.39732  -0.38534  -0.38140
 Alpha  occ. eigenvalues --   -0.37101  -0.35918  -0.33894  -0.28715
 Alpha virt. eigenvalues --    0.00469   0.02660   0.03806   0.10109   0.11671
 Alpha virt. eigenvalues --    0.13920   0.14239   0.15386   0.16732   0.17857
 Alpha virt. eigenvalues --    0.18276   0.19508   0.20768   0.22685   0.23489

 Mulliken charges:
               1
     1  C   -0.238695
     2  C    0.276661
     3  O   -0.483728
     4  C    0.091606
     5  C   -0.293682
     6  H    0.168168
     7  H    0.162673
     8  H    0.162880
     9  N   -0.320938
    10  H    0.301606
    11  H    0.286406
    12  Br  -0.004894
    13  Br  -0.068253
    14  Br  -0.101313
    15  N   -0.468920
    16  H    0.259778
    17  H    0.270644
 Sum of Mulliken charges =  -0.00000

 Dipole moment (field-independent basis, Debye):
    X=             -8.4296    Y=             -0.5540    Z=              6.3858  Tot=             10.5898
 Quadrupole moment (field-independent basis, Debye-Ang):
   XX=           -108.1916   YY=            -92.8456   ZZ=            -85.0104
   XY=            -12.3940   XZ=             -3.1168   YZ=              0.8796

  Exact polarizability: 215.644   3.216 192.048  -7.374  -4.288 157.159
 Approx polarizability: 175.577   0.337 158.870  -6.033  -2.071 133.641

 ******    1 imaginary frequencies (negative Signs) ******

                      1                      2                      3
                      A                      A                      A
 Frequencies --   -380.6315                42.4286                69.2308
 Red. masses --      5.5419                12.5455                 2.4129
 Frc consts  --      0.4731                 0.0133                 0.0068
 IR Inten    --    560.7301                 6.5577                 1.5887

                      4                      5                      6
                      A                      A                      A
 Frequencies --     77.8276               118.4891               145.3135
 Red. masses --      6.5569                 4.8895                 2.4828
 Frc consts  --      0.0234                 0.0404                 0.0309
 IR Inten    --     11.7941                 2.3193                 4.4946

                      7                      8                      9
                      A                      A                      A
 Frequencies --    152.0946               168.1495               182.6115
 Red. masses --      7.6080                 2.5378                12.9091
 Frc consts  --      0.1037                 0.0423                 0.2536
 IR Inten    --      0.1072                 1.3382                 2.6733

                     10                     11                     12
                      A                      A                      A
 Frequencies --    200.8282               225.9938               259.4607
 Red. masses --      5.1819                 3.8736                 6.3746
 Frc consts  --      0.1231                 0.1166                 0.2528
 IR Inten    --      8.3406                12.9889                14.1506

                     13                     14                     15
                      A                      A                      A
 Frequencies --    288.3788               302.9545               387.6325
 Red. masses --      3.9039                10.0685                 4.5002
 Frc consts  --      0.1913                 0.5445                 0.3984
 IR Inten    --      7.8857                 6.2206                 9.6992

                     16                     17                     18
                      A                      A                      A
 Frequencies --    479.9718               500.2984               544.2979
 Red. masses --      2.2029                 1.5353                 1.3623
 Frc consts  --      0.2990                 0.2264                 0.2378
 IR Inten    --     21.6094               349.0140               128.7146

                     19                     20                     21
                      A                      A                      A
 Frequencies --    617.1412               660.0532               693.3289
 Red. masses --      3.7697                 1.6462                 5.4573
 Frc consts  --      0.8459                 0.4226                 1.5456
 IR Inten    --     37.1340                84.7959               227.8704

                     22                     23                     24
                      A                      A                      A
 Frequencies --    778.1274               825.2461              1002.9054
 Red. masses --      7.7415                 3.8377                 1.4921
 Frc consts  --      2.7617                 1.5399                 0.8842
 IR Inten    --     62.4956                52.8189                11.5770

                     25                     26                     27
                      A                      A                      A
 Frequencies --   1005.6509              1050.7227              1078.4348
 Red. masses --      2.4411                 1.1480                 5.0922
 Frc consts  --      1.4545                 0.7467                 3.4893
 IR Inten    --     31.3559                75.3484                56.6932

                     28                     29                     30
                      A                      A                      A
 Frequencies --   1110.7274              1226.0023              1341.1457
 Red. masses --      1.7861                 1.3931                 1.3931
 Frc consts  --      1.2983                 1.2337                 1.4763
 IR Inten    --    131.0634                25.8543                75.7507

                     31                     32                     33
                      A                      A                      A
 Frequencies --   1357.5608              1392.8411              1459.1600
 Red. masses --      3.5765                 7.3709                 1.2150
 Frc consts  --      3.8835                 8.4250                 1.5242
 IR Inten    --    768.0497               532.5307                 9.3663

                     34                     35                     36
                      A                      A                      A
 Frequencies --   1489.8697              1500.0319              1617.4578
 Red. masses --      1.0428                 1.0323                 1.3032
 Frc consts  --      1.3637                 1.3685                 2.0088
 IR Inten    --     26.4836                14.1787               323.5786

                     37                     38                     39
                      A                      A                      A
 Frequencies --   1633.4082              1685.4144              3074.0301
 Red. masses --      1.0908                 5.4525                 1.0327
 Frc consts  --      1.7146                 9.1255                 5.7496
 IR Inten    --     92.2007               708.9264                22.1624

                     40                     41                     42
                      A                      A                      A
 Frequencies --   3153.7821              3172.7179              3514.4911
 Red. masses --      1.1050                 1.1060                 1.0503
 Frc consts  --      6.4755                 6.5597                 7.6432
 IR Inten    --      6.6630                 8.7973                62.3375

                     43                     44                     45
                      A                      A                      A
 Frequencies --   3590.3693              3600.5558              3700.9275
 Red. masses --      1.0473                 1.0972                 1.1012
 Frc consts  --      7.9544                 8.3805                 8.8865
 IR Inten    --     53.0127                70.8775               151.0622

 - Thermochemistry -
 -------------------
 Temperature   298.150 Kelvin.  Pressure   1.00000 Atm.
 Atom     1 has atomic number  6 and mass  12.00000

 Molecular mass:   335.81085 amu.
 Principal axes and moments of inertia in atomic units:
                           1         2         3
     Eigenvalues --  3146.560824157.533985617.32755
           X            0.99881   0.04740  -0.01124
           Y           -0.04733   0.99886   0.00639
           Z            0.01153  -0.00585   0.99992
 This molecule is an asymmetric top.
 Rotational symmetry number  1.
 Warning -- assumption of classical behavior for rotation
           may cause significant error
 Rotational temperatures (Kelvin)      0.02753     0.02083     0.01542
 Rotational constants (GHZ):           0.57356     0.43409     0.32128
    1 imaginary frequencies ignored.
 Zero-point vibrational energy     307907.2 (Joules/Mol)
                                   73.59159 (Kcal/Mol)
 Warning -- explicit consideration of  18 degrees of freedom as
           vibrations may cause significant error
 Vibrational temperatures:     61.05    99.61   111.98   170.48   209.07
          (Kelvin)            218.83   241.93   262.74   288.95   325.15
                              373.31   414.91   435.88   557.72   690.57
                              719.82   783.12   887.93   949.67   997.55
                             1119.55  1187.35  1442.96  1446.91  1511.76
                             1551.63  1598.09  1763.94  1929.61  1953.23
                             2003.99  2099.41  2143.59  2158.21  2327.16
                             2350.11  2424.94  4422.84  4537.59  4564.83
                             5056.57  5165.74  5180.40  5324.81

 Zero-point correction=                           0.117276 (Hartree/Particle)
 Thermal correction to Energy=                    0.129879
 Thermal correction to Enthalpy=                  0.130823
 Thermal correction to Gibbs Free Energy=         0.075667
 Sum of electronic and zero-point Energies=          -8063.875226
 Sum of electronic and thermal Energies=             -8063.862623
 Sum of electronic and thermal Enthalpies=           -8063.861679
 Sum of electronic and thermal Free Energies=        -8063.916835

                     E (Thermal)             CV                S
                      KCal/Mol        Cal/Mol-Kelvin    Cal/Mol-Kelvin
 Total                   81.500             41.910            116.085
 Electronic               0.000              0.000              0.000
 Translational            0.889              2.981             43.329
 Rotational               0.889              2.981             32.663
 Vibrational             79.723             35.948             40.093
 Vibration     1          0.595              1.980              5.142
 Vibration     2          0.598              1.969              4.175
 Vibration     3          0.599              1.964              3.945
 Vibration     4          0.609              1.934              3.125
 Vibration     5          0.617              1.908              2.733
 Vibration     6          0.619              1.900              2.646
 Vibration     7          0.625              1.882              2.456
 Vibration     8          0.630              1.863              2.302
 Vibration     9          0.638              1.839              2.125
 Vibration    10          0.650              1.801              1.911
 Vibration    11          0.668              1.747              1.665
 Vibration    12          0.685              1.695              1.483
 Vibration    13          0.694              1.668              1.401
 Vibration    14          0.756              1.497              1.009
 Vibration    15          0.836              1.294              0.710
 Vibration    16          0.856              1.249              0.657
 Vibration    17          0.899              1.152              0.556
 Vibration    18          0.977              0.996              0.421

 Optimization completed.
    -- Stationary point found.
 Normal termination of Gaussian 16 at Sun Feb 21 23:39:37 2021.
