 Gaussian 16, Revision A.03,
 Gaussian 16:  ES64L-G16RevA.03 25-Dec-2016

 ----------------------------------------------------------------------
 # wB97XD def2tzvp, opt=(ts, noeigen, calcfc, maxcycles=70, maxstep=8),
  freq=noraman, scrf=(iefpcm, solvent=water)
 ----------------------------------------------------------------------

 ------------------------
 1_iteration/TS-764-1.out
 ------------------------
 Symbolic Z-matrix:
 Charge =  0 Multiplicity = 1

 SCF Done:  E(RwB97XD) =  -3666.59513984     A.U. after   15 cycles
 SCF Done:  E(RwB97XD) =  -3666.59752885     A.U. after   13 cycles
 SCF Done:  E(RwB97XD) =  -3666.60013236     A.U. after   13 cycles
 SCF Done:  E(RwB97XD) =  -3666.60274601     A.U. after   13 cycles
 SCF Done:  E(RwB97XD) =  -3666.60535413     A.U. after   13 cycles
 SCF Done:  E(RwB97XD) =  -3666.60747244     A.U. after   13 cycles
 SCF Done:  E(RwB97XD) =  -3666.60906470     A.U. after   13 cycles
 SCF Done:  E(RwB97XD) =  -3666.60921757     A.U. after   13 cycles
 SCF Done:  E(RwB97XD) =  -3666.60947492     A.U. after   12 cycles
 SCF Done:  E(RwB97XD) =  -3666.60958110     A.U. after   12 cycles
 SCF Done:  E(RwB97XD) =  -3666.60963465     A.U. after   11 cycles
 SCF Done:  E(RwB97XD) =  -3666.60964403     A.U. after   10 cycles
 SCF Done:  E(RwB97XD) =  -3666.60964485     A.U. after    8 cycles
 SCF Done:  E(RwB97XD) =  -3666.60964508     A.U. after    8 cycles
 SCF Done:  E(RwB97XD) =  -3666.60962387     A.U. after   10 cycles
 SCF Done:  E(RwB97XD) =  -3666.60964535     A.U. after   10 cycles
 SCF Done:  E(RwB97XD) =  -3666.60963926     A.U. after   10 cycles
 SCF Done:  E(RwB97XD) =  -3666.60964538     A.U. after   10 cycles
 SCF Done:  E(RwB97XD) =  -3666.60964547     A.U. after    7 cycles
 Optimization completed.
    -- Stationary point found.
 Normal termination of Gaussian 16 at Mon Feb 22 12:23:56 2021.

 ---------------------------------------------------------------------
 #N Geom=AllCheck Guess=TCheck SCRF=Check GenChk RwB97XD/def2TZVP Freq
 ---------------------------------------------------------------------

 Structure from the checkpoint file:  "/beegfs/scratch/user/q/tla25/Gau-67500.chk"
 ------------------------
 1_iteration/TS-764-1.out
 ------------------------
 Charge =  0 Multiplicity = 1

                         Standard orientation:
 ---------------------------------------------------------------------
 Center     Atomic      Atomic             Coordinates (Angstroms)
 Number     Number       Type             X           Y           Z
 ---------------------------------------------------------------------
      1          6           0       -0.144646    0.564422   -0.217459
      2          6           0       -0.845192    1.830245   -0.279425
      3          8           0       -0.320565    2.911633   -0.476466
      4          6           0       -0.819360   -0.643224   -0.222054
      5          6           0       -1.199504   -0.430396    2.578110
      6          1           0       -1.851251   -0.402153    3.451081
      7          1           0       -0.373536   -1.114607    2.764794
      8          1           0       -0.803189    0.569134    2.401420
      9          7           0       -1.918565   -0.851830    1.389189
     10          1           0       -2.247760   -1.808688    1.443217
     11          1           0       -2.700974   -0.238763    1.190008
     12         35           0        0.242349   -2.240196   -0.081553
     13         17           0       -2.174059   -0.940044   -1.348933
     14          6           0        1.341431    0.650356   -0.107313
     15          6           0        1.967795    0.977732    1.092524
     16          6           0        3.349437    1.074116    1.172994
     17          6           0        4.129996    0.847282    0.048506
     18          6           0        3.518881    0.530728   -1.156620
     19          6           0        2.137257    0.438269   -1.231385
     20          1           0        1.367845    1.156694    1.975947
     21          1           0        3.816921    1.325032    2.117087
     22          1           0        5.208585    0.919743    0.110289
     23          1           0        4.118971    0.357656   -2.041363
     24          1           0        1.662178    0.192297   -2.173534
     25          8           0       -2.170734    1.727883   -0.038949
     26          6           0       -2.929472    2.929303   -0.118984
     27          1           0       -3.959866    2.640864    0.071094
     28          1           0       -2.597551    3.647235    0.630685
     29          1           0       -2.842953    3.376848   -1.108886
 ---------------------------------------------------------------------

 SCF Done:  E(RwB97XD) =  -3666.60964547     A.U. after    1 cycles

 The electronic state is 1-A.
 Alpha  occ. eigenvalues -- -483.14393-101.70525 -62.69227 -56.48362 -56.47985
 Alpha  occ. eigenvalues --  -56.47968 -19.29157 -19.22212 -14.48845 -10.44647
 Alpha  occ. eigenvalues --  -10.40757 -10.33055 -10.31896 -10.30194 -10.28879
 Alpha  occ. eigenvalues --  -10.28834 -10.28791 -10.28701 -10.28638 -10.28245
 Alpha  occ. eigenvalues --   -9.59111  -8.83330  -7.33778  -7.32876  -7.32847
 Alpha  occ. eigenvalues --   -6.65535  -6.64333  -6.64281  -2.75915  -2.75574
 Alpha  occ. eigenvalues --   -2.75534  -2.74562  -2.74561  -1.20583  -1.10935
 Alpha  occ. eigenvalues --   -1.04813  -0.98997  -0.96417  -0.90662  -0.88361
 Alpha  occ. eigenvalues --   -0.84886  -0.84208  -0.80068  -0.79193  -0.71271
 Alpha  occ. eigenvalues --   -0.70235  -0.69019  -0.64710  -0.63842  -0.61350
 Alpha  occ. eigenvalues --   -0.59292  -0.58167  -0.57232  -0.56868  -0.55064
 Alpha  occ. eigenvalues --   -0.54274  -0.53888  -0.52129  -0.51907  -0.50690
 Alpha  occ. eigenvalues --   -0.49029  -0.48326  -0.48079  -0.46954  -0.46271
 Alpha  occ. eigenvalues --   -0.44693  -0.42881  -0.42581  -0.41488  -0.40031
 Alpha  occ. eigenvalues --   -0.38867  -0.37881  -0.37607  -0.36163  -0.33535
 Alpha  occ. eigenvalues --   -0.32961  -0.28907
 Alpha virt. eigenvalues --    0.02350   0.04058   0.05410   0.05698   0.08608
 Alpha virt. eigenvalues --    0.10553   0.12840   0.13605   0.14559   0.15874
 Alpha virt. eigenvalues --    0.16034   0.16311   0.17002   0.17737   0.18267

 Mulliken charges:
               1
     1  C   -0.350555
     2  C    0.403985
     3  O   -0.475893
     4  C    0.183418
     5  C   -0.293168
     6  H    0.165720
     7  H    0.159576
     8  H    0.144964
     9  N   -0.341421
    10  H    0.291671
    11  H    0.286325
    12  Br  -0.036613
    13  Cl  -0.076098
    14  C    0.242938
    15  C   -0.219260
    16  C   -0.162596
    17  C   -0.132628
    18  C   -0.150000
    19  C   -0.237166
    20  H    0.139698
    21  H    0.139476
    22  H    0.143177
    23  H    0.140267
    24  H    0.140810
    25  O   -0.314247
    26  C   -0.199836
    27  H    0.141609
    28  H    0.132078
    29  H    0.133765
 Sum of Mulliken charges =  -0.00000

 Dipole moment (field-independent basis, Debye):
    X=             -4.6986    Y=             -3.7395    Z=              5.5484  Tot=              8.1760
 Quadrupole moment (field-independent basis, Debye-Ang):
   XX=            -93.8478   YY=           -123.8697   ZZ=           -102.0739
   XY=             -3.7236   XZ=             -8.3746   YZ=              0.3331

  Exact polarizability: 279.063   9.721 240.839  -3.721  -0.045 234.133
 Approx polarizability: 221.684   7.257 195.753  -1.785   1.465 199.999

 ******    1 imaginary frequencies (negative Signs) ******

                      1                      2                      3
                      A                      A                      A
 Frequencies --   -363.9703                27.8564                55.5714
 Red. masses --      5.8667                 3.8453                 5.5165
 Frc consts  --      0.4579                 0.0018                 0.0100
 IR Inten    --    698.8526                 0.0461                 5.4087

                      4                      5                      6
                      A                      A                      A
 Frequencies --     61.4323                67.3654                78.6175
 Red. masses --      3.3125                 4.7066                 5.2950
 Frc consts  --      0.0074                 0.0126                 0.0193
 IR Inten    --      1.6052                 2.9642                 2.4662

                      7                      8                      9
                      A                      A                      A
 Frequencies --     97.6025               122.3167               143.8218
 Red. masses --      3.5933                 4.5320                 1.3813
 Frc consts  --      0.0202                 0.0399                 0.0168
 IR Inten    --      1.8709                 1.5898                 0.7776

                     10                     11                     12
                      A                      A                      A
 Frequencies --    157.3438               166.1955               187.2790
 Red. masses --      1.2757                 3.2515                 3.1398
 Frc consts  --      0.0186                 0.0529                 0.0649
 IR Inten    --      2.9085                 0.7666                 8.6160

                     13                     14                     15
                      A                      A                      A
 Frequencies --    206.2088               215.4731               243.3766
 Red. masses --      5.5685                 5.6718                 4.0717
 Frc consts  --      0.1395                 0.1552                 0.1421
 IR Inten    --      0.4322                 3.6142                 3.6161

                     16                     17                     18
                      A                      A                      A
 Frequencies --    267.2743               288.5479               295.2911
 Red. masses --      4.6759                 5.6418                 5.2446
 Frc consts  --      0.1968                 0.2768                 0.2694
 IR Inten    --     27.6616                 5.8748                14.3780

                     19                     20                     21
                      A                      A                      A
 Frequencies --    345.5269               368.4244               421.7853
 Red. masses --      7.2761                 5.1156                 4.3112
 Frc consts  --      0.5118                 0.4091                 0.4519
 IR Inten    --     10.3899                35.3860                14.7138

                     22                     23                     24
                      A                      A                      A
 Frequencies --    423.5069               526.1361               542.5099
 Red. masses --      3.9236                 3.6273                 7.7864
 Frc consts  --      0.4146                 0.5916                 1.3502
 IR Inten    --     12.6443                11.1269                79.3846

                     25                     26                     27
                      A                      A                      A
 Frequencies --    634.1106               637.5729               655.1019
 Red. masses --      1.7872                 4.5985                 6.7124
 Frc consts  --      0.4234                 1.1014                 1.6972
 IR Inten    --      7.1837                 7.4285                53.3179

                     28                     29                     30
                      A                      A                      A
 Frequencies --    723.9939               732.4278               766.1354
 Red. masses --      1.8418                 2.3311                 4.5892
 Frc consts  --      0.5688                 0.7368                 1.5871
 IR Inten    --     41.9534               181.4892               108.3590

                     31                     32                     33
                      A                      A                      A
 Frequencies --    807.2741               812.7436               874.9490
 Red. masses --     10.2618                 2.9057                 1.2562
 Frc consts  --      3.9402                 1.1309                 0.5666
 IR Inten    --     62.5594                63.5690                 0.3731

                     34                     35                     36
                      A                      A                      A
 Frequencies --    876.8697               939.9993               969.1496
 Red. masses --      5.1673                 2.5069                 2.2389
 Frc consts  --      2.3409                 1.3051                 1.2390
 IR Inten    --    104.8604                 7.1021                 3.1263

                     37                     38                     39
                      A                      A                      A
 Frequencies --    995.5478              1010.3224              1027.5810
 Red. masses --      1.1022                 1.3796                 6.1386
 Frc consts  --      0.6436                 0.8297                 3.8190
 IR Inten    --     60.1316                 0.2365                 1.3959

                     40                     41                     42
                      A                      A                      A
 Frequencies --   1028.2716              1034.9949              1061.1013
 Red. masses --      1.3140                 1.1169                 2.3896
 Frc consts  --      0.8186                 0.7049                 1.5852
 IR Inten    --      0.3147                83.3585                20.3197

                     43                     44                     45
                      A                      A                      A
 Frequencies --   1092.3022              1104.9777              1110.7034
 Red. masses --      4.7951                 4.7676                 1.5711
 Frc consts  --      3.3708                 3.4297                 1.1420
 IR Inten    --     39.6536                93.3795                10.0058

                     46                     47                     48
                      A                      A                      A
 Frequencies --   1182.2401              1183.0647              1207.6173
 Red. masses --      1.1341                 1.2817                 1.3295
 Frc consts  --      0.9340                 1.0570                 1.1423
 IR Inten    --      0.1526                 1.6907                33.8136

                     49                     50                     51
                      A                      A                      A
 Frequencies --   1208.2213              1214.7556              1238.7528
 Red. masses --      1.2009                 1.5497                 4.7329
 Frc consts  --      1.0328                 1.3473                 4.2791
 IR Inten    --      9.4366                22.3977               477.5288

                     52                     53                     54
                      A                      A                      A
 Frequencies --   1308.3826              1322.3755              1346.3346
 Red. masses --      4.5059                 5.7398                 1.3641
 Frc consts  --      4.5446                 5.9137                 1.4568
 IR Inten    --     10.1681               866.9172                33.7723

                     55                     56                     57
                      A                      A                      A
 Frequencies --   1357.6519              1437.2070              1462.9885
 Red. masses --      1.4364                 2.6207                 1.5380
 Frc consts  --      1.5599                 3.1894                 1.9394
 IR Inten    --      0.6392               446.6676               148.5968

                     58                     59                     60
                      A                      A                      A
 Frequencies --   1481.0039              1482.7587              1487.5013
 Red. masses --      1.2474                 1.0483                 2.1580
 Frc consts  --      1.6120                 1.3579                 2.8133
 IR Inten    --     37.5199                11.8917                 6.6105

                     61                     62                     63
                      A                      A                      A
 Frequencies --   1492.4414              1495.7069              1498.3281
 Red. masses --      1.0471                 1.0620                 1.0456
 Frc consts  --      1.3742                 1.3998                 1.3830
 IR Inten    --     47.4066                12.5684                27.8354

                     64                     65                     66
                      A                      A                      A
 Frequencies --   1546.7850              1636.5878              1646.7186
 Red. masses --      2.5163                 1.0968                 5.7439
 Frc consts  --      3.5471                 1.7308                 9.1769
 IR Inten    --     67.7440                85.7413                 2.3831

                     67                     68                     69
                      A                      A                      A
 Frequencies --   1672.1226              1710.3699              3067.3638
 Red. masses --      6.0386                11.1372                 1.0306
 Frc consts  --      9.9477                19.1958                 5.7128
 IR Inten    --     11.8556               965.8729                57.2953

                     70                     71                     72
                      A                      A                      A
 Frequencies --   3069.1166              3145.4462              3147.3813
 Red. masses --      1.0326                 1.1070                 1.1043
 Frc consts  --      5.7307                 6.4528                 6.4453
 IR Inten    --     28.9871                32.6603                10.3510

                     73                     74                     75
                      A                      A                      A
 Frequencies --   3163.2172              3177.6213              3189.9005
 Red. masses --      1.1057                 1.1059                 1.0860
 Frc consts  --      6.5184                 6.5790                 6.5108
 IR Inten    --     12.1439                20.8340                 4.5105

                     76                     77                     78
                      A                      A                      A
 Frequencies --   3195.1027              3204.4469              3211.1648
 Red. masses --      1.0879                 1.0919                 1.0948
 Frc consts  --      6.5438                 6.6062                 6.6512
 IR Inten    --      0.0820                19.2570                45.8834

                     79                     80                     81
                      A                      A                      A
 Frequencies --   3220.5172              3524.8414              3615.2149
 Red. masses --      1.0988                 1.0498                 1.0976
 Frc consts  --      6.7144                 7.6849                 8.4518
 IR Inten    --     16.7905                68.3709                76.7392

 - Thermochemistry -
 -------------------
 Temperature   298.150 Kelvin.  Pressure   1.00000 Atm.
 Atom     1 has atomic number  6 and mass  12.00000

 Molecular mass:   304.98182 amu.
 Principal axes and moments of inertia in atomic units:
                           1         2         3
     Eigenvalues --  4093.694125169.028197196.59218
           X            0.99942  -0.02740  -0.02045
           Y            0.02724   0.99960  -0.00803
           Z            0.02066   0.00747   0.99976
 This molecule is an asymmetric top.
 Rotational symmetry number  1.
 Warning -- assumption of classical behavior for rotation
           may cause significant error
 Rotational temperatures (Kelvin)      0.02116     0.01676     0.01204
 Rotational constants (GHZ):           0.44086     0.34915     0.25078
    1 imaginary frequencies ignored.
 Zero-point vibrational energy     590697.1 (Joules/Mol)
                                  141.18000 (Kcal/Mol)
 Warning -- explicit consideration of  23 degrees of freedom as
           vibrations may cause significant error
 Vibrational temperatures:     40.08    79.95    88.39    96.92   113.11
          (Kelvin)            140.43   175.99   206.93   226.38   239.12
                              269.45   296.69   310.02   350.16   384.55
                              415.16   424.86   497.14   530.08   606.85
                              609.33   756.99   780.55   912.34   917.33
                              942.55  1041.67  1053.80  1102.30  1161.49
                             1169.36  1258.86  1261.62  1352.45  1394.39
                             1432.37  1453.63  1478.46  1479.45  1489.13
                             1526.69  1571.58  1589.82  1598.05  1700.98
                             1702.17  1737.49  1738.36  1747.76  1782.29
                             1882.47  1902.60  1937.08  1953.36  2067.82
                             2104.91  2130.83  2133.36  2140.18  2147.29
                             2151.99  2155.76  2225.48  2354.68  2369.26
                             2405.81  2460.84  4413.25  4415.77  4525.60
                             4528.38  4551.16  4571.89  4589.56  4597.04
                             4610.48  4620.15  4633.61  5071.46  5201.49

 Zero-point correction=                           0.224985 (Hartree/Particle)
 Thermal correction to Energy=                    0.241946
 Thermal correction to Enthalpy=                  0.242891
 Thermal correction to Gibbs Free Energy=         0.178355
 Sum of electronic and zero-point Energies=          -3666.384661
 Sum of electronic and thermal Energies=             -3666.367699
 Sum of electronic and thermal Enthalpies=           -3666.366755
 Sum of electronic and thermal Free Energies=        -3666.431291

                     E (Thermal)             CV                S
                      KCal/Mol        Cal/Mol-Kelvin    Cal/Mol-Kelvin
 Total                  151.824             59.933            135.827
 Electronic               0.000              0.000              0.000
 Translational            0.889              2.981             43.042
 Rotational               0.889              2.981             33.387
 Vibrational            150.046             53.972             59.398
 Vibration     1          0.593              1.984              5.977
 Vibration     2          0.596              1.975              4.609
 Vibration     3          0.597              1.973              4.411
 Vibration     4          0.598              1.970              4.229
 Vibration     5          0.600              1.964              3.925
 Vibration     6          0.603              1.951              3.502
 Vibration     7          0.610              1.930              3.063
 Vibration     8          0.616              1.909              2.752
 Vibration     9          0.621              1.894              2.581
 Vibration    10          0.624              1.884              2.478
 Vibration    11          0.632              1.857              2.255
 Vibration    12          0.641              1.831              2.077
 Vibration    13          0.645              1.817              1.997
 Vibration    14          0.659              1.774              1.778
 Vibration    15          0.672              1.733              1.614
 Vibration    16          0.685              1.695              1.482
 Vibration    17          0.690              1.683              1.443
 Vibration    18          0.724              1.584              1.187
 Vibration    19          0.741              1.537              1.086
 Vibration    20          0.784              1.423              0.886
 Vibration    21          0.786              1.419              0.880
 Vibration    22          0.881              1.192              0.596
 Vibration    23          0.898              1.156              0.560

 Optimization completed.
    -- Stationary point found.
 Normal termination of Gaussian 16 at Mon Feb 22 13:34:46 2021.
