 Gaussian 16, Revision A.03,
 Gaussian 16:  ES64L-G16RevA.03 25-Dec-2016

 ----------------------------------------------------------------------
 # wB97XD def2tzvp, opt=(ts, noeigen, calcfc, maxcycles=70, maxstep=8),
  freq=noraman, scrf=(iefpcm, solvent=water)
 ----------------------------------------------------------------------

 ------------------------
 1_iteration/TS-713-1.out
 ------------------------
 Symbolic Z-matrix:
 Charge =  0 Multiplicity = 1

 SCF Done:  E(RwB97XD) =  -3360.32621624     A.U. after   15 cycles
 SCF Done:  E(RwB97XD) =  -3360.32621623     A.U. after    6 cycles
 Optimization completed.
    -- Stationary point found.
 Normal termination of Gaussian 16 at Mon Feb 22 04:22:19 2021.

 ---------------------------------------------------------------------
 #N Geom=AllCheck Guess=TCheck SCRF=Check GenChk RwB97XD/def2TZVP Freq
 ---------------------------------------------------------------------

 Structure from the checkpoint file:  "/beegfs/scratch/user/q/tla25/Gau-93867.chk"
 ------------------------
 1_iteration/TS-713-1.out
 ------------------------
 Charge =  0 Multiplicity = 1

                         Standard orientation:
 ---------------------------------------------------------------------
 Center     Atomic      Atomic             Coordinates (Angstroms)
 Number     Number       Type             X           Y           Z
 ---------------------------------------------------------------------
      1          6           0        1.236448    0.094250   -0.118350
      2          6           0        2.339223    0.823978   -0.644173
      3          8           0        3.520441    0.657040   -0.361938
      4          6           0       -0.082372    0.365427   -0.452868
      5          6           0       -2.206947    1.908947    1.118129
      6          1           0       -2.466809    2.367922    2.073532
      7          1           0       -2.332745    2.646937    0.328569
      8          1           0       -2.880538    1.073096    0.934263
      9          7           0       -0.830050    1.422021    1.111005
     10          1           0       -0.163055    2.182557    1.177984
     11          1           0       -0.655555    0.795558    1.888630
     12         35           0       -1.335016   -1.107895   -0.372165
     13          6           0       -0.441157    1.323635   -1.554562
     14          1           0        0.063104    2.279717   -1.427767
     15          1           0       -0.158336    0.896703   -2.516975
     16          1           0       -1.513595    1.499698   -1.566888
     17         17           0        1.608433   -1.109413    1.091476
     18          1           0        2.065377    1.586254   -1.391244
 ---------------------------------------------------------------------

 SCF Done:  E(RwB97XD) =  -3360.32621623     A.U. after    1 cycles

 The electronic state is 1-A.
 Alpha  occ. eigenvalues -- -483.13809-101.69421 -62.68660 -56.47778 -56.47427
 Alpha  occ. eigenvalues --  -56.47403 -19.22205 -14.48087 -10.41209 -10.36080
 Alpha  occ. eigenvalues --  -10.32409 -10.31823 -10.30097  -9.57951  -8.82773
 Alpha  occ. eigenvalues --   -7.32586  -7.31739  -7.31720  -6.64931  -6.63814
 Alpha  occ. eigenvalues --   -6.63738  -2.75318  -2.75009  -2.74950  -2.74045
 Alpha  occ. eigenvalues --   -2.74045  -1.12698  -1.03723  -0.98235  -0.92700
 Alpha  occ. eigenvalues --   -0.86176  -0.80870  -0.78899  -0.71654  -0.62950
 Alpha  occ. eigenvalues --   -0.62180  -0.59256  -0.56565  -0.55682  -0.55092
 Alpha  occ. eigenvalues --   -0.51188  -0.50381  -0.48771  -0.48699  -0.47762
 Alpha  occ. eigenvalues --   -0.46638  -0.43932  -0.41492  -0.40520  -0.37742
 Alpha  occ. eigenvalues --   -0.37033  -0.33684  -0.28967
 Alpha virt. eigenvalues --    0.01369   0.04707   0.09958   0.12379   0.13442
 Alpha virt. eigenvalues --    0.13845   0.14800   0.16601   0.18356   0.18782
 Alpha virt. eigenvalues --    0.18884   0.19614   0.19974   0.21967   0.22625

 Mulliken charges:
               1
     1  C   -0.001511
     2  C    0.063633
     3  O   -0.469481
     4  C    0.071929
     5  C   -0.284077
     6  H    0.156348
     7  H    0.158927
     8  H    0.149727
     9  N   -0.377329
    10  H    0.282932
    11  H    0.283717
    12  Br  -0.069740
    13  C   -0.420556
    14  H    0.162643
    15  H    0.179658
    16  H    0.169283
    17  Cl  -0.149246
    18  H    0.093142
 Sum of Mulliken charges =   0.00000

 Dipole moment (field-independent basis, Debye):
    X=             -9.3565    Y=              5.7958    Z=              0.9676  Tot=             11.0486
 Quadrupole moment (field-independent basis, Debye-Ang):
   XX=            -98.3833   YY=            -65.3683   ZZ=            -66.9071
   XY=             -5.5224   XZ=             -3.1042   YZ=              2.3543

  Exact polarizability: 205.231  -1.438 141.586 -10.410  -4.356 127.737
 Approx polarizability: 155.800   0.953 119.828  -4.807  -4.376 109.914

 ******    1 imaginary frequencies (negative Signs) ******

                      1                      2                      3
                      A                      A                      A
 Frequencies --   -346.7850                53.4343                70.7171
 Red. masses --      6.1478                 2.8157                 4.1747
 Frc consts  --      0.4356                 0.0047                 0.0123
 IR Inten    --    846.8319                 1.1852                 2.6241

                      4                      5                      6
                      A                      A                      A
 Frequencies --     96.8840               148.2317               167.4228
 Red. masses --      5.0607                 3.6881                 2.2713
 Frc consts  --      0.0280                 0.0477                 0.0375
 IR Inten    --      9.5826                 9.8480                 1.7038

                      7                      8                      9
                      A                      A                      A
 Frequencies --    208.3307               225.9147               243.8719
 Red. masses --      2.1202                 4.1729                 3.0412
 Frc consts  --      0.0542                 0.1255                 0.1066
 IR Inten    --      9.2112                 5.3699                 7.8239

                     10                     11                     12
                      A                      A                      A
 Frequencies --    258.8678               289.2435               310.8897
 Red. masses --      1.4118                 2.5689                 3.6524
 Frc consts  --      0.0557                 0.1266                 0.2080
 IR Inten    --      1.3238                 8.1972                 7.2206

                     13                     14                     15
                      A                      A                      A
 Frequencies --    353.5409               356.9031               481.9916
 Red. masses --      3.4191                 3.1782                 4.8740
 Frc consts  --      0.2518                 0.2385                 0.6671
 IR Inten    --      2.6694                 6.7921                17.6738

                     16                     17                     18
                      A                      A                      A
 Frequencies --    501.5646               634.4846               671.1956
 Red. masses --      4.8260                 1.3470                 7.2531
 Frc consts  --      0.7153                 0.3195                 1.9252
 IR Inten    --    153.2885                27.3132               111.8620

                     19                     20                     21
                      A                      A                      A
 Frequencies --    736.1776              1003.4332              1013.2814
 Red. masses --      3.3634                 1.1261                 1.6336
 Frc consts  --      1.0740                 0.6680                 0.9882
 IR Inten    --    142.9305                 6.6257                 2.7239

                     22                     23                     24
                      A                      A                      A
 Frequencies --   1018.6166              1042.7843              1064.5848
 Red. masses --      1.3326                 1.7240                 1.6515
 Frc consts  --      0.8146                 1.1045                 1.1028
 IR Inten    --    261.0687                 3.5874                65.2041

                     25                     26                     27
                      A                      A                      A
 Frequencies --   1072.1995              1104.3453              1215.0623
 Red. masses --      4.2652                 2.0289                 1.4066
 Frc consts  --      2.8890                 1.4579                 1.2235
 IR Inten    --     92.3129                59.5221                26.7543

                     28                     29                     30
                      A                      A                      A
 Frequencies --   1248.9442              1345.2815              1409.8270
 Red. masses --      4.8073                 1.3178                 2.1317
 Frc consts  --      4.4181                 1.4052                 2.4963
 IR Inten    --    512.2010                 1.5846               656.3977

                     31                     32                     33
                      A                      A                      A
 Frequencies --   1418.8503              1454.8581              1476.7449
 Red. masses --      1.2809                 1.1680                 1.1563
 Frc consts  --      1.5193                 1.4565                 1.4857
 IR Inten    --     25.2160                 4.0250                76.4975

                     34                     35                     36
                      A                      A                      A
 Frequencies --   1486.3742              1493.9779              1505.3346
 Red. masses --      1.0918                 1.0528                 1.1338
 Frc consts  --      1.4211                 1.3844                 1.5137
 IR Inten    --     71.9467                22.7727                49.4656

                     37                     38                     39
                      A                      A                      A
 Frequencies --   1513.4599              1644.8111              1687.2919
 Red. masses --      1.4759                 1.0894                 8.0676
 Frc consts  --      1.9918                 1.7365                13.5324
 IR Inten    --    275.4910                76.3665              1028.5355

                     40                     41                     42
                      A                      A                      A
 Frequencies --   2993.3032              3062.9686              3081.3117
 Red. masses --      1.0821                 1.0356                 1.0369
 Frc consts  --      5.7123                 5.7243                 5.8005
 IR Inten    --     89.6185                50.6253                 5.9783

                     43                     44                     45
                      A                      A                      A
 Frequencies --   3138.9333              3160.1128              3166.3299
 Red. masses --      1.1020                 1.1023                 1.1056
 Frc consts  --      6.3973                 6.4854                 6.5307
 IR Inten    --     13.2686                 4.7542                15.5300

                     46                     47                     48
                      A                      A                      A
 Frequencies --   3176.1764              3522.8144              3604.5864
 Red. masses --      1.1027                 1.0509                 1.0961
 Frc consts  --      6.5543                 7.6838                 8.3912
 IR Inten    --      4.9393                23.9382                41.5869

 - Thermochemistry -
 -------------------
 Temperature   298.150 Kelvin.  Pressure   1.00000 Atm.
 Atom     1 has atomic number  6 and mass  12.00000

 Molecular mass:   212.95560 amu.
 Principal axes and moments of inertia in atomic units:
                           1         2         3
     Eigenvalues --  1502.876172712.871583171.74563
           X            0.99641  -0.07723  -0.03465
           Y            0.07711   0.99701  -0.00477
           Z            0.03492   0.00208   0.99939
 This molecule is an asymmetric top.
 Rotational symmetry number  1.
 Warning -- assumption of classical behavior for rotation
           may cause significant error
 Rotational temperatures (Kelvin)      0.05763     0.03193     0.02731
 Rotational constants (GHZ):           1.20086     0.66525     0.56901
    1 imaginary frequencies ignored.
 Zero-point vibrational energy     364479.8 (Joules/Mol)
                                   87.11277 (Kcal/Mol)
 Warning -- explicit consideration of  15 degrees of freedom as
           vibrations may cause significant error
 Vibrational temperatures:     76.88   101.75   139.39   213.27   240.88
          (Kelvin)            299.74   325.04   350.88   372.45   416.16
                              447.30   508.67   513.50   693.48   721.64
                              912.88   965.70  1059.20  1443.72  1457.89
                             1465.56  1500.33  1531.70  1542.66  1588.91
                             1748.20  1796.95  1935.56  2028.43  2041.41
                             2093.22  2124.71  2138.56  2149.50  2165.84
                             2177.53  2366.52  2427.64  4306.70  4406.93
                             4433.32  4516.22  4546.70  4555.64  4569.81
                             5068.54  5186.20

 Zero-point correction=                           0.138823 (Hartree/Particle)
 Thermal correction to Energy=                    0.149999
 Thermal correction to Enthalpy=                  0.150943
 Thermal correction to Gibbs Free Energy=         0.100549
 Sum of electronic and zero-point Energies=          -3360.187393
 Sum of electronic and thermal Energies=             -3360.176217
 Sum of electronic and thermal Enthalpies=           -3360.175273
 Sum of electronic and thermal Free Energies=        -3360.225667

                     E (Thermal)             CV                S
                      KCal/Mol        Cal/Mol-Kelvin    Cal/Mol-Kelvin
 Total                   94.126             37.984            106.063
 Electronic               0.000              0.000              0.000
 Translational            0.889              2.981             41.971
 Rotational               0.889              2.981             30.937
 Vibrational             92.348             32.023             33.155
 Vibration     1          0.596              1.976              4.686
 Vibration     2          0.598              1.968              4.133
 Vibration     3          0.603              1.951              3.516
 Vibration     4          0.618              1.905              2.695
 Vibration     5          0.624              1.883              2.464
 Vibration     6          0.642              1.828              2.058
 Vibration     7          0.650              1.802              1.911
 Vibration     8          0.659              1.773              1.774
 Vibration     9          0.668              1.748              1.669
 Vibration    10          0.686              1.694              1.478
 Vibration    11          0.700              1.653              1.358
 Vibration    12          0.730              1.568              1.150
 Vibration    13          0.732              1.561              1.136
 Vibration    14          0.838              1.290              0.705
 Vibration    15          0.857              1.247              0.654

 Optimization completed.
    -- Stationary point found.
 Normal termination of Gaussian 16 at Mon Feb 22 04:32:44 2021.
