 Gaussian 16, Revision A.03,
 Gaussian 16:  ES64L-G16RevA.03 25-Dec-2016

 ----------------------------------------------------------------------
 # wB97XD def2tzvp, opt=(ts, noeigen, calcfc, maxcycles=70, maxstep=3),
  freq=noraman, scrf=(iefpcm, solvent=water)
 ----------------------------------------------------------------------

 ------------------------
 3_iteration/TS-768-3.out
 ------------------------
 Symbolic Z-matrix:
 Charge =  0 Multiplicity = 1

 SCF Done:  E(RwB97XD) =  -3783.10037728     A.U. after   15 cycles
 SCF Done:  E(RwB97XD) =  -3783.10037728     A.U. after    7 cycles
 Optimization completed.
    -- Stationary point found.
 Normal termination of Gaussian 16 at Mon Feb 22 19:36:22 2021.

 ---------------------------------------------------------------------
 #N Geom=AllCheck Guess=TCheck SCRF=Check GenChk RwB97XD/def2TZVP Freq
 ---------------------------------------------------------------------

 Structure from the checkpoint file:  "/beegfs/scratch/user/q/tla25/Gau-30219.chk"
 ------------------------
 3_iteration/TS-768-3.out
 ------------------------
 Charge =  0 Multiplicity = 1

                         Standard orientation:
 ---------------------------------------------------------------------
 Center     Atomic      Atomic             Coordinates (Angstroms)
 Number     Number       Type             X           Y           Z
 ---------------------------------------------------------------------
      1          6           0       -0.282046   -0.441122   -0.115609
      2          6           0        0.759619   -1.439601   -0.209419
      3          8           0        0.494531   -2.633965   -0.353449
      4          6           0       -0.076626    0.932619   -0.226441
      5          6           0       -0.047817    1.252763    2.589899
      6          1           0        0.430967    1.626531    3.494271
      7          1           0       -1.096179    1.544857    2.585730
      8          1           0        0.017297    0.165422    2.576510
      9          7           0        0.600497    1.767991    1.395288
     10          1           0        0.487367    2.770860    1.295463
     11          1           0        1.593646    1.557984    1.385569
     12         35           0       -1.656826    2.032220   -0.416995
     13         17           0        1.202515    1.579529   -1.271860
     14          6           0       -1.667844   -0.996285    0.003107
     15          6           0       -2.413208   -1.237502   -1.149899
     16          6           0       -3.689438   -1.772407   -1.077265
     17          6           0       -4.243527   -2.083942    0.157212
     18          6           0       -3.507227   -1.864053    1.311380
     19          6           0       -2.228506   -1.329116    1.231754
     20          1           0       -1.983499   -0.994298   -2.114379
     21          1           0       -4.252815   -1.947273   -1.985519
     22          1           0       -5.241453   -2.499732    0.217851
     23          1           0       -3.926967   -2.109855    2.278969
     24          1           0       -1.662324   -1.171521    2.140332
     25          6           0        2.217770   -1.090426   -0.081434
     26          6           0        2.743847   -0.680713    1.137347
     27          6           0        4.103292   -0.428453    1.267757
     28          6           0        4.944492   -0.584416    0.177246
     29          6           0        4.426006   -1.017941   -1.036952
     30          6           0        3.072405   -1.281444   -1.162115
     31          1           0        2.097751   -0.589230    2.002349
     32          1           0        4.502438   -0.115035    2.223984
     33          1           0        6.003068   -0.379939    0.273850
     34          1           0        5.081077   -1.151464   -1.888595
     35          1           0        2.668918   -1.618992   -2.108760
 ---------------------------------------------------------------------

 SCF Done:  E(RwB97XD) =  -3783.10037728     A.U. after    1 cycles

 The electronic state is 1-A.
 Alpha  occ. eigenvalues -- -483.14471-101.71200 -62.69303 -56.48441 -56.48060
 Alpha  occ. eigenvalues --  -56.48042 -19.22110 -14.49728 -10.45348 -10.37038
 Alpha  occ. eigenvalues --  -10.32387 -10.30318 -10.30105 -10.29791 -10.29574
 Alpha  occ. eigenvalues --  -10.29482 -10.29422 -10.29339 -10.28830 -10.28788
 Alpha  occ. eigenvalues --  -10.28738 -10.28658 -10.28578 -10.28577  -9.59794
 Alpha  occ. eigenvalues --   -8.83402  -7.34465  -7.33557  -7.33523  -6.65612
 Alpha  occ. eigenvalues --   -6.64404  -6.64348  -2.75989  -2.75651  -2.75608
 Alpha  occ. eigenvalues --   -2.74630  -2.74629  -1.13006  -1.05675  -0.99603
 Alpha  occ. eigenvalues --   -0.97124  -0.96448  -0.90822  -0.88307  -0.86498
 Alpha  occ. eigenvalues --   -0.85696  -0.84847  -0.82304  -0.79814  -0.73676
 Alpha  occ. eigenvalues --   -0.71270  -0.71067  -0.70157  -0.68300  -0.64697
 Alpha  occ. eigenvalues --   -0.64015  -0.61444  -0.59610  -0.58523  -0.57558
 Alpha  occ. eigenvalues --   -0.55971  -0.55580  -0.55184  -0.54031  -0.53773
 Alpha  occ. eigenvalues --   -0.52774  -0.51552  -0.50717  -0.50527  -0.49385
 Alpha  occ. eigenvalues --   -0.48801  -0.48438  -0.47463  -0.46260  -0.45900
 Alpha  occ. eigenvalues --   -0.44696  -0.43241  -0.42898  -0.42570  -0.41798
 Alpha  occ. eigenvalues --   -0.40468  -0.38203  -0.38110  -0.34620  -0.34395
 Alpha  occ. eigenvalues --   -0.33480  -0.33295  -0.31886  -0.29452
 Alpha virt. eigenvalues --    0.01542   0.02477   0.04506   0.05254   0.05417
 Alpha virt. eigenvalues --    0.05895   0.08318   0.10510   0.12536   0.13413
 Alpha virt. eigenvalues --    0.13950   0.14593   0.14997   0.15645   0.16638

 Mulliken charges:
               1
     1  C   -0.357061
     2  C    0.274085
     3  O   -0.466881
     4  C    0.200588
     5  C   -0.316842
     6  H    0.176052
     7  H    0.171044
     8  H    0.145050
     9  N   -0.323295
    10  H    0.295325
    11  H    0.285142
    12  Br  -0.037879
    13  Cl  -0.053105
    14  C    0.276980
    15  C   -0.258066
    16  C   -0.143553
    17  C   -0.134212
    18  C   -0.171636
    19  C   -0.207615
    20  H    0.139607
    21  H    0.139842
    22  H    0.142651
    23  H    0.138607
    24  H    0.143551
    25  C    0.155548
    26  C   -0.340576
    27  C   -0.129831
    28  C   -0.146497
    29  C   -0.139238
    30  C   -0.232709
    31  H    0.195324
    32  H    0.145343
    33  H    0.146609
    34  H    0.145268
    35  H    0.142377
 Sum of Mulliken charges =  -0.00000

 Dipole moment (field-independent basis, Debye):
    X=              2.2424    Y=              8.0432    Z=              5.3759  Tot=              9.9308
 Quadrupole moment (field-independent basis, Debye-Ang):
   XX=           -120.4790   YY=           -148.8381   ZZ=           -118.3092
   XY=              7.6430   XZ=              2.2168   YZ=              7.9404

  Exact polarizability: 370.290  21.055 295.710  -3.169  19.858 310.171
 Approx polarizability: 287.041  17.838 244.952  -2.318  15.067 269.524

 ******    1 imaginary frequencies (negative Signs) ******

                      1                      2                      3
                      A                      A                      A
 Frequencies --   -357.6314                25.1328                36.1758
 Red. masses --      5.9386                 5.5261                 4.5564
 Frc consts  --      0.4475                 0.0021                 0.0035
 IR Inten    --    817.9538                 2.6844                 1.2313

                      4                      5                      6
                      A                      A                      A
 Frequencies --     46.6411                57.1439                69.1865
 Red. masses --      5.5207                 5.6893                 4.9431
 Frc consts  --      0.0071                 0.0109                 0.0139
 IR Inten    --      5.4142                 1.7846                 0.0120

                      7                      8                      9
                      A                      A                      A
 Frequencies --     73.5486                96.3028               124.1311
 Red. masses --      5.8905                 2.9650                 4.1549
 Frc consts  --      0.0188                 0.0162                 0.0377
 IR Inten    --      2.7777                 0.7084                 1.3939

                     10                     11                     12
                      A                      A                      A
 Frequencies --    144.6697               171.5400               197.6050
 Red. masses --      7.0817                 2.7654                 4.4330
 Frc consts  --      0.0873                 0.0479                 0.1020
 IR Inten    --      3.8426                 0.8708                 3.7099

                     13                     14                     15
                      A                      A                      A
 Frequencies --    201.2601               211.2769               218.5573
 Red. masses --      2.0403                 7.6752                 2.9389
 Frc consts  --      0.0487                 0.2019                 0.0827
 IR Inten    --     12.5136                 2.8202                 2.5746

                     16                     17                     18
                      A                      A                      A
 Frequencies --    243.2377               251.3761               269.5935
 Red. masses --      3.8211                 5.4663                 3.7720
 Frc consts  --      0.1332                 0.2035                 0.1615
 IR Inten    --      8.9584                 1.3508                28.9672

                     19                     20                     21
                      A                      A                      A
 Frequencies --    319.9660               348.1933               377.2893
 Red. masses --      8.1719                 7.2273                 5.4542
 Frc consts  --      0.4929                 0.5163                 0.4574
 IR Inten    --     16.8911                10.1492                19.4379

                     22                     23                     24
                      A                      A                      A
 Frequencies --    412.4533               420.4336               423.3233
 Red. masses --      6.1874                 2.9620                 2.8813
 Frc consts  --      0.6202                 0.3085                 0.3042
 IR Inten    --     34.5277                 1.9894                 0.5582

                     25                     26                     27
                      A                      A                      A
 Frequencies --    522.1730               550.9382               558.0931
 Red. masses --      3.9089                 5.7838                 4.7925
 Frc consts  --      0.6280                 1.0344                 0.8795
 IR Inten    --      3.0450                38.2568                57.7389

                     28                     29                     30
                      A                      A                      A
 Frequencies --    625.7865               635.3651               640.7092
 Red. masses --      4.9111                 6.1637                 5.8465
 Frc consts  --      1.1331                 1.4660                 1.4141
 IR Inten    --     99.5896                 0.9550                 6.3801

                     31                     32                     33
                      A                      A                      A
 Frequencies --    642.5369               691.8710               725.4073
 Red. masses --      1.7650                 4.3873                 1.6078
 Frc consts  --      0.4293                 1.2374                 0.4985
 IR Inten    --      9.5450                78.2483                83.2708

                     34                     35                     36
                      A                      A                      A
 Frequencies --    731.7307               764.6790               780.7485
 Red. masses --      1.6187                 2.6379                 3.5339
 Frc consts  --      0.5106                 0.9088                 1.2692
 IR Inten    --    100.1008                43.3507                96.8999

                     37                     38                     39
                      A                      A                      A
 Frequencies --    786.8663               813.9561               845.0541
 Red. masses --      4.7650                 3.8306                 3.7846
 Frc consts  --      1.7383                 1.4953                 1.5923
 IR Inten    --    151.6810                27.0941               172.2283

                     40                     41                     42
                      A                      A                      A
 Frequencies --    875.3251               884.1876               897.1190
 Red. masses --      1.2498                 1.2980                 3.7245
 Frc consts  --      0.5642                 0.5979                 1.7661
 IR Inten    --      0.0428                 1.4067                11.0058

                     43                     44                     45
                      A                      A                      A
 Frequencies --    957.8283               966.4504              1003.3224
 Red. masses --      1.4968                 1.5190                 1.1411
 Frc consts  --      0.8091                 0.8359                 0.6768
 IR Inten    --     21.3988                 9.9750                24.8494

                     46                     47                     48
                      A                      A                      A
 Frequencies --   1009.9631              1016.3586              1027.0200
 Red. masses --      1.3803                 1.4507                 3.7464
 Frc consts  --      0.8295                 0.8829                 2.3282
 IR Inten    --      0.3324                 8.5870                 3.9063

                     49                     50                     51
                      A                      A                      A
 Frequencies --   1027.3446              1027.8234              1032.2993
 Red. masses --      3.2369                 1.6300                 1.3372
 Frc consts  --      2.0129                 1.0146                 0.8396
 IR Inten    --      1.3716                 1.0046                 5.1844

                     52                     53                     54
                      A                      A                      A
 Frequencies --   1042.4620              1057.7558              1062.6738
 Red. masses --      1.1515                 2.4888                 2.1526
 Frc consts  --      0.7373                 1.6407                 1.4322
 IR Inten    --     69.0571                 8.0170                13.9220

                     55                     56                     57
                      A                      A                      A
 Frequencies --   1089.3483              1110.9046              1112.6626
 Red. masses --      4.9153                 1.5672                 1.5667
 Frc consts  --      3.4366                 1.1395                 1.1428
 IR Inten    --     44.9830                20.7712                13.2460

                     58                     59                     60
                      A                      A                      A
 Frequencies --   1128.3443              1182.2826              1184.5950
 Red. masses --      3.1448                 1.1326                 1.1396
 Frc consts  --      2.3590                 0.9328                 0.9422
 IR Inten    --     57.2546                 0.0683                 0.2918

                     61                     62                     63
                      A                      A                      A
 Frequencies --   1206.9223              1209.9171              1219.7211
 Red. masses --      1.1218                 1.1255                 1.3979
 Frc consts  --      0.9628                 0.9708                 1.2253
 IR Inten    --      3.0361                 0.1267                27.1000

                     64                     65                     66
                      A                      A                      A
 Frequencies --   1242.1648              1309.0465              1319.6414
 Red. masses --      4.0658                 4.5733                 4.1566
 Frc consts  --      3.6962                 4.6173                 4.2648
 IR Inten    --    140.0546                 8.0713               136.1018

                     67                     68                     69
                      A                      A                      A
 Frequencies --   1338.6901              1343.9628              1358.4519
 Red. masses --      4.7148                 1.4720                 1.4680
 Frc consts  --      4.9782                 1.5665                 1.5961
 IR Inten    --   1113.8668               162.6850                21.5881

                     70                     71                     72
                      A                      A                      A
 Frequencies --   1359.4140              1408.4965              1455.2820
 Red. masses --      1.4530                 5.3499                 1.2466
 Frc consts  --      1.5821                 6.2532                 1.5555
 IR Inten    --     36.4474               366.2193                21.2254

                     73                     74                     75
                      A                      A                      A
 Frequencies --   1487.3376              1488.7234              1494.7221
 Red. masses --      2.1893                 2.1962                 1.0358
 Frc consts  --      2.8535                 2.8679                 1.3635
 IR Inten    --      4.5827                14.5784                12.0819

                     76                     77                     78
                      A                      A                      A
 Frequencies --   1501.1421              1541.6157              1545.5386
 Red. masses --      1.0560                 2.3355                 2.3982
 Frc consts  --      1.4020                 3.2702                 3.3751
 IR Inten    --     52.7042                 4.8740                39.5126

                     79                     80                     81
                      A                      A                      A
 Frequencies --   1634.6308              1643.2384              1647.7870
 Red. masses --      1.0962                 9.2691                 5.8489
 Frc consts  --      1.7257                14.7465                 9.3567
 IR Inten    --     80.6975               461.2688                21.4359

                     82                     83                     84
                      A                      A                      A
 Frequencies --   1651.8521              1673.4282              1675.0336
 Red. masses --      6.5531                 6.0710                 5.8792
 Frc consts  --     10.5352                10.0167                 9.7189
 IR Inten    --    130.4382                53.5299                 0.2652

                     85                     86                     87
                      A                      A                      A
 Frequencies --   3074.3741              3154.7868              3169.4096
 Red. masses --      1.0326                 1.1046                 1.1056
 Frc consts  --      5.7505                 6.4772                 6.5436
 IR Inten    --     23.1086                 8.6206                10.2398

                     88                     89                     90
                      A                      A                      A
 Frequencies --   3190.0056              3194.8155              3196.6295
 Red. masses --      1.0862                 1.0860                 1.0882
 Frc consts  --      6.5124                 6.5310                 6.5516
 IR Inten    --      4.2988                 3.4331                 0.8685

                     91                     92                     93
                      A                      A                      A
 Frequencies --   3198.7773              3205.9780              3206.6504
 Red. masses --      1.0879                 1.0928                 1.0914
 Frc consts  --      6.5586                 6.6176                 6.6119
 IR Inten    --      0.7577                27.4835                 9.1784

                     94                     95                     96
                      A                      A                      A
 Frequencies --   3214.8031              3215.8993              3224.1529
 Red. masses --      1.0952                 1.0951                 1.0973
 Frc consts  --      6.6689                 6.6726                 6.7207
 IR Inten    --     34.4051                41.6821                20.2912

                     97                     98                     99
                      A                      A                      A
 Frequencies --   3224.2374              3504.5640              3592.7356
 Red. masses --      1.0979                 1.0517                 1.0962
 Frc consts  --      6.7247                 7.6106                 8.3368
 IR Inten    --     11.0012                70.3516               102.4765

 - Thermochemistry -
 -------------------
 Temperature   298.150 Kelvin.  Pressure   1.00000 Atm.
 Atom     1 has atomic number  6 and mass  12.00000

 Molecular mass:   351.00255 amu.
 Principal axes and moments of inertia in atomic units:
                           1         2         3
     Eigenvalues --  4561.887498971.86172**********
           X            0.99921   0.03972  -0.00007
           Y           -0.03967   0.99797   0.04984
           Z            0.00205  -0.04980   0.99876
 This molecule is an asymmetric top.
 Rotational symmetry number  1.
 Warning -- assumption of classical behavior for rotation
           may cause significant error
 Rotational temperatures (Kelvin)      0.01899     0.00965     0.00799
 Rotational constants (GHZ):           0.39561     0.20116     0.16652
    1 imaginary frequencies ignored.
 Zero-point vibrational energy     718211.6 (Joules/Mol)
                                  171.65669 (Kcal/Mol)
 Warning -- explicit consideration of  26 degrees of freedom as
           vibrations may cause significant error
 Vibrational temperatures:     36.16    52.05    67.11    82.22    99.54
          (Kelvin)            105.82   138.56   178.60   208.15   246.81
                              284.31   289.57   303.98   314.46   349.96
                              361.67   387.88   460.36   500.97   542.84
                              593.43   604.91   609.07   751.29   792.68
                              802.97   900.37   914.15   921.84   924.47
                              995.45  1043.70  1052.80  1100.20  1123.32
                             1132.13  1171.10  1215.84  1259.40  1272.15
                             1290.75  1378.10  1390.51  1443.56  1453.11
                             1462.31  1477.65  1478.12  1478.81  1485.25
                             1499.87  1521.87  1528.95  1567.33  1598.34
                             1600.87  1623.44  1701.04  1704.37  1736.49
                             1740.80  1754.91  1787.20  1883.43  1898.67
                             1926.08  1933.66  1954.51  1955.89  2026.51
                             2093.83  2139.95  2141.94  2150.57  2159.81
                             2218.04  2223.69  2351.87  2364.25  2370.80
                             2376.65  2407.69  2410.00  4423.34  4539.03
                             4560.07  4589.71  4596.63  4599.24  4602.33
                             4612.69  4613.65  4625.38  4626.96  4638.84
                             4638.96  5042.29  5169.15

 Zero-point correction=                           0.273552 (Hartree/Particle)
 Thermal correction to Energy=                    0.292431
 Thermal correction to Enthalpy=                  0.293376
 Thermal correction to Gibbs Free Energy=         0.223998
 Sum of electronic and zero-point Energies=          -3782.826825
 Sum of electronic and thermal Energies=             -3782.807946
 Sum of electronic and thermal Enthalpies=           -3782.807002
 Sum of electronic and thermal Free Energies=        -3782.876380

                     E (Thermal)             CV                S
                      KCal/Mol        Cal/Mol-Kelvin    Cal/Mol-Kelvin
 Total                  183.503             69.854            146.018
 Electronic               0.000              0.000              0.000
 Translational            0.889              2.981             43.461
 Rotational               0.889              2.981             34.449
 Vibrational            181.726             63.893             68.108
 Vibration     1          0.593              1.985              6.181
 Vibration     2          0.594              1.982              5.458
 Vibration     3          0.595              1.979              4.955
 Vibration     4          0.596              1.975              4.553
 Vibration     5          0.598              1.969              4.176
 Vibration     6          0.599              1.966              4.056
 Vibration     7          0.603              1.952              3.528
 Vibration     8          0.610              1.929              3.035
 Vibration     9          0.616              1.908              2.741
 Vibration    10          0.626              1.878              2.419
 Vibration    11          0.637              1.843              2.155
 Vibration    12          0.638              1.838              2.122
 Vibration    13          0.643              1.824              2.033
 Vibration    14          0.646              1.813              1.971
 Vibration    15          0.659              1.774              1.779
 Vibration    16          0.663              1.760              1.721
 Vibration    17          0.674              1.729              1.599
 Vibration    18          0.706              1.635              1.310
 Vibration    19          0.726              1.579              1.174
 Vibration    20          0.748              1.519              1.050
 Vibration    21          0.776              1.443              0.918
 Vibration    22          0.783              1.426              0.890
 Vibration    23          0.785              1.420              0.881
 Vibration    24          0.877              1.201              0.605
 Vibration    25          0.906              1.138              0.542
 Vibration    26          0.914              1.122              0.528

 Optimization completed.
    -- Stationary point found.
 Normal termination of Gaussian 16 at Mon Feb 22 21:42:19 2021.
