 Gaussian 16, Revision A.03,
 Gaussian 16:  ES64L-G16RevA.03 25-Dec-2016

 ----------------------------------------------------------------------
 # wB97XD def2tzvp, opt=(ts, noeigen, calcfc, maxcycles=70, maxstep=8),
  freq=noraman, scrf=(iefpcm, solvent=water)
 ----------------------------------------------------------------------

 ------------------------
 1_iteration/TS-719-1.out
 ------------------------
 Symbolic Z-matrix:
 Charge =  0 Multiplicity = 1

 SCF Done:  E(RwB97XD) =  -3646.75638115     A.U. after   15 cycles
 SCF Done:  E(RwB97XD) =  -3646.75797919     A.U. after   12 cycles
 SCF Done:  E(RwB97XD) =  -3646.75899751     A.U. after   12 cycles
 SCF Done:  E(RwB97XD) =  -3646.75922072     A.U. after   12 cycles
 SCF Done:  E(RwB97XD) =  -3646.75923367     A.U. after   11 cycles
 SCF Done:  E(RwB97XD) =  -3646.75924353     A.U. after   10 cycles
 SCF Done:  E(RwB97XD) =  -3646.75897511     A.U. after   12 cycles
 SCF Done:  E(RwB97XD) =  -3646.75923690     A.U. after   12 cycles
 SCF Done:  E(RwB97XD) =  -3646.75925469     A.U. after   11 cycles
 SCF Done:  E(RwB97XD) =  -3646.75925513     A.U. after    9 cycles
 SCF Done:  E(RwB97XD) =  -3646.75925287     A.U. after   12 cycles
 SCF Done:  E(RwB97XD) =  -3646.75925923     A.U. after   12 cycles
 SCF Done:  E(RwB97XD) =  -3646.75926561     A.U. after   10 cycles
 SCF Done:  E(RwB97XD) =  -3646.75925876     A.U. after   10 cycles
 SCF Done:  E(RwB97XD) =  -3646.75926713     A.U. after   10 cycles
 SCF Done:  E(RwB97XD) =  -3646.75926707     A.U. after    8 cycles
 SCF Done:  E(RwB97XD) =  -3646.75926706     A.U. after    7 cycles
 Optimization completed.
    -- Stationary point found.
 Normal termination of Gaussian 16 at Mon Feb 22 11:43:05 2021.

 ---------------------------------------------------------------------
 #N Geom=AllCheck Guess=TCheck SCRF=Check GenChk RwB97XD/def2TZVP Freq
 ---------------------------------------------------------------------

 Structure from the checkpoint file:  "/beegfs/scratch/user/q/tla25/Gau-29183.chk"
 ------------------------
 1_iteration/TS-719-1.out
 ------------------------
 Charge =  0 Multiplicity = 1

                         Standard orientation:
 ---------------------------------------------------------------------
 Center     Atomic      Atomic             Coordinates (Angstroms)
 Number     Number       Type             X           Y           Z
 ---------------------------------------------------------------------
      1          6           0       -0.718760   -0.195099   -0.038447
      2          6           0        0.604815    0.370461   -0.258370
      3          8           0        0.781862    1.488154   -0.742464
      4          6           0       -1.908413    0.497788   -0.207312
      5          6           0       -1.589567    1.654141    2.343286
      6          1           0       -1.527694    2.687477    2.010792
      7          1           0       -1.821560    1.631823    3.407469
      8          1           0       -0.626008    1.167984    2.179733
      9          7           0       -2.595681    0.948472    1.560668
     10          1           0       -2.819905    0.049729    1.972187
     11          1           0       -3.457967    1.473481    1.469913
     12         35           0       -3.471466   -0.565918   -0.751828
     13          6           0       -1.969787    1.851337   -0.856805
     14          1           0       -1.677068    1.765344   -1.902446
     15          1           0       -2.982795    2.245465   -0.808544
     16          1           0       -1.277793    2.536400   -0.376570
     17         17           0       -0.824406   -1.799564    0.686795
     18          7           0        1.663148   -0.436131    0.091879
     19          6           0        3.035408   -0.202863   -0.038170
     20          6           0        3.596761    0.992006   -0.491266
     21          6           0        4.977310    1.115631   -0.575073
     22          6           0        5.818442    0.075238   -0.214842
     23          6           0        5.259480   -1.112581    0.238804
     24          6           0        3.886919   -1.251775    0.325734
     25          1           0        1.422777   -1.335472    0.472819
     26          1           0        2.954653    1.809529   -0.772519
     27          1           0        5.395758    2.049859   -0.929370
     28          1           0        6.892689    0.185638   -0.284766
     29          1           0        5.895579   -1.940223    0.526855
     30          1           0        3.462743   -2.184635    0.679556
 ---------------------------------------------------------------------

 SCF Done:  E(RwB97XD) =  -3646.75926706     A.U. after    1 cycles

 The electronic state is 1-A.
 Alpha  occ. eigenvalues -- -483.13017-101.69883 -62.67876 -56.46986 -56.46643
 Alpha  occ. eigenvalues --  -56.46625 -19.20898 -14.48941 -14.46446 -10.40548
 Alpha  occ. eigenvalues --  -10.39678 -10.33903 -10.32074 -10.31912 -10.29059
 Alpha  occ. eigenvalues --  -10.28923 -10.28897 -10.28868 -10.28269 -10.28207
 Alpha  occ. eigenvalues --   -9.58432  -8.81989  -7.33048  -7.32236  -7.32202
 Alpha  occ. eigenvalues --   -6.64121  -6.63033  -6.62978  -2.74507  -2.74208
 Alpha  occ. eigenvalues --   -2.74165  -2.73284  -2.73284  -1.14193  -1.04567
 Alpha  occ. eigenvalues --   -1.04320  -0.98006  -0.95346  -0.92023  -0.85516
 Alpha  occ. eigenvalues --   -0.85127  -0.84491  -0.79653  -0.79132  -0.74128
 Alpha  occ. eigenvalues --   -0.71548  -0.67901  -0.64605  -0.63555  -0.62211
 Alpha  occ. eigenvalues --   -0.58800  -0.58002  -0.57642  -0.55947  -0.54526
 Alpha  occ. eigenvalues --   -0.53636  -0.52437  -0.52223  -0.51563  -0.50263
 Alpha  occ. eigenvalues --   -0.50053  -0.48527  -0.47358  -0.46942  -0.45798
 Alpha  occ. eigenvalues --   -0.44758  -0.44686  -0.42867  -0.41813  -0.41404
 Alpha  occ. eigenvalues --   -0.39749  -0.37325  -0.36920  -0.33967  -0.33743
 Alpha  occ. eigenvalues --   -0.30529  -0.27625
 Alpha virt. eigenvalues --    0.02796   0.04349   0.05382   0.08113   0.10175
 Alpha virt. eigenvalues --    0.12002   0.12796   0.13992   0.14332   0.15229
 Alpha virt. eigenvalues --    0.15297   0.16895   0.16904   0.17911   0.18558

 Mulliken charges:
               1
     1  C   -0.230453
     2  C    0.426687
     3  O   -0.531988
     4  C    0.102188
     5  C   -0.300744
     6  H    0.162064
     7  H    0.162055
     8  H    0.156219
     9  N   -0.338681
    10  H    0.286360
    11  H    0.294082
    12  Br  -0.113857
    13  C   -0.348181
    14  H    0.152708
    15  H    0.150447
    16  H    0.152776
    17  Cl  -0.165235
    18  N   -0.265818
    19  C    0.303721
    20  C   -0.294169
    21  C   -0.113725
    22  C   -0.195918
    23  C   -0.100531
    24  C   -0.308690
    25  H    0.230982
    26  H    0.161507
    27  H    0.141108
    28  H    0.140616
    29  H    0.143380
    30  H    0.141090
 Sum of Mulliken charges =  -0.00000

 Dipole moment (field-independent basis, Debye):
    X=             -4.7677    Y=              1.6041    Z=              5.8198  Tot=              7.6925
 Quadrupole moment (field-independent basis, Debye-Ang):
   XX=           -101.8396   YY=           -109.5641   ZZ=           -109.6991
   XY=            -15.2189   XZ=             -9.6362   YZ=              3.1311

  Exact polarizability: 361.726  -3.554 248.172  -4.416 -15.416 192.658
 Approx polarizability: 256.292   0.655 216.076  -2.930 -16.212 167.555

 ******    1 imaginary frequencies (negative Signs) ******

                      1                      2                      3
                      A                      A                      A
 Frequencies --   -366.4818                19.3658                27.9094
 Red. masses --      5.6371                 3.9909                 6.5096
 Frc consts  --      0.4461                 0.0009                 0.0030
 IR Inten    --    824.6396                 1.2215                 2.5331

                      4                      5                      6
                      A                      A                      A
 Frequencies --     54.2891                72.2536                84.3432
 Red. masses --      6.6135                 7.5635                 2.4293
 Frc consts  --      0.0115                 0.0233                 0.0102
 IR Inten    --      9.4946                 1.6869                 3.6182

                      7                      8                      9
                      A                      A                      A
 Frequencies --     87.8143               131.8771               152.3526
 Red. masses --      5.1784                 2.6882                 9.4086
 Frc consts  --      0.0235                 0.0275                 0.1287
 IR Inten    --      0.7586                 8.6117                12.6407

                     10                     11                     12
                      A                      A                      A
 Frequencies --    185.4442               200.8575               223.1822
 Red. masses --      1.5159                 4.0086                 5.2157
 Frc consts  --      0.0307                 0.0953                 0.1531
 IR Inten    --      2.3666                 2.0731                12.3090

                     13                     14                     15
                      A                      A                      A
 Frequencies --    244.1712               247.9695               277.3240
 Red. masses --      4.2863                 4.8708                 1.7501
 Frc consts  --      0.1506                 0.1765                 0.0793
 IR Inten    --      1.0834                12.7339                 4.5702

                     16                     17                     18
                      A                      A                      A
 Frequencies --    285.8554               315.9812               331.2769
 Red. masses --      3.3719                 1.9863                 3.8249
 Frc consts  --      0.1623                 0.1168                 0.2473
 IR Inten    --     18.7291                 4.1199                 2.1488

                     19                     20                     21
                      A                      A                      A
 Frequencies --    395.9915               423.0583               431.4015
 Red. masses --      3.8595                 3.0044                 5.5092
 Frc consts  --      0.3566                 0.3168                 0.6041
 IR Inten    --     20.3157                 0.0999                 0.9208

                     22                     23                     24
                      A                      A                      A
 Frequencies --    462.5170               497.2935               527.7921
 Red. masses --      5.0730                 6.6457                 2.7323
 Frc consts  --      0.6394                 0.9683                 0.4484
 IR Inten    --     32.8451                69.3772                37.8118

                     25                     26                     27
                      A                      A                      A
 Frequencies --    557.1961               565.8657               636.0289
 Red. masses --      1.3005                 3.4241                 6.3623
 Frc consts  --      0.2379                 0.6460                 1.5164
 IR Inten    --     54.4017               146.1068                 3.5033

                     28                     29                     30
                      A                      A                      A
 Frequencies --    647.5949               695.6061               719.0837
 Red. masses --      2.2027                 2.2204                 1.8894
 Frc consts  --      0.5443                 0.6330                 0.5756
 IR Inten    --      7.9066               142.9718                64.1033

                     31                     32                     33
                      A                      A                      A
 Frequencies --    764.1766               784.3440               844.1644
 Red. masses --      8.8923                 1.8169                 5.2067
 Frc consts  --      3.0595                 0.6585                 2.1861
 IR Inten    --     23.6674                96.8696                29.4590

                     34                     35                     36
                      A                      A                      A
 Frequencies --    862.6691               872.5742               933.8648
 Red. masses --      1.2612                 5.8217                 1.4645
 Frc consts  --      0.5530                 2.6116                 0.7525
 IR Inten    --      0.1263                15.2091                13.7914

                     37                     38                     39
                      A                      A                      A
 Frequencies --   1000.9878              1002.0098              1011.1624
 Red. masses --      2.0374                 1.3461                 1.5287
 Frc consts  --      1.2028                 0.7963                 0.9209
 IR Inten    --     85.5362                 0.0296                70.9996

                     40                     41                     42
                      A                      A                      A
 Frequencies --   1018.4190              1020.2248              1038.7028
 Red. masses --      1.2974                 5.3270                 1.2018
 Frc consts  --      0.7928                 3.2668                 0.7640
 IR Inten    --      0.6200                12.9999                35.4477

                     43                     44                     45
                      A                      A                      A
 Frequencies --   1057.6086              1064.4847              1073.4944
 Red. masses --      2.2850                 1.5575                 1.7576
 Frc consts  --      1.5059                 1.0398                 1.1934
 IR Inten    --     18.8487               127.0136                34.8906

                     46                     47                     48
                      A                      A                      A
 Frequencies --   1082.9269              1115.6635              1134.5008
 Red. masses --      3.9120                 1.6394                 2.8295
 Frc consts  --      2.7030                 1.2023                 2.1457
 IR Inten    --      5.3009                24.5094                29.2062

                     49                     50                     51
                      A                      A                      A
 Frequencies --   1181.9289              1207.1096              1218.3224
 Red. masses --      1.1211                 1.1472                 1.3938
 Frc consts  --      0.9227                 0.9849                 1.2189
 IR Inten    --      3.5622                40.3806                27.1414

                     52                     53                     54
                      A                      A                      A
 Frequencies --   1252.9657              1278.5497              1342.1093
 Red. masses --      2.9956                 3.7713                 1.3972
 Frc consts  --      2.7708                 3.6322                 1.4828
 IR Inten    --    907.5019                39.0789                86.0594

                     55                     56                     57
                      A                      A                      A
 Frequencies --   1344.6987              1359.0652              1418.7110
 Red. masses --      3.1573                 1.6410                 1.4113
 Frc consts  --      3.3637                 1.7859                 1.6736
 IR Inten    --    615.4056                 2.2388               302.4563

                     58                     59                     60
                      A                      A                      A
 Frequencies --   1438.9102              1461.5620              1470.2781
 Red. masses --      2.2242                 1.1406                 1.0919
 Frc consts  --      2.7133                 1.4356                 1.3907
 IR Inten    --    576.6918                48.4467                 6.4553

                     61                     62                     63
                      A                      A                      A
 Frequencies --   1480.3294              1488.7295              1494.4602
 Red. masses --      2.1183                 1.2241                 1.0833
 Frc consts  --      2.7350                 1.5985                 1.4256
 IR Inten    --    336.2136               139.6663                85.4859

                     64                     65                     66
                      A                      A                      A
 Frequencies --   1507.7589              1546.1475              1569.1968
 Red. masses --      1.0333                 2.4709                 2.0253
 Frc consts  --      1.3840                 3.4803                 2.9383
 IR Inten    --     15.9360               173.2990               841.7684

                     67                     68                     69
                      A                      A                      A
 Frequencies --   1646.3902              1659.7201              1669.6048
 Red. masses --      1.0888                 5.5894                 4.8786
 Frc consts  --      1.7389                 9.0716                 8.0126
 IR Inten    --     63.6917               113.7578                86.3586

                     70                     71                     72
                      A                      A                      A
 Frequencies --   1687.4428              3066.0705              3085.2270
 Red. masses --      7.0648                 1.0345                 1.0363
 Frc consts  --     11.8525                 5.7299                 5.8117
 IR Inten    --    449.6731                31.3811                12.2230

                     73                     74                     75
                      A                      A                      A
 Frequencies --   3140.4261              3160.8932              3171.9268
 Red. masses --      1.1033                 1.1031                 1.1051
 Frc consts  --      6.4107                 6.4937                 6.5511
 IR Inten    --     10.1702                13.5250                13.3755

                     76                     77                     78
                      A                      A                      A
 Frequencies --   3186.2887              3188.7103              3196.5774
 Red. masses --      1.0885                 1.1019                 1.0882
 Frc consts  --      6.5107                 6.6010                 6.5511
 IR Inten    --     13.5279                 3.3235                 2.7658

                     79                     80                     81
                      A                      A                      A
 Frequencies --   3206.8376              3221.6973              3272.1960
 Red. masses --      1.0930                 1.0980                 1.0926
 Frc consts  --      6.6224                 6.7148                 6.8929
 IR Inten    --     29.3968                23.7575                 6.5411

                     82                     83                     84
                      A                      A                      A
 Frequencies --   3525.8938              3608.7064              3637.3602
 Red. masses --      1.0506                 1.0967                 1.0764
 Frc consts  --      7.6956                 8.4146                 8.3905
 IR Inten    --     64.2847                55.9778               101.9794

 - Thermochemistry -
 -------------------
 Temperature   298.150 Kelvin.  Pressure   1.00000 Atm.
 Atom     1 has atomic number  6 and mass  12.00000

 Molecular mass:   303.99780 amu.
 Principal axes and moments of inertia in atomic units:
                           1         2         3
     Eigenvalues --  2126.43971********************
           X            0.99973  -0.01771  -0.01480
           Y            0.01791   0.99975   0.01336
           Z            0.01456  -0.01362   0.99980
 This molecule is an asymmetric top.
 Rotational symmetry number  1.
 Warning -- assumption of classical behavior for rotation
           may cause significant error
 Rotational temperatures (Kelvin)      0.04073     0.00776     0.00741
 Rotational constants (GHZ):           0.84871     0.16178     0.15430
    1 imaginary frequencies ignored.
 Zero-point vibrational energy     625506.2 (Joules/Mol)
                                  149.49958 (Kcal/Mol)
 Warning -- explicit consideration of  25 degrees of freedom as
           vibrations may cause significant error
 Vibrational temperatures:     27.86    40.16    78.11   103.96   121.35
          (Kelvin)            126.35   189.74   219.20   266.81   288.99
                              321.11   351.31   356.77   399.01   411.28
                              454.63   476.63   569.74   608.69   620.69
                              665.46   715.49   759.38   801.68   814.15
                              915.10   931.74  1000.82  1034.60  1099.48
                             1128.50  1214.56  1241.19  1255.44  1343.62
                             1440.20  1441.67  1454.84  1465.28  1467.88
                             1494.46  1521.66  1531.56  1544.52  1558.09
                             1605.19  1632.29  1700.53  1736.76  1752.89
                             1802.74  1839.55  1931.00  1934.72  1955.39
                             2041.21  2070.27  2102.86  2115.40  2129.86
                             2141.95  2150.19  2169.33  2224.56  2257.72
                             2368.79  2387.97  2402.19  2427.85  4411.39
                             4438.95  4518.37  4547.82  4563.70  4584.36
                             4587.84  4599.16  4613.92  4635.30  4707.96
                             5072.97  5192.12  5233.35

 Zero-point correction=                           0.238243 (Hartree/Particle)
 Thermal correction to Energy=                    0.255000
 Thermal correction to Enthalpy=                  0.255945
 Thermal correction to Gibbs Free Energy=         0.191088
 Sum of electronic and zero-point Energies=          -3646.521024
 Sum of electronic and thermal Energies=             -3646.504267
 Sum of electronic and thermal Enthalpies=           -3646.503322
 Sum of electronic and thermal Free Energies=        -3646.568179

                     E (Thermal)             CV                S
                      KCal/Mol        Cal/Mol-Kelvin    Cal/Mol-Kelvin
 Total                  160.015             60.862            136.502
 Electronic               0.000              0.000              0.000
 Translational            0.889              2.981             43.032
 Rotational               0.889              2.981             33.983
 Vibrational            158.238             54.901             59.486
 Vibration     1          0.593              1.986              6.698
 Vibration     2          0.593              1.984              5.973
 Vibration     3          0.596              1.976              4.655
 Vibration     4          0.598              1.967              4.091
 Vibration     5          0.601              1.960              3.787
 Vibration     6          0.601              1.958              3.708
 Vibration     7          0.612              1.921              2.918
 Vibration     8          0.619              1.900              2.643
 Vibration     9          0.632              1.860              2.273
 Vibration    10          0.638              1.839              2.125
 Vibration    11          0.649              1.806              1.933
 Vibration    12          0.659              1.772              1.772
 Vibration    13          0.662              1.766              1.745
 Vibration    14          0.678              1.715              1.550
 Vibration    15          0.684              1.700              1.498
 Vibration    16          0.703              1.643              1.331
 Vibration    17          0.714              1.613              1.254
 Vibration    18          0.763              1.479              0.977
 Vibration    19          0.785              1.420              0.882
 Vibration    20          0.792              1.402              0.854
 Vibration    21          0.820              1.333              0.759
 Vibration    22          0.853              1.256              0.665
 Vibration    23          0.883              1.188              0.592
 Vibration    24          0.913              1.124              0.529
 Vibration    25          0.922              1.105              0.512

 Optimization completed.
    -- Stationary point found.
 Normal termination of Gaussian 16 at Mon Feb 22 12:44:35 2021.
