 Gaussian 16, Revision A.03,
 Gaussian 16:  ES64L-G16RevA.03 25-Dec-2016

 ----------------------------------------------------------------------
 # wB97XD def2tzvp, opt=(ts, noeigen, calcfc, maxcycles=70, maxstep=8),
  freq=noraman, scrf=(iefpcm, solvent=water)
 ----------------------------------------------------------------------

 ------------------------
 1_iteration/TS-738-1.out
 ------------------------
 Symbolic Z-matrix:
 Charge =  0 Multiplicity = 1

 SCF Done:  E(RwB97XD) =  -5513.62996433     A.U. after   15 cycles
 SCF Done:  E(RwB97XD) =  -5513.63038445     A.U. after   13 cycles
 SCF Done:  E(RwB97XD) =  -5513.63064804     A.U. after   12 cycles
 SCF Done:  E(RwB97XD) =  -5513.63093632     A.U. after   12 cycles
 SCF Done:  E(RwB97XD) =  -5513.63120572     A.U. after   12 cycles
 SCF Done:  E(RwB97XD) =  -5513.63127750     A.U. after   12 cycles
 SCF Done:  E(RwB97XD) =  -5513.63136491     A.U. after   12 cycles
 SCF Done:  E(RwB97XD) =  -5513.63119975     A.U. after   13 cycles
 SCF Done:  E(RwB97XD) =  -5513.63136062     A.U. after   12 cycles
 SCF Done:  E(RwB97XD) =  -5513.63133997     A.U. after   12 cycles
 SCF Done:  E(RwB97XD) =  -5513.63139829     A.U. after   12 cycles
 SCF Done:  E(RwB97XD) =  -5513.63140350     A.U. after   10 cycles
 SCF Done:  E(RwB97XD) =  -5513.63139109     A.U. after   10 cycles
 SCF Done:  E(RwB97XD) =  -5513.63140503     A.U. after   11 cycles
 SCF Done:  E(RwB97XD) =  -5513.63140480     A.U. after    8 cycles
 SCF Done:  E(RwB97XD) =  -5513.63140451     A.U. after    7 cycles
 SCF Done:  E(RwB97XD) =  -5513.63140468     A.U. after    7 cycles
 Optimization completed.
    -- Stationary point found.
 Normal termination of Gaussian 16 at Mon Feb 22 05:42:03 2021.

 ---------------------------------------------------------------------
 #N Geom=AllCheck Guess=TCheck SCRF=Check GenChk RwB97XD/def2TZVP Freq
 ---------------------------------------------------------------------

 Structure from the checkpoint file:  "/beegfs/scratch/user/q/tla25/Gau-3324.chk"
 ------------------------
 1_iteration/TS-738-1.out
 ------------------------
 Charge =  0 Multiplicity = 1

                         Standard orientation:
 ---------------------------------------------------------------------
 Center     Atomic      Atomic             Coordinates (Angstroms)
 Number     Number       Type             X           Y           Z
 ---------------------------------------------------------------------
      1          6           0        0.874266   -0.897105   -0.397949
      2          6           0        2.284952   -0.600812   -0.331871
      3          8           0        3.113590   -1.343229   -0.873624
      4          6           0       -0.138700   -0.039730    0.033144
      5          6           0       -0.228683   -1.364896    2.437882
      6          1           0       -0.161480   -1.328651    3.523534
      7          1           0       -1.086459   -1.965288    2.143767
      8          1           0        0.681060   -1.805006    2.029493
      9          7           0       -0.369164   -0.022030    1.884325
     10          1           0       -1.273405    0.390618    2.091223
     11          1           0        0.344949    0.599471    2.248621
     12         35           0       -1.949128   -0.542215   -0.471228
     13         35           0       -0.000921    1.905732   -0.217011
     14          6           0        0.520443   -2.265019   -0.946103
     15          1           0       -0.215259   -2.783581   -0.330672
     16          1           0        0.123460   -2.219862   -1.964553
     17          1           0        1.425269   -2.867526   -0.973186
     18          6           0        2.855493    0.585503    0.424656
     19          1           0        2.253229    0.933386    1.259905
     20          1           0        3.834835    0.288954    0.796673
     21          1           0        2.994344    1.426792   -0.256275
 ---------------------------------------------------------------------

 SCF Done:  E(RwB97XD) =  -5513.63140468     A.U. after    1 cycles

 The electronic state is 1-A.
 Alpha  occ. eigenvalues -- -483.14249-483.13890 -62.69094 -62.68742 -56.48226
 Alpha  occ. eigenvalues --  -56.47869 -56.47852 -56.47833 -56.47497 -56.47485
 Alpha  occ. eigenvalues --  -19.20444 -14.51179 -10.44548 -10.35659 -10.32532
 Alpha  occ. eigenvalues --  -10.27445 -10.27205 -10.26819  -8.83202  -8.82851
 Alpha  occ. eigenvalues --   -6.65399  -6.65034  -6.64211  -6.64155  -6.63858
 Alpha  occ. eigenvalues --   -6.63819  -2.75776  -2.75446  -2.75410  -2.75403
 Alpha  occ. eigenvalues --   -2.75084  -2.75053  -2.74441  -2.74441  -2.74102
 Alpha  occ. eigenvalues --   -2.74102  -1.11324  -1.06456  -0.95959  -0.87928
 Alpha  occ. eigenvalues --   -0.86897  -0.82553  -0.80139  -0.76379  -0.69226
 Alpha  occ. eigenvalues --   -0.65340  -0.59950  -0.58533  -0.56883  -0.54931
 Alpha  occ. eigenvalues --   -0.53524  -0.51907  -0.49529  -0.48959  -0.48536
 Alpha  occ. eigenvalues --   -0.47882  -0.47210  -0.44998  -0.43914  -0.42480
 Alpha  occ. eigenvalues --   -0.40033  -0.38529  -0.38156  -0.36077  -0.32203
 Alpha  occ. eigenvalues --   -0.27667
 Alpha virt. eigenvalues --    0.01971   0.03828   0.05830   0.09620   0.12910
 Alpha virt. eigenvalues --    0.13990   0.14689   0.15446   0.16376   0.17498
 Alpha virt. eigenvalues --    0.18681   0.19862   0.20409   0.21397   0.22032

 Mulliken charges:
               1
     1  C   -0.266701
     2  C    0.248610
     3  O   -0.513785
     4  C    0.103096
     5  C   -0.302301
     6  H    0.173299
     7  H    0.167775
     8  H    0.165352
     9  N   -0.273914
    10  H    0.303495
    11  H    0.287320
    12  Br  -0.055248
    13  Br  -0.071951
    14  C   -0.375197
    15  H    0.129109
    16  H    0.127267
    17  H    0.133236
    18  C   -0.357758
    19  H    0.093086
    20  H    0.133956
    21  H    0.151254
 Sum of Mulliken charges =  -0.00000

 Dipole moment (field-independent basis, Debye):
    X=             -5.4535    Y=              2.1621    Z=              8.5374  Tot=             10.3588
 Quadrupole moment (field-independent basis, Debye-Ang):
   XX=           -103.0875   YY=            -88.9941   ZZ=            -74.7032
   XY=             11.3669   XZ=              5.1916   YZ=             -4.3082

  Exact polarizability: 214.215  -8.893 182.224 -13.371   8.375 158.702
 Approx polarizability: 167.451  -6.417 149.679  -9.792   6.841 135.226

 ******    1 imaginary frequencies (negative Signs) ******

                      1                      2                      3
                      A                      A                      A
 Frequencies --   -395.2576                60.4073                71.2651
 Red. masses --      5.9723                 3.3278                 5.5507
 Frc consts  --      0.5497                 0.0072                 0.0166
 IR Inten    --    824.7493                 1.5165                 8.9211

                      4                      5                      6
                      A                      A                      A
 Frequencies --     94.6757               128.6341               146.7151
 Red. masses --      2.9472                 2.7066                 1.3947
 Frc consts  --      0.0156                 0.0264                 0.0177
 IR Inten    --      7.5375                 1.1142                 1.0003

                      7                      8                      9
                      A                      A                      A
 Frequencies --    167.5489               177.2655               182.3761
 Red. masses --      4.1775                 1.4536                 3.1700
 Frc consts  --      0.0691                 0.0269                 0.0621
 IR Inten    --      1.8953                 0.4731                 4.2158

                     10                     11                     12
                      A                      A                      A
 Frequencies --    220.5816               226.4206               250.1436
 Red. masses --      1.4083                 2.8055                 2.8191
 Frc consts  --      0.0404                 0.0847                 0.1039
 IR Inten    --      1.3680                 5.1323                 4.1215

                     13                     14                     15
                      A                      A                      A
 Frequencies --    272.0585               286.6156               338.1141
 Red. masses --      3.1867                 4.2176                 3.7640
 Frc consts  --      0.1390                 0.2041                 0.2535
 IR Inten    --     10.6416                22.1676                27.1610

                     16                     17                     18
                      A                      A                      A
 Frequencies --    381.2582               453.8596               531.9239
 Red. masses --      3.6016                 3.6515                 4.5613
 Frc consts  --      0.3084                 0.4432                 0.7604
 IR Inten    --      3.5340                64.2156                80.6062

                     19                     20                     21
                      A                      A                      A
 Frequencies --    605.2725               640.1136               678.4188
 Red. masses --      3.3800                 2.4306                 2.1295
 Frc consts  --      0.7296                 0.5868                 0.5775
 IR Inten    --     34.8627                31.5465                38.7711

                     22                     23                     24
                      A                      A                      A
 Frequencies --    773.9239               815.4840               973.3153
 Red. masses --      3.8749                 2.6437                 2.0156
 Frc consts  --      1.3674                 1.0358                 1.1250
 IR Inten    --    185.1951                93.8760                 8.1235

                     25                     26                     27
                      A                      A                      A
 Frequencies --   1000.5140              1027.2330              1037.1694
 Red. masses --      1.3690                 1.3182                 1.6557
 Frc consts  --      0.8074                 0.8195                 1.0494
 IR Inten    --    302.2951               201.6137                21.8203

                     28                     29                     30
                      A                      A                      A
 Frequencies --   1057.2802              1066.6697              1079.9950
 Red. masses --      1.2637                 1.5129                 3.2451
 Frc consts  --      0.8323                 1.0142                 2.2301
 IR Inten    --     43.1404                 4.4336               106.5068

                     31                     32                     33
                      A                      A                      A
 Frequencies --   1117.2056              1240.1379              1337.2114
 Red. masses --      2.3637                 1.3715                 1.6003
 Frc consts  --      1.7382                 1.2427                 1.6860
 IR Inten    --      7.0019                46.5458               267.1386

                     34                     35                     36
                      A                      A                      A
 Frequencies --   1344.9044              1373.0662              1394.1107
 Red. masses --      2.5178                 5.0933                 1.3540
 Frc consts  --      2.6832                 5.6576                 1.5505
 IR Inten    --    668.7906               554.7346               111.6345

                     37                     38                     39
                      A                      A                      A
 Frequencies --   1402.8917              1448.7281              1467.3686
 Red. masses --      1.2885                 1.1912                 1.0773
 Frc consts  --      1.4941                 1.4730                 1.3667
 IR Inten    --    126.8152                10.5517                19.7010

                     40                     41                     42
                      A                      A                      A
 Frequencies --   1479.0094              1487.2798              1494.2021
 Red. masses --      1.0511                 1.0811                 1.0406
 Frc consts  --      1.3547                 1.4090                 1.3688
 IR Inten    --     25.5487                21.3934                 1.9171

                     43                     44                     45
                      A                      A                      A
 Frequencies --   1497.1324              1501.4404              1630.2228
 Red. masses --      1.0618                 1.0484                 5.6613
 Frc consts  --      1.4023                 1.3925                 8.8647
 IR Inten    --     44.2978                87.2243               770.3923

                     46                     47                     48
                      A                      A                      A
 Frequencies --   1637.9297              3039.4367              3074.1345
 Red. masses --      1.1742                 1.0455                 1.0379
 Frc consts  --      1.8561                 5.6908                 5.7792
 IR Inten    --     38.8035                76.0651                 9.6662

                     49                     50                     51
                      A                      A                      A
 Frequencies --   3075.1983              3105.9233              3147.6639
 Red. masses --      1.0332                 1.0939                 1.0996
 Frc consts  --      5.7570                 6.2172                 6.4189
 IR Inten    --     21.7865                38.5649                15.5584

                     52                     53                     54
                      A                      A                      A
 Frequencies --   3157.6111              3159.6107              3170.7007
 Red. masses --      1.0988                 1.1038                 1.1018
 Frc consts  --      6.4547                 6.4924                 6.5263
 IR Inten    --     10.9765                 1.1856                44.5820

                     55                     56                     57
                      A                      A                      A
 Frequencies --   3177.9661              3513.4358              3596.1509
 Red. masses --      1.1067                 1.0509                 1.0964
 Frc consts  --      6.5855                 7.6431                 8.3538
 IR Inten    --      7.1739                63.4120                68.6524

 - Thermochemistry -
 -------------------
 Temperature   298.150 Kelvin.  Pressure   1.00000 Atm.
 Atom     1 has atomic number  6 and mass  12.00000

 Molecular mass:   270.92074 amu.
 Principal axes and moments of inertia in atomic units:
                           1         2         3
     Eigenvalues --  2427.958893108.489394053.93407
           X            0.99922  -0.03685  -0.01407
           Y            0.03680   0.99931  -0.00404
           Z            0.01421   0.00352   0.99989
 This molecule is an asymmetric top.
 Rotational symmetry number  1.
 Warning -- assumption of classical behavior for rotation
           may cause significant error
 Rotational temperatures (Kelvin)      0.03567     0.02786     0.02137
 Rotational constants (GHZ):           0.74332     0.58058     0.44518
    1 imaginary frequencies ignored.
 Zero-point vibrational energy     435536.0 (Joules/Mol)
                                  104.09559 (Kcal/Mol)
 Warning -- explicit consideration of  18 degrees of freedom as
           vibrations may cause significant error
 Vibrational temperatures:     86.91   102.53   136.22   185.08   211.09
          (Kelvin)            241.07   255.05   262.40   317.37   325.77
                              359.90   391.43   412.38   486.47   548.55
                              653.00   765.32   870.85   920.98   976.09
                             1113.50  1173.30  1400.38  1439.52  1477.96
                             1492.26  1521.19  1534.70  1553.87  1607.41
                             1784.28  1923.95  1935.02  1975.54  2005.81
                             2018.45  2084.40  2111.22  2127.96  2139.86
                             2149.82  2154.04  2160.24  2345.53  2356.62
                             4373.07  4422.99  4424.52  4468.73  4528.79
                             4543.10  4545.98  4561.93  4572.38  5055.05
                             5174.06

 Zero-point correction=                           0.165887 (Hartree/Particle)
 Thermal correction to Energy=                    0.178721
 Thermal correction to Enthalpy=                  0.179665
 Thermal correction to Gibbs Free Energy=         0.125426
 Sum of electronic and zero-point Energies=          -5513.465518
 Sum of electronic and thermal Energies=             -5513.452684
 Sum of electronic and thermal Enthalpies=           -5513.451740
 Sum of electronic and thermal Free Energies=        -5513.505979

                     E (Thermal)             CV                S
                      KCal/Mol        Cal/Mol-Kelvin    Cal/Mol-Kelvin
 Total                  112.149             43.983            114.156
 Electronic               0.000              0.000              0.000
 Translational            0.889              2.981             42.689
 Rotational               0.889              2.981             31.793
 Vibrational            110.372             38.021             39.674
 Vibration     1          0.597              1.973              4.444
 Vibration     2          0.598              1.968              4.118
 Vibration     3          0.603              1.953              3.561
 Vibration     4          0.611              1.925              2.966
 Vibration     5          0.617              1.906              2.714
 Vibration     6          0.624              1.882              2.463
 Vibration     7          0.628              1.870              2.357
 Vibration     8          0.630              1.864              2.304
 Vibration     9          0.647              1.810              1.954
 Vibration    10          0.650              1.801              1.907
 Vibration    11          0.663              1.763              1.730
 Vibration    12          0.675              1.725              1.583
 Vibration    13          0.684              1.699              1.494
 Vibration    14          0.718              1.599              1.221
 Vibration    15          0.751              1.510              1.034
 Vibration    16          0.812              1.352              0.784
 Vibration    17          0.887              1.179              0.583
 Vibration    18          0.964              1.021              0.441

 Optimization completed.
    -- Stationary point found.
 Normal termination of Gaussian 16 at Mon Feb 22 06:04:30 2021.
