 Gaussian 16, Revision A.03,
 Gaussian 16:  ES64L-G16RevA.03 25-Dec-2016

 ----------------------------------------------------------------------
 # wB97XD def2tzvp, opt=(ts, noeigen, calcfc, maxcycles=70, maxstep=1),
  freq=noraman, scrf=(iefpcm, solvent=water)
 ----------------------------------------------------------------------

 ------------------------
 0_iteration/TS-771-0.out
 ------------------------
 Symbolic Z-matrix:
 Charge =  0 Multiplicity = 1

 SCF Done:  E(RwB97XD) =  -3376.38332412     A.U. after   15 cycles
 SCF Done:  E(RwB97XD) =  -3376.38327371     A.U. after   10 cycles
 SCF Done:  E(RwB97XD) =  -3376.38322717     A.U. after   10 cycles
 SCF Done:  E(RwB97XD) =  -3376.38318355     A.U. after   10 cycles
 SCF Done:  E(RwB97XD) =  -3376.38314220     A.U. after   10 cycles
 SCF Done:  E(RwB97XD) =  -3376.38310254     A.U. after   10 cycles
 SCF Done:  E(RwB97XD) =  -3376.38306441     A.U. after   10 cycles
 SCF Done:  E(RwB97XD) =  -3376.38302794     A.U. after   10 cycles
 SCF Done:  E(RwB97XD) =  -3376.38299328     A.U. after   10 cycles
 SCF Done:  E(RwB97XD) =  -3376.38296057     A.U. after   10 cycles
 SCF Done:  E(RwB97XD) =  -3376.38500578     A.U. after   10 cycles
 SCF Done:  E(RwB97XD) =  -3376.38503086     A.U. after   10 cycles
 SCF Done:  E(RwB97XD) =  -3376.38504913     A.U. after   10 cycles
 SCF Done:  E(RwB97XD) =  -3376.38506060     A.U. after   10 cycles
 SCF Done:  E(RwB97XD) =  -3376.38506436     A.U. after   10 cycles
 SCF Done:  E(RwB97XD) =  -3376.38506466     A.U. after    9 cycles
 SCF Done:  E(RwB97XD) =  -3376.38506467     A.U. after    8 cycles
 SCF Done:  E(RwB97XD) =  -3376.38506468     A.U. after    7 cycles
 SCF Done:  E(RwB97XD) =  -3376.38506469     A.U. after    7 cycles
 Optimization completed.
    -- Stationary point found.
 Normal termination of Gaussian 16 at Sun Feb 21 18:23:10 2021.

 ---------------------------------------------------------------------
 #N Geom=AllCheck Guess=TCheck SCRF=Check GenChk RwB97XD/def2TZVP Freq
 ---------------------------------------------------------------------

 Structure from the checkpoint file:  "/beegfs/scratch/user/q/tla25/Gau-104790.chk"
 ------------------------
 0_iteration/TS-771-0.out
 ------------------------
 Charge =  0 Multiplicity = 1

                         Standard orientation:
 ---------------------------------------------------------------------
 Center     Atomic      Atomic             Coordinates (Angstroms)
 Number     Number       Type             X           Y           Z
 ---------------------------------------------------------------------
      1          6           0       -0.781423   -0.867188   -0.349732
      2          6           0       -2.208940   -0.918322   -0.116407
      3          8           0       -2.888796   -1.808928   -0.645298
      4          6           0        0.187368    0.027112    0.062081
      5          6           0       -0.879677    2.142496   -1.335792
      6          1           0       -1.602588    1.382632   -1.628956
      7          1           0       -0.765212    2.865089   -2.141827
      8          1           0       -1.224817    2.649530   -0.438185
      9          7           0        0.392406    1.479307   -1.058089
     10          1           0        0.777463    1.070015   -1.903626
     11          1           0        1.082515    2.119371   -0.675867
     12         35           0        2.014060   -0.653330   -0.086607
     13         17           0        0.006407    0.921483    1.594007
     14          1           0       -0.443692   -1.627231   -1.039668
     15          7           0       -2.836955    0.017154    0.656158
     16          1           0       -3.787200   -0.189382    0.910159
     17          1           0       -2.319265    0.622919    1.266092
 ---------------------------------------------------------------------

 SCF Done:  E(RwB97XD) =  -3376.38506469     A.U. after    1 cycles

 The electronic state is 1-A.
 Alpha  occ. eigenvalues -- -483.14096-101.71671 -62.68957 -56.48082 -56.47709
 Alpha  occ. eigenvalues --  -56.47701 -19.19628 -14.51137 -14.43509 -10.45232
 Alpha  occ. eigenvalues --  -10.38112 -10.32504 -10.26164  -9.60270  -8.83073
 Alpha  occ. eigenvalues --   -7.34917  -7.34041  -7.34017  -6.65259  -6.64073
 Alpha  occ. eigenvalues --   -6.64049  -2.75635  -2.75301  -2.75282  -2.74323
 Alpha  occ. eigenvalues --   -2.74323  -1.12261  -1.06807  -0.99780  -0.98214
 Alpha  occ. eigenvalues --   -0.90381  -0.84402  -0.80133  -0.71576  -0.65998
 Alpha  occ. eigenvalues --   -0.65023  -0.61771  -0.59024  -0.57786  -0.56276
 Alpha  occ. eigenvalues --   -0.53095  -0.50271  -0.49303  -0.48800  -0.48209
 Alpha  occ. eigenvalues --   -0.46446  -0.42029  -0.41157  -0.38452  -0.38081
 Alpha  occ. eigenvalues --   -0.34956  -0.33706  -0.28605
 Alpha virt. eigenvalues --    0.02886   0.05736   0.07882   0.10331   0.13341
 Alpha virt. eigenvalues --    0.15183   0.15368   0.17025   0.17840   0.18455
 Alpha virt. eigenvalues --    0.19237   0.21191   0.21830   0.24026   0.24570

 Mulliken charges:
               1
     1  C   -0.487998
     2  C    0.317385
     3  O   -0.542290
     4  C    0.154685
     5  C   -0.313359
     6  H    0.165148
     7  H    0.172283
     8  H    0.162409
     9  N   -0.265452
    10  H    0.293960
    11  H    0.302900
    12  Br  -0.075400
    13  Cl  -0.082838
    14  H    0.143756
    15  N   -0.457395
    16  H    0.263601
    17  H    0.248604
 Sum of Mulliken charges =  -0.00000

 Dipole moment (field-independent basis, Debye):
    X=              4.2869    Y=              9.4894    Z=             -1.1131  Tot=             10.4721
 Quadrupole moment (field-independent basis, Debye-Ang):
   XX=            -82.9351   YY=            -73.4921   ZZ=            -67.9810
   XY=            -12.1743   XZ=            -10.9389   YZ=             -7.7669

  Exact polarizability: 175.358  11.477 145.793  -2.498   7.369 122.825
 Approx polarizability: 135.754   7.809 122.841  -1.527   8.937 108.146

 ******    1 imaginary frequencies (negative Signs) ******

                      1                      2                      3
                      A                      A                      A
 Frequencies --   -361.4450                64.4552                80.1730
 Red. masses --      5.8892                 5.3715                 3.0635
 Frc consts  --      0.4533                 0.0131                 0.0116
 IR Inten    --    640.2155                 9.7103                 1.0821

                      4                      5                      6
                      A                      A                      A
 Frequencies --    101.6238               155.1063               183.5674
 Red. masses --      2.9495                 7.5751                 4.4477
 Frc consts  --      0.0179                 0.1074                 0.0883
 IR Inten    --      7.9687                 5.5893                 1.7577

                      7                      8                      9
                      A                      A                      A
 Frequencies --    201.9433               220.6909               257.0847
 Red. masses --      1.5527                 4.0847                 5.6239
 Frc consts  --      0.0373                 0.1172                 0.2190
 IR Inten    --      0.6365                 4.6628                13.4697

                     10                     11                     12
                      A                      A                      A
 Frequencies --    285.7591               297.3338               324.8008
 Red. masses --      3.4142                 3.5093                 1.2660
 Frc consts  --      0.1643                 0.1828                 0.0787
 IR Inten    --      1.5205                11.0921               396.6595

                     13                     14                     15
                      A                      A                      A
 Frequencies --    371.0037               483.9809               542.2647
 Red. masses --      4.8660                 2.0149                 1.5215
 Frc consts  --      0.3946                 0.2781                 0.2636
 IR Inten    --     27.7512                34.2165                64.8603

                     16                     17                     18
                      A                      A                      A
 Frequencies --    571.3115               598.5599               657.9230
 Red. masses --      3.2738                 2.8575                 1.5939
 Frc consts  --      0.6296                 0.6032                 0.4065
 IR Inten    --     87.2921                53.2132                42.0217

                     19                     20                     21
                      A                      A                      A
 Frequencies --    769.7907               784.0580               801.6226
 Red. masses --      2.1252                 4.5480                 4.0438
 Frc consts  --      0.7420                 1.6473                 1.5310
 IR Inten    --     55.0491               169.1376               125.1408

                     22                     23                     24
                      A                      A                      A
 Frequencies --    943.2135              1023.0263              1064.6427
 Red. masses --      3.5417                 1.1370                 2.2017
 Frc consts  --      1.8564                 0.7011                 1.4704
 IR Inten    --     25.5228                19.3980                 1.4764

                     25                     26                     27
                      A                      A                      A
 Frequencies --   1084.2704              1107.5825              1255.5833
 Red. masses --      1.6140                 1.7127                 1.3591
 Frc consts  --      1.1180                 1.2379                 1.2624
 IR Inten    --    124.7380               102.9691                59.7162

                     28                     29                     30
                      A                      A                      A
 Frequencies --   1260.2132              1345.0273              1391.0602
 Red. masses --      1.4986                 1.3026                 3.8045
 Frc consts  --      1.4022                 1.3884                 4.3375
 IR Inten    --    427.4425                12.4049               466.1976

                     31                     32                     33
                      A                      A                      A
 Frequencies --   1439.2675              1464.9975              1492.7170
 Red. masses --      2.0887                 1.6179                 1.0405
 Frc consts  --      2.5493                 2.0458                 1.3660
 IR Inten    --    584.6003               259.3752                41.9991

                     34                     35                     36
                      A                      A                      A
 Frequencies --   1500.8194              1610.8667              1634.7866
 Red. masses --      1.0348                 1.5474                 1.0882
 Frc consts  --      1.3733                 2.3658                 1.7135
 IR Inten    --     14.0604               550.2770                51.9663

                     37                     38                     39
                      A                      A                      A
 Frequencies --   1650.3195              3080.6180              3164.3784
 Red. masses --      3.3237                 1.0324                 1.1054
 Frc consts  --      5.3334                 5.7726                 6.5216
 IR Inten    --    839.6279                20.8038                 3.0243

                     40                     41                     42
                      A                      A                      A
 Frequencies --   3181.1603              3219.6401              3501.2774
 Red. masses --      1.1065                 1.0872                 1.0508
 Frc consts  --      6.5973                 6.6399                 7.5900
 IR Inten    --      7.8053                 1.0337                68.4173

                     43                     44                     45
                      A                      A                      A
 Frequencies --   3586.5763              3619.1916              3741.3311
 Red. masses --      1.0974                 1.0459                 1.1033
 Frc consts  --      8.3175                 8.0715                 9.0994
 IR Inten    --     65.3849                40.6703               114.7368

 - Thermochemistry -
 -------------------
 Temperature   298.150 Kelvin.  Pressure   1.00000 Atm.
 Atom     1 has atomic number  6 and mass  12.00000

 Molecular mass:   213.95085 amu.
 Principal axes and moments of inertia in atomic units:
                           1         2         3
     Eigenvalues --  1433.946682933.605733267.54940
           X            0.99991   0.01282  -0.00341
           Y           -0.01317   0.99006  -0.14000
           Z            0.00158   0.14003   0.99015
 This molecule is an asymmetric top.
 Rotational symmetry number  1.
 Warning -- assumption of classical behavior for rotation
           may cause significant error
 Rotational temperatures (Kelvin)      0.06040     0.02952     0.02651
 Rotational constants (GHZ):           1.25858     0.61520     0.55232
    1 imaginary frequencies ignored.
 Zero-point vibrational energy     335645.9 (Joules/Mol)
                                   80.22131 (Kcal/Mol)
 Warning -- explicit consideration of  16 degrees of freedom as
           vibrations may cause significant error
 Vibrational temperatures:     92.74   115.35   146.21   223.16   264.11
          (Kelvin)            290.55   317.52   369.89   411.14   427.80
                              467.32   533.79   696.34   780.20   821.99
                              861.19   946.60  1107.56  1128.08  1153.36
                             1357.07  1471.91  1531.78  1560.02  1593.56
                             1806.50  1813.17  1935.19  2001.43  2070.78
                             2107.80  2147.69  2159.34  2317.68  2352.09
                             2374.44  4432.32  4552.83  4576.98  4632.34
                             5037.56  5160.28  5207.21  5382.94

 Zero-point correction=                           0.127841 (Hartree/Particle)
 Thermal correction to Energy=                    0.138739
 Thermal correction to Enthalpy=                  0.139683
 Thermal correction to Gibbs Free Energy=         0.090095
 Sum of electronic and zero-point Energies=          -3376.257224
 Sum of electronic and thermal Energies=             -3376.246326
 Sum of electronic and thermal Enthalpies=           -3376.245382
 Sum of electronic and thermal Free Energies=        -3376.294969

                     E (Thermal)             CV                S
                      KCal/Mol        Cal/Mol-Kelvin    Cal/Mol-Kelvin
 Total                   87.060             37.768            104.366
 Electronic               0.000              0.000              0.000
 Translational            0.889              2.981             41.985
 Rotational               0.889              2.981             30.998
 Vibrational             85.282             31.806             31.383
 Vibration     1          0.597              1.971              4.316
 Vibration     2          0.600              1.963              3.887
 Vibration     3          0.604              1.948              3.423
 Vibration     4          0.620              1.897              2.609
 Vibration     5          0.631              1.862              2.292
 Vibration     6          0.639              1.837              2.115
 Vibration     7          0.647              1.810              1.953
 Vibration     8          0.667              1.751              1.681
 Vibration     9          0.684              1.700              1.499
 Vibration    10          0.691              1.679              1.432
 Vibration    11          0.709              1.626              1.286
 Vibration    12          0.743              1.532              1.076
 Vibration    13          0.840              1.286              0.699
 Vibration    14          0.897              1.157              0.560
 Vibration    15          0.927              1.093              0.502
 Vibration    16          0.957              1.035              0.452

 Optimization completed.
    -- Stationary point found.
 Normal termination of Gaussian 16 at Sun Feb 21 18:33:50 2021.
