 Gaussian 16, Revision A.03,
 Gaussian 16:  ES64L-G16RevA.03 25-Dec-2016

 ----------------------------------------------------------------------
 # wB97XD def2tzvp, opt=(ts, noeigen, calcfc, maxcycles=70, maxstep=5),
  freq=noraman, scrf=(iefpcm, solvent=water)
 ----------------------------------------------------------------------

 ------------------------
 2_iteration/TS-744-2.out
 ------------------------
 Symbolic Z-matrix:
 Charge =  0 Multiplicity = 1

 SCF Done:  E(RwB97XD) =  -5705.36719342     A.U. after   15 cycles
 SCF Done:  E(RwB97XD) =  -5705.36719601     A.U. after   10 cycles
 SCF Done:  E(RwB97XD) =  -5705.36719604     A.U. after    7 cycles
 Optimization completed.
    -- Stationary point found.
 Normal termination of Gaussian 16 at Mon Feb 22 17:11:56 2021.

 ---------------------------------------------------------------------
 #N Geom=AllCheck Guess=TCheck SCRF=Check GenChk RwB97XD/def2TZVP Freq
 ---------------------------------------------------------------------

 Structure from the checkpoint file:  "/beegfs/scratch/user/q/tla25/Gau-45672.chk"
 ------------------------
 2_iteration/TS-744-2.out
 ------------------------
 Charge =  0 Multiplicity = 1

                         Standard orientation:
 ---------------------------------------------------------------------
 Center     Atomic      Atomic             Coordinates (Angstroms)
 Number     Number       Type             X           Y           Z
 ---------------------------------------------------------------------
      1          6           0        0.514889    1.269570   -0.406656
      2          6           0       -0.853461    1.587427   -0.726692
      3          8           0       -1.145562    2.603867   -1.366136
      4          6           0        0.970636    0.012086   -0.009970
      5          6           0        1.195204    0.905181    2.607398
      6          1           0        0.886839    0.817012    3.647840
      7          1           0        2.270603    1.059511    2.557038
      8          1           0        0.688256    1.755934    2.149773
      9          7           0        0.844138   -0.292314    1.854465
     10          1           0        1.421042   -1.089935    2.101122
     11          1           0       -0.127905   -0.549674    1.995442
     12         35           0        2.885199   -0.292415   -0.198240
     13         35           0        0.065641   -1.621806   -0.570989
     14          6           0        1.494417    2.409488   -0.598665
     15          1           0        2.268226    2.422557    0.167715
     16          1           0        1.993505    2.371806   -1.571660
     17          1           0        0.952116    3.351636   -0.547749
     18          6           0       -2.010411    0.758150   -0.240696
     19          6           0       -2.904302    0.208125   -1.153827
     20          6           0       -3.999041   -0.515011   -0.712055
     21          6           0       -4.230541   -0.670409    0.649668
     22          6           0       -3.368809   -0.086475    1.565005
     23          6           0       -2.262016    0.623675    1.119327
     24          1           0       -2.723827    0.330004   -2.214631
     25          1           0       -4.676648   -0.959421   -1.430174
     26          1           0       -5.087801   -1.234801    0.993815
     27          1           0       -3.557181   -0.179002    2.627063
     28          1           0       -1.610507    1.106558    1.838232
 ---------------------------------------------------------------------

 SCF Done:  E(RwB97XD) =  -5705.36719604     A.U. after    1 cycles

 The electronic state is 1-A.
 Alpha  occ. eigenvalues -- -483.14222-483.14097 -62.69064 -62.68933 -56.48196
 Alpha  occ. eigenvalues --  -56.48069 -56.47822 -56.47804 -56.47688 -56.47675
 Alpha  occ. eigenvalues --  -19.21485 -14.50593 -10.44597 -10.36299 -10.32526
 Alpha  occ. eigenvalues --  -10.30071 -10.29663 -10.29473 -10.29369 -10.29302
 Alpha  occ. eigenvalues --  -10.29273 -10.27858 -10.27198  -8.83170  -8.83034
 Alpha  occ. eigenvalues --   -6.65366  -6.65236  -6.64178  -6.64125  -6.64032
 Alpha  occ. eigenvalues --   -6.63990  -2.75743  -2.75611  -2.75413  -2.75371
 Alpha  occ. eigenvalues --   -2.75275  -2.75242  -2.74410  -2.74410  -2.74268
 Alpha  occ. eigenvalues --   -2.74267  -1.12288  -1.06015  -0.97129  -0.96069
 Alpha  occ. eigenvalues --   -0.88074  -0.87663  -0.85769  -0.85542  -0.80026
 Alpha  occ. eigenvalues --   -0.77361  -0.73295  -0.70974  -0.68603  -0.65094
 Alpha  occ. eigenvalues --   -0.63207  -0.59447  -0.58442  -0.57502  -0.55468
 Alpha  occ. eigenvalues --   -0.54920  -0.53758  -0.53139  -0.51434  -0.50419
 Alpha  occ. eigenvalues --   -0.49366  -0.48760  -0.48004  -0.47237  -0.45947
 Alpha  occ. eigenvalues --   -0.45212  -0.44900  -0.43913  -0.42688  -0.40369
 Alpha  occ. eigenvalues --   -0.38568  -0.38081  -0.36629  -0.34269  -0.34048
 Alpha  occ. eigenvalues --   -0.32020  -0.28198
 Alpha virt. eigenvalues --    0.01708   0.02354   0.04653   0.05717   0.06142
 Alpha virt. eigenvalues --    0.10155   0.12893   0.13305   0.14413   0.14635
 Alpha virt. eigenvalues --    0.15661   0.16306   0.16862   0.18182   0.18769

 Mulliken charges:
               1
     1  C   -0.312110
     2  C    0.260963
     3  O   -0.482354
     4  C    0.159794
     5  C   -0.329459
     6  H    0.177321
     7  H    0.173013
     8  H    0.168906
     9  N   -0.292559
    10  H    0.300279
    11  H    0.287277
    12  Br  -0.055539
    13  Br  -0.058317
    14  C   -0.381743
    15  H    0.135874
    16  H    0.131191
    17  H    0.135440
    18  C    0.190305
    19  C   -0.239954
    20  C   -0.129212
    21  C   -0.150969
    22  C   -0.132892
    23  C   -0.326281
    24  H    0.139702
    25  H    0.144856
    26  H    0.146251
    27  H    0.144139
    28  H    0.196079
 Sum of Mulliken charges =  -0.00000

 Dipole moment (field-independent basis, Debye):
    X=              2.0300    Y=             -4.9982    Z=              8.7903  Tot=             10.3137
 Quadrupole moment (field-independent basis, Debye-Ang):
   XX=           -109.2470   YY=           -128.3257   ZZ=           -100.2508
   XY=             11.4081   XZ=              2.0147   YZ=              7.7691

  Exact polarizability: 291.913  12.040 243.040  13.163 -17.337 249.328
 Approx polarizability: 223.747  10.739 204.727   9.707 -13.827 214.680

 ******    1 imaginary frequencies (negative Signs) ******

                      1                      2                      3
                      A                      A                      A
 Frequencies --   -388.8823                31.9380                51.5624
 Red. masses --      6.0643                 7.1653                 5.3905
 Frc consts  --      0.5403                 0.0043                 0.0084
 IR Inten    --    847.2931                 1.3863                 3.6546

                      4                      5                      6
                      A                      A                      A
 Frequencies --     71.6785                84.5989               107.6244
 Red. masses --      6.4664                 3.5024                 2.1533
 Frc consts  --      0.0196                 0.0148                 0.0147
 IR Inten    --      6.0580                 0.5190                 2.7960

                      7                      8                      9
                      A                      A                      A
 Frequencies --    119.5203               136.1836               150.3902
 Red. masses --      2.2808                 2.6444                 2.7667
 Frc consts  --      0.0192                 0.0289                 0.0369
 IR Inten    --      1.7625                 2.1755                 0.0371

                     10                     11                     12
                      A                      A                      A
 Frequencies --    177.7934               191.0911               215.0079
 Red. masses --     11.8053                 4.9069                 4.3519
 Frc consts  --      0.2199                 0.1056                 0.1185
 IR Inten    --      2.1523                 1.6663                 2.5415

                     13                     14                     15
                      A                      A                      A
 Frequencies --    217.5898               239.9047               264.8905
 Red. masses --      1.3926                 2.7188                 3.3964
 Frc consts  --      0.0388                 0.0922                 0.1404
 IR Inten    --     11.4770                12.9207                 5.6506

                     16                     17                     18
                      A                      A                      A
 Frequencies --    283.3587               333.5894               366.1870
 Red. masses --      4.6449                 3.3737                 5.7962
 Frc consts  --      0.2197                 0.2212                 0.4579
 IR Inten    --     24.1398                 4.0315                16.8776

                     19                     20                     21
                      A                      A                      A
 Frequencies --    377.7516               405.5690               424.8490
 Red. masses --      4.6383                 4.7105                 3.0281
 Frc consts  --      0.3900                 0.4565                 0.3220
 IR Inten    --      1.0916                37.9628                 4.6577

                     22                     23                     24
                      A                      A                      A
 Frequencies --    522.2603               575.4220               635.8236
 Red. masses --      5.0857                 3.7902                 6.3923
 Frc consts  --      0.8173                 0.7394                 1.5226
 IR Inten    --    110.1012                27.4284                 0.4305

                     25                     26                     27
                      A                      A                      A
 Frequencies --    643.3555               688.0384               732.8807
 Red. masses --      2.3407                 3.1731                 1.7402
 Frc consts  --      0.5708                 0.8850                 0.5507
 IR Inten    --     16.2942                63.9242                82.3235

                     28                     29                     30
                      A                      A                      A
 Frequencies --    757.6267               780.7334               799.4238
 Red. masses --      3.1838                 4.6816                 3.0815
 Frc consts  --      1.0767                 1.6813                 1.1603
 IR Inten    --     32.4063               136.1188               167.2767

                     31                     32                     33
                      A                      A                      A
 Frequencies --    817.7108               886.4626               954.1192
 Red. masses --      2.9723                 1.2628                 2.1887
 Frc consts  --      1.1710                 0.5847                 1.1739
 IR Inten    --     54.3023                 0.1551                24.7274

                     34                     35                     36
                      A                      A                      A
 Frequencies --    972.0087              1010.6828              1018.8057
 Red. masses --      1.6893                 1.3609                 1.7035
 Frc consts  --      0.9404                 0.8190                 1.0418
 IR Inten    --    108.4510                12.5207                 8.0352

                     37                     38                     39
                      A                      A                      A
 Frequencies --   1024.1448              1028.8863              1034.6282
 Red. masses --      1.8064                 2.2036                 1.4580
 Frc consts  --      1.1163                 1.3744                 0.9195
 IR Inten    --    273.8484                47.0993                 7.2331

                     40                     41                     42
                      A                      A                      A
 Frequencies --   1057.9989              1062.4742              1063.4227
 Red. masses --      1.2050                 1.8091                 1.4409
 Frc consts  --      0.7947                 1.2032                 0.9601
 IR Inten    --     55.0539                17.9678                11.1435

                     43                     44                     45
                      A                      A                      A
 Frequencies --   1079.9538              1112.3000              1184.0006
 Red. masses --      4.4589                 1.5390                 1.1382
 Frc consts  --      3.0640                 1.1218                 0.9401
 IR Inten    --     72.0613                13.5520                 0.4294

                     46                     47                     48
                      A                      A                      A
 Frequencies --   1203.2532              1207.2160              1229.0599
 Red. masses --      1.8501                 1.6315                 1.3821
 Frc consts  --      1.5782                 1.4009                 1.2301
 IR Inten    --      2.5522                 8.6734                43.6365

                     49                     50                     51
                      A                      A                      A
 Frequencies --   1321.1914              1340.5189              1354.8295
 Red. masses --      4.0399                 1.3211                 2.0063
 Frc consts  --      4.1548                 1.3988                 2.1698
 IR Inten    --     53.8522                13.7959               320.2507

                     52                     53                     54
                      A                      A                      A
 Frequencies --   1363.2750              1380.6176              1406.0209
 Red. masses --      2.9511                 5.5484                 1.2651
 Frc consts  --      3.2315                 6.2311                 1.4735
 IR Inten    --   1015.8347               299.8487               109.8282

                     55                     56                     57
                      A                      A                      A
 Frequencies --   1452.2008              1470.2597              1489.1952
 Red. masses --      1.1975                 1.0547                 2.1638
 Frc consts  --      1.4879                 1.3433                 2.8273
 IR Inten    --      7.6480                21.1695                10.1510

                     58                     59                     60
                      A                      A                      A
 Frequencies --   1492.8998              1496.6204              1505.9699
 Red. masses --      1.0441                 1.0765                 1.0456
 Frc consts  --      1.3710                 1.4207                 1.3972
 IR Inten    --      1.8851               114.8037                44.4854

                     61                     62                     63
                      A                      A                      A
 Frequencies --   1541.4822              1627.9818              1637.2801
 Red. masses --      2.3420                10.3466                 1.0965
 Frc consts  --      3.2788                16.1565                 1.7317
 IR Inten    --      5.5250               737.6845                33.5748

                     64                     65                     66
                      A                      A                      A
 Frequencies --   1651.0216              1674.4530              3040.1887
 Red. masses --      5.9287                 5.9044                 1.0471
 Frc consts  --      9.5218                 9.7538                 5.7024
 IR Inten    --     30.6470                 1.6719                77.2165

                     67                     68                     69
                      A                      A                      A
 Frequencies --   3069.2399              3115.2323              3149.8559
 Red. masses --      1.0340                 1.0897                 1.1031
 Frc consts  --      5.7391                 6.2308                 6.4483
 IR Inten    --     22.7948                33.4175                 8.4251

                     70                     71                     72
                      A                      A                      A
 Frequencies --   3154.2189              3174.4933              3192.0799
 Red. masses --      1.1014                 1.1063                 1.0863
 Frc consts  --      6.4560                 6.5685                 6.5215
 IR Inten    --     11.6843                 8.0852                 6.1045

                     73                     74                     75
                      A                      A                      A
 Frequencies --   3197.1268              3205.6853              3213.4577
 Red. masses --      1.0874                 1.0911                 1.0952
 Frc consts  --      6.5491                 6.6061                 6.6630
 IR Inten    --      0.4753                 9.7694                36.2542

                     76                     77                     78
                      A                      A                      A
 Frequencies --   3222.9405              3502.8265              3588.1107
 Red. masses --      1.0989                 1.0511                 1.0969
 Frc consts  --      6.7252                 7.5988                 8.3205
 IR Inten    --     16.8582                60.2072               103.0342

 - Thermochemistry -
 -------------------
 Temperature   298.150 Kelvin.  Pressure   1.00000 Atm.
 Atom     1 has atomic number  6 and mass  12.00000

 Molecular mass:   332.93639 amu.
 Principal axes and moments of inertia in atomic units:
                           1         2         3
     Eigenvalues --  2965.678466866.549877501.83703
           X            0.99958   0.02827   0.00623
           Y           -0.02807   0.99918  -0.02919
           Z           -0.00705   0.02901   0.99955
 This molecule is an asymmetric top.
 Rotational symmetry number  1.
 Warning -- assumption of classical behavior for rotation
           may cause significant error
 Rotational temperatures (Kelvin)      0.02921     0.01261     0.01155
 Rotational constants (GHZ):           0.60854     0.26283     0.24057
    1 imaginary frequencies ignored.
 Zero-point vibrational energy     576391.0 (Joules/Mol)
                                  137.76075 (Kcal/Mol)
 Warning -- explicit consideration of  22 degrees of freedom as
           vibrations may cause significant error
 Vibrational temperatures:     45.95    74.19   103.13   121.72   154.85
          (Kelvin)            171.96   195.94   216.38   255.81   274.94
                              309.35   313.06   345.17   381.12   407.69
                              479.96   526.86   543.50   583.52   611.26
                              751.42   827.90   914.81   925.65   989.93
                             1054.45  1090.06  1123.30  1150.19  1176.50
                             1275.42  1372.76  1398.50  1454.15  1465.83
                             1473.52  1480.34  1488.60  1522.22  1528.66
                             1530.03  1553.81  1600.35  1703.51  1731.21
                             1736.91  1768.34  1900.90  1928.71  1949.30
                             1961.45  1986.40  2022.95  2089.39  2115.38
                             2142.62  2147.95  2153.30  2166.75  2217.85
                             2342.30  2355.68  2375.45  2409.16  4374.15
                             4415.95  4482.12  4531.94  4538.22  4567.39
                             4592.69  4599.95  4612.27  4623.45  4637.09
                             5039.79  5162.49

 Zero-point correction=                           0.219536 (Hartree/Particle)
 Thermal correction to Energy=                    0.235471
 Thermal correction to Enthalpy=                  0.236415
 Thermal correction to Gibbs Free Energy=         0.174385
 Sum of electronic and zero-point Energies=          -5705.147660
 Sum of electronic and thermal Energies=             -5705.131725
 Sum of electronic and thermal Enthalpies=           -5705.130781
 Sum of electronic and thermal Free Energies=        -5705.192811

                     E (Thermal)             CV                S
                      KCal/Mol        Cal/Mol-Kelvin    Cal/Mol-Kelvin
 Total                  147.760             57.028            130.553
 Electronic               0.000              0.000              0.000
 Translational            0.889              2.981             43.303
 Rotational               0.889              2.981             33.390
 Vibrational            145.983             51.066             53.860
 Vibration     1          0.594              1.983              5.705
 Vibration     2          0.596              1.977              4.757
 Vibration     3          0.598              1.968              4.107
 Vibration     4          0.601              1.960              3.781
 Vibration     5          0.606              1.943              3.311
 Vibration     6          0.609              1.933              3.108
 Vibration     7          0.614              1.917              2.857
 Vibration     8          0.618              1.902              2.667
 Vibration     9          0.628              1.870              2.351
 Vibration    10          0.634              1.852              2.217
 Vibration    11          0.645              1.818              2.001
 Vibration    12          0.646              1.814              1.979
 Vibration    13          0.657              1.779              1.804
 Vibration    14          0.671              1.737              1.629
 Vibration    15          0.682              1.705              1.513
 Vibration    16          0.715              1.608              1.243
 Vibration    17          0.739              1.542              1.096
 Vibration    18          0.748              1.518              1.048
 Vibration    19          0.771              1.458              0.942
 Vibration    20          0.787              1.416              0.876
 Vibration    21          0.877              1.201              0.605
 Vibration    22          0.932              1.084              0.494

 Optimization completed.
    -- Stationary point found.
 Normal termination of Gaussian 16 at Mon Feb 22 18:18:13 2021.
