 Gaussian 16, Revision A.03,
 Gaussian 16:  ES64L-G16RevA.03 25-Dec-2016

 ----------------------------------------------------------------------
 # wB97XD def2tzvp, opt=(ts, noeigen, calcfc, maxcycles=70, maxstep=5),
  freq=noraman, scrf=(iefpcm, solvent=water)
 ----------------------------------------------------------------------

 ------------------------
 2_iteration/TS-711-2.out
 ------------------------
 Symbolic Z-matrix:
 Charge =  0 Multiplicity = 1

 SCF Done:  E(RwB97XD) =  -5760.76280316     A.U. after   15 cycles
 SCF Done:  E(RwB97XD) =  -5760.76280716     A.U. after    9 cycles
 SCF Done:  E(RwB97XD) =  -5760.76280714     A.U. after    8 cycles
 SCF Done:  E(RwB97XD) =  -5760.76280707     A.U. after    8 cycles
 SCF Done:  E(RwB97XD) =  -5760.76280698     A.U. after    9 cycles
 SCF Done:  E(RwB97XD) =  -5760.76273375     A.U. after   14 cycles
 SCF Done:  E(RwB97XD) =  -5760.76280489     A.U. after   13 cycles
 SCF Done:  E(RwB97XD) =  -5760.76280660     A.U. after   10 cycles
 SCF Done:  E(RwB97XD) =  -5760.76280705     A.U. after    9 cycles
 Optimization completed.
    -- Stationary point found.
 Normal termination of Gaussian 16 at Mon Feb 22 17:48:32 2021.

 ---------------------------------------------------------------------
 #N Geom=AllCheck Guess=TCheck SCRF=Check GenChk RwB97XD/def2TZVP Freq
 ---------------------------------------------------------------------

 Structure from the checkpoint file:  "/beegfs/scratch/user/q/tla25/Gau-87759.chk"
 ------------------------
 2_iteration/TS-711-2.out
 ------------------------
 Charge =  0 Multiplicity = 1

                         Standard orientation:
 ---------------------------------------------------------------------
 Center     Atomic      Atomic             Coordinates (Angstroms)
 Number     Number       Type             X           Y           Z
 ---------------------------------------------------------------------
      1          6           0       -0.628973    0.040258   -0.122338
      2          6           0        0.713696    0.603852   -0.216089
      3          8           0        0.916057    1.791181   -0.467780
      4          6           0       -1.791288    0.798193   -0.137437
      5          6           0       -1.446690    1.345909    2.613079
      6          1           0       -0.510777    0.849986    2.348642
      7          1           0       -1.319116    2.421272    2.515291
      8          1           0       -1.694440    1.105883    3.646539
      9          7           0       -2.480784    0.891107    1.693720
     10          1           0       -2.766907   -0.059075    1.900167
     11          1           0       -3.307225    1.477266    1.716235
     12         35           0       -3.398650   -0.040151   -0.901256
     13          6           0       -1.797238    2.264960   -0.470391
     14          1           0       -1.086992    2.800610    0.151804
     15          1           0       -1.495456    2.402245   -1.507786
     16          1           0       -2.796478    2.674596   -0.338360
     17         35           0       -0.810170   -1.829947    0.276137
     18          7           0        1.757753   -0.271447   -0.028926
     19          6           0        3.134418   -0.037400   -0.105834
     20          6           0        3.968198   -1.141424    0.103317
     21          6           0        5.343204   -1.011065    0.049583
     22          6           0        5.922510    0.223326   -0.214808
     23          6           0        5.099061    1.318078   -0.421699
     24          6           0        3.716058    1.203519   -0.369870
     25          1           0        1.507261   -1.222584    0.181930
     26          1           0        3.528357   -2.110622    0.309705
     27          1           0        5.965244   -1.881790    0.215241
     28          1           0        6.998799    0.327383   -0.257839
     29          1           0        5.533483    2.288662   -0.628147
     30          1           0        3.087958    2.063292   -0.530653
 ---------------------------------------------------------------------

 SCF Done:  E(RwB97XD) =  -5760.76280705     A.U. after    1 cycles

 The electronic state is 1-A.
 Alpha  occ. eigenvalues -- -483.13291-483.13063 -62.68116 -62.67921 -56.47222
 Alpha  occ. eigenvalues --  -56.47031 -56.46887 -56.46878 -56.46687 -56.46670
 Alpha  occ. eigenvalues --  -19.20977 -14.48825 -14.46515 -10.40664 -10.39825
 Alpha  occ. eigenvalues --  -10.33932 -10.31881 -10.31878 -10.29073 -10.28909
 Alpha  occ. eigenvalues --  -10.28907 -10.28893 -10.28287 -10.28224  -8.82223
 Alpha  occ. eigenvalues --   -8.82033  -6.64333  -6.64165  -6.63267  -6.63236
 Alpha  occ. eigenvalues --   -6.63076  -6.63021  -2.74729  -2.74551  -2.74423
 Alpha  occ. eigenvalues --   -2.74395  -2.74252  -2.74209  -2.73535  -2.73533
 Alpha  occ. eigenvalues --   -2.73327  -2.73327  -1.14299  -1.04421  -1.04314
 Alpha  occ. eigenvalues --   -0.96071  -0.95074  -0.89748  -0.85171  -0.85040
 Alpha  occ. eigenvalues --   -0.84495  -0.79344  -0.79016  -0.74078  -0.71555
 Alpha  occ. eigenvalues --   -0.67861  -0.64633  -0.63494  -0.62189  -0.58607
 Alpha  occ. eigenvalues --   -0.57982  -0.57138  -0.55729  -0.53985  -0.53542
 Alpha  occ. eigenvalues --   -0.52397  -0.52208  -0.51557  -0.50211  -0.50039
 Alpha  occ. eigenvalues --   -0.48488  -0.46807  -0.46012  -0.45657  -0.44728
 Alpha  occ. eigenvalues --   -0.43947  -0.42860  -0.40274  -0.39771  -0.39422
 Alpha  occ. eigenvalues --   -0.37290  -0.36319  -0.33789  -0.33758  -0.30527
 Alpha  occ. eigenvalues --   -0.27773
 Alpha virt. eigenvalues --    0.02334   0.04129   0.05368   0.08004   0.09300
 Alpha virt. eigenvalues --    0.10059   0.12663   0.13939   0.14021   0.14999
 Alpha virt. eigenvalues --    0.15239   0.16723   0.16908   0.17800   0.18481

 Mulliken charges:
               1
     1  C   -0.269260
     2  C    0.436196
     3  O   -0.528680
     4  C    0.105508
     5  C   -0.300429
     6  H    0.155097
     7  H    0.161575
     8  H    0.161928
     9  N   -0.341537
    10  H    0.286289
    11  H    0.293336
    12  Br  -0.109147
    13  C   -0.344764
    14  H    0.151539
    15  H    0.152116
    16  H    0.149918
    17  Br  -0.148985
    18  N   -0.265052
    19  C    0.301925
    20  C   -0.307316
    21  C   -0.101607
    22  C   -0.195159
    23  C   -0.114121
    24  C   -0.294658
    25  H    0.236092
    26  H    0.141384
    27  H    0.143518
    28  H    0.140699
    29  H    0.141238
    30  H    0.162359
 Sum of Mulliken charges =  -0.00000

 Dipole moment (field-independent basis, Debye):
    X=             -4.6496    Y=              0.5484    Z=              6.0388  Tot=              7.6411
 Quadrupole moment (field-independent basis, Debye-Ang):
   XX=           -109.0891   YY=           -115.6425   ZZ=           -114.8193
   XY=            -13.7462   XZ=            -11.5493   YZ=              3.9292

  Exact polarizability: 370.158  -5.428 268.559  -4.022  -7.330 197.950
 Approx polarizability: 263.844   0.335 231.465  -2.295  -8.401 170.936

 ******    1 imaginary frequencies (negative Signs) ******

                      1                      2                      3
                      A                      A                      A
 Frequencies --   -362.6010                10.0947                27.1562
 Red. masses --      5.6322                 3.9845                 6.9738
 Frc consts  --      0.4363                 0.0002                 0.0030
 IR Inten    --    794.2033                 0.8712                 3.7009

                      4                      5                      6
                      A                      A                      A
 Frequencies --     45.0464                63.2598                76.8512
 Red. masses --      6.1667                 6.7854                 2.3736
 Frc consts  --      0.0074                 0.0160                 0.0083
 IR Inten    --     10.3700                 2.1834                 1.9503

                      7                      8                      9
                      A                      A                      A
 Frequencies --     83.5594               128.7745               141.7391
 Red. masses --      6.2277                 2.7092                27.0321
 Frc consts  --      0.0256                 0.0265                 0.3200
 IR Inten    --      0.8433                 8.3083                 4.6665

                     10                     11                     12
                      A                      A                      A
 Frequencies --    161.3567               189.9734               210.5063
 Red. masses --      6.3241                 1.3796                 4.7799
 Frc consts  --      0.0970                 0.0293                 0.1248
 IR Inten    --      4.9606                 4.5395                 5.8220

                     13                     14                     15
                      A                      A                      A
 Frequencies --    233.5674               244.3413               284.5765
 Red. masses --      4.7726                 4.3141                 1.9102
 Frc consts  --      0.1534                 0.1518                 0.0911
 IR Inten    --     12.5196                 2.1581                 6.8344

                     16                     17                     18
                      A                      A                      A
 Frequencies --    287.5663               320.4207               326.2952
 Red. masses --      3.3433                 2.9703                 2.1407
 Frc consts  --      0.1629                 0.1797                 0.1343
 IR Inten    --     13.1062                 4.0554                 0.7194

                     19                     20                     21
                      A                      A                      A
 Frequencies --    389.0107               406.7079               423.2636
 Red. masses --      8.5470                 3.1701                 2.9868
 Frc consts  --      0.7621                 0.3089                 0.3153
 IR Inten    --      0.7806                15.0610                 0.4350

                     22                     23                     24
                      A                      A                      A
 Frequencies --    426.0015               481.4492               527.6895
 Red. masses --      3.6905                 5.2810                 2.6869
 Frc consts  --      0.3946                 0.7212                 0.4408
 IR Inten    --      9.4267                94.5934                38.6779

                     25                     26                     27
                      A                      A                      A
 Frequencies --    555.0959               565.6016               635.2396
 Red. masses --      1.3206                 3.3358                 6.3792
 Frc consts  --      0.2397                 0.6287                 1.5167
 IR Inten    --     48.5532               143.3247                 3.1769

                     28                     29                     30
                      A                      A                      A
 Frequencies --    642.9128               688.8260               718.7794
 Red. masses --      1.9976                 2.5055                 1.8793
 Frc consts  --      0.4865                 0.7004                 0.5720
 IR Inten    --      4.6997               130.7743                65.4811

                     31                     32                     33
                      A                      A                      A
 Frequencies --    762.7598               784.4185               831.4311
 Red. masses --      9.0226                 1.8278                 5.7752
 Frc consts  --      3.0928                 0.6626                 2.3522
 IR Inten    --     22.9986                96.5211                27.6633

                     34                     35                     36
                      A                      A                      A
 Frequencies --    861.5149               871.2790               933.5646
 Red. masses --      1.2612                 5.6039                 1.4650
 Frc consts  --      0.5515                 2.5064                 0.7523
 IR Inten    --      0.0153                22.6433                13.5017

                     37                     38                     39
                      A                      A                      A
 Frequencies --    986.7417              1001.4147              1008.0113
 Red. masses --      3.9824                 1.3489                 1.1577
 Frc consts  --      2.2846                 0.7970                 0.6931
 IR Inten    --    100.8877                 0.0412                27.6416

                     40                     41                     42
                      A                      A                      A
 Frequencies --   1018.2913              1020.0891              1034.0129
 Red. masses --      1.2950                 5.4650                 1.1568
 Frc consts  --      0.7911                 3.3505                 0.7287
 IR Inten    --      0.6565                 8.9383                59.4571

                     43                     44                     45
                      A                      A                      A
 Frequencies --   1057.4054              1062.9527              1074.4283
 Red. masses --      2.2701                 1.5693                 1.7587
 Frc consts  --      1.4955                 1.0447                 1.1962
 IR Inten    --     40.2089                99.0039                20.2407

                     46                     47                     48
                      A                      A                      A
 Frequencies --   1082.8669              1115.8142              1130.2246
 Red. masses --      3.9514                 1.8122                 2.3627
 Frc consts  --      2.7300                 1.3294                 1.7782
 IR Inten    --      5.5629                38.5808                29.1236

                     49                     50                     51
                      A                      A                      A
 Frequencies --   1182.6346              1208.4946              1217.3169
 Red. masses --      1.1216                 1.1412                 1.3951
 Frc consts  --      0.9243                 0.9820                 1.2181
 IR Inten    --      4.7238                37.4386                24.9119

                     52                     53                     54
                      A                      A                      A
 Frequencies --   1248.4589              1277.8203              1339.6703
 Red. masses --      3.5452                 3.3719                 1.3523
 Frc consts  --      3.2557                 3.2439                 1.4299
 IR Inten    --    862.3011               145.0292                41.1720

                     55                     56                     57
                      A                      A                      A
 Frequencies --   1344.6840              1360.5595              1416.2837
 Red. masses --      3.4425                 1.6306                 1.6778
 Frc consts  --      3.6674                 1.7784                 1.9829
 IR Inten    --    717.3356                 7.1010               451.9514

                     58                     59                     60
                      A                      A                      A
 Frequencies --   1432.9139              1464.1615              1474.7049
 Red. masses --      1.9811                 1.1559                 1.0726
 Frc consts  --      2.3966                 1.4600                 1.3743
 IR Inten    --    406.4093                24.9272                17.7855

                     61                     62                     63
                      A                      A                      A
 Frequencies --   1481.8327              1487.3091              1494.5628
 Red. masses --      2.1043                 1.1661                 1.0691
 Frc consts  --      2.7224                 1.5198                 1.4070
 IR Inten    --    249.4669                88.5511                60.0768

                     64                     65                     66
                      A                      A                      A
 Frequencies --   1509.7040              1546.1078              1576.4316
 Red. masses --      1.0318                 2.4398                 2.0081
 Frc consts  --      1.3856                 3.4362                 2.9403
 IR Inten    --     15.9422               184.3391               841.3274

                     67                     68                     69
                      A                      A                      A
 Frequencies --   1640.2515              1660.6277              1670.0488
 Red. masses --      1.0899                 6.0690                 4.2931
 Frc consts  --      1.7276                 9.8608                 7.0547
 IR Inten    --     63.5796               159.3267                72.9802

                     70                     71                     72
                      A                      A                      A
 Frequencies --   1685.7651              3064.9038              3086.2444
 Red. masses --      6.6421                 1.0345                 1.0363
 Frc consts  --     11.1212                 5.7253                 5.8159
 IR Inten    --    457.4779                31.1420                12.9135

                     73                     74                     75
                      A                      A                      A
 Frequencies --   3138.1784              3162.1146              3171.4940
 Red. masses --      1.1034                 1.1033                 1.1048
 Frc consts  --      6.4023                 6.4998                 6.5476
 IR Inten    --     10.6080                13.4961                13.4023

                     76                     77                     78
                      A                      A                      A
 Frequencies --   3185.0226              3191.4374              3196.2936
 Red. masses --      1.0886                 1.1016                 1.0881
 Frc consts  --      6.5062                 6.6107                 6.5498
 IR Inten    --     13.6787                 3.7103                 2.6845

                     79                     80                     81
                      A                      A                      A
 Frequencies --   3205.9743              3221.3110              3277.1287
 Red. masses --      1.0931                 1.0980                 1.0921
 Frc consts  --      6.6194                 6.7128                 6.9106
 IR Inten    --     29.3959                24.0040                 6.3947

                     82                     83                     84
                      A                      A                      A
 Frequencies --   3526.1800              3609.3894              3634.8339
 Red. masses --      1.0506                 1.0964                 1.0762
 Frc consts  --      7.6969                 8.4157                 8.3777
 IR Inten    --     58.1786                54.8385               114.6409

 - Thermochemistry -
 -------------------
 Temperature   298.150 Kelvin.  Pressure   1.00000 Atm.
 Atom     1 has atomic number  6 and mass  12.00000

 Molecular mass:   347.94729 amu.
 Principal axes and moments of inertia in atomic units:
                           1         2         3
     Eigenvalues --  2767.69929********************
           X            0.99976  -0.01318  -0.01749
           Y            0.01390   0.99903   0.04175
           Z            0.01692  -0.04199   0.99897
 This molecule is an asymmetric top.
 Rotational symmetry number  1.
 Warning -- assumption of classical behavior for rotation
           may cause significant error
 Rotational temperatures (Kelvin)      0.03129     0.00764     0.00698
 Rotational constants (GHZ):           0.65207     0.15919     0.14543
    1 imaginary frequencies ignored.
 Zero-point vibrational energy     623994.5 (Joules/Mol)
                                  149.13827 (Kcal/Mol)
 Warning -- explicit consideration of  25 degrees of freedom as
           vibrations may cause significant error
 Vibrational temperatures:     14.52    39.07    64.81    91.02   110.57
          (Kelvin)            120.22   185.28   203.93   232.16   273.33
                              302.87   336.05   351.55   409.44   413.74
                              461.01   469.47   559.70   585.16   608.98
                              612.92   692.70   759.23   798.66   813.77
                              913.97   925.01   991.07  1034.16  1097.44
                             1128.60  1196.24  1239.53  1253.58  1343.19
                             1419.70  1440.81  1450.30  1465.09  1467.68
                             1487.71  1521.37  1529.35  1545.86  1558.00
                             1605.41  1626.14  1701.55  1738.75  1751.45
                             1796.25  1838.50  1927.49  1934.70  1957.54
                             2037.72  2061.64  2106.60  2121.77  2132.03
                             2139.91  2150.34  2172.13  2224.50  2268.13
                             2359.96  2389.27  2402.83  2425.44  4409.71
                             4440.42  4515.14  4549.58  4563.07  4582.54
                             4591.77  4598.75  4612.68  4634.75  4715.06
                             5073.39  5193.11  5229.72

 Zero-point correction=                           0.237667 (Hartree/Particle)
 Thermal correction to Energy=                    0.254706
 Thermal correction to Enthalpy=                  0.255650
 Thermal correction to Gibbs Free Energy=         0.188887
 Sum of electronic and zero-point Energies=          -5760.525140
 Sum of electronic and thermal Energies=             -5760.508101
 Sum of electronic and thermal Enthalpies=           -5760.507157
 Sum of electronic and thermal Free Energies=        -5760.573920

                     E (Thermal)             CV                S
                      KCal/Mol        Cal/Mol-Kelvin    Cal/Mol-Kelvin
 Total                  159.830             61.237            140.514
 Electronic               0.000              0.000              0.000
 Translational            0.889              2.981             43.435
 Rotational               0.889              2.981             34.320
 Vibrational            158.053             55.275             62.759
 Vibration     1          0.593              1.987              7.992
 Vibration     2          0.593              1.984              6.027
 Vibration     3          0.595              1.979              5.024
 Vibration     4          0.597              1.972              4.353
 Vibration     5          0.599              1.965              3.970
 Vibration     6          0.600              1.960              3.805
 Vibration     7          0.611              1.924              2.964
 Vibration     8          0.615              1.912              2.780
 Vibration     9          0.622              1.890              2.534
 Vibration    10          0.633              1.854              2.228
 Vibration    11          0.643              1.825              2.039
 Vibration    12          0.654              1.790              1.851
 Vibration    13          0.660              1.772              1.771
 Vibration    14          0.683              1.702              1.506
 Vibration    15          0.685              1.697              1.488
 Vibration    16          0.706              1.634              1.308
 Vibration    17          0.710              1.623              1.278
 Vibration    18          0.757              1.494              1.004
 Vibration    19          0.771              1.456              0.938
 Vibration    20          0.785              1.420              0.881
 Vibration    21          0.788              1.414              0.872
 Vibration    22          0.838              1.291              0.706
 Vibration    23          0.883              1.189              0.592
 Vibration    24          0.911              1.129              0.534
 Vibration    25          0.921              1.106              0.513

 Optimization completed.
    -- Stationary point found.
 Normal termination of Gaussian 16 at Mon Feb 22 18:56:14 2021.
