 Gaussian 16, Revision A.03,
 Gaussian 16:  ES64L-G16RevA.03 25-Dec-2016

 ----------------------------------------------------------------------
 # wB97XD def2tzvp, opt=(ts, noeigen, calcfc, maxcycles=70, maxstep=1),
  freq=noraman, scrf=(iefpcm, solvent=water)
 ----------------------------------------------------------------------

 ------------------------
 0_iteration/TS-770-0.out
 ------------------------
 Symbolic Z-matrix:
 Charge =  0 Multiplicity = 1

 SCF Done:  E(RwB97XD) =  -3360.31648925     A.U. after   15 cycles
 SCF Done:  E(RwB97XD) =  -3360.31647031     A.U. after   10 cycles
 SCF Done:  E(RwB97XD) =  -3360.31645495     A.U. after   10 cycles
 SCF Done:  E(RwB97XD) =  -3360.31644286     A.U. after   10 cycles
 SCF Done:  E(RwB97XD) =  -3360.31643469     A.U. after   10 cycles
 SCF Done:  E(RwB97XD) =  -3360.31643058     A.U. after   10 cycles
 SCF Done:  E(RwB97XD) =  -3360.31643062     A.U. after   10 cycles
 SCF Done:  E(RwB97XD) =  -3360.31644059     A.U. after   10 cycles
 SCF Done:  E(RwB97XD) =  -3360.31646951     A.U. after   11 cycles
 SCF Done:  E(RwB97XD) =  -3360.31651025     A.U. after   10 cycles
 SCF Done:  E(RwB97XD) =  -3360.31867650     A.U. after   10 cycles
 SCF Done:  E(RwB97XD) =  -3360.31873183     A.U. after   10 cycles
 SCF Done:  E(RwB97XD) =  -3360.31877411     A.U. after   10 cycles
 SCF Done:  E(RwB97XD) =  -3360.31880419     A.U. after   10 cycles
 SCF Done:  E(RwB97XD) =  -3360.31882761     A.U. after   10 cycles
 SCF Done:  E(RwB97XD) =  -3360.31884069     A.U. after   10 cycles
 SCF Done:  E(RwB97XD) =  -3360.31884271     A.U. after   10 cycles
 SCF Done:  E(RwB97XD) =  -3360.31884270     A.U. after    8 cycles
 SCF Done:  E(RwB97XD) =  -3360.31884286     A.U. after    8 cycles
 Optimization completed.
    -- Stationary point found.
 Normal termination of Gaussian 16 at Sun Feb 21 17:01:28 2021.

 ---------------------------------------------------------------------
 #N Geom=AllCheck Guess=TCheck SCRF=Check GenChk RwB97XD/def2TZVP Freq
 ---------------------------------------------------------------------

 Structure from the checkpoint file:  "/beegfs/scratch/user/q/tla25/Gau-12690.chk"
 ------------------------
 0_iteration/TS-770-0.out
 ------------------------
 Charge =  0 Multiplicity = 1

                         Standard orientation:
 ---------------------------------------------------------------------
 Center     Atomic      Atomic             Coordinates (Angstroms)
 Number     Number       Type             X           Y           Z
 ---------------------------------------------------------------------
      1          6           0       -0.773664   -0.836052   -0.437137
      2          6           0       -2.188435   -0.926457   -0.206241
      3          8           0       -2.848527   -1.756364   -0.840618
      4          6           0        0.188731    0.013991    0.074730
      5          6           0       -0.831446    2.225891   -1.287005
      6          1           0       -0.721828    2.959264   -2.084463
      7          1           0       -1.558617    1.473173   -1.593502
      8          1           0       -1.176267    2.723527   -0.383506
      9          7           0        0.433023    1.554255   -1.015964
     10          1           0        0.838159    1.178020   -1.866627
     11          1           0        1.114493    2.171323   -0.585802
     12         35           0        2.017384   -0.652310   -0.081317
     13         17           0       -0.029102    0.832326    1.617205
     14          1           0       -0.417849   -1.514347   -1.202496
     15          6           0       -2.916226   -0.068118    0.807059
     16          1           0       -2.683618    0.990552    0.704147
     17          1           0       -3.985277   -0.220207    0.674055
     18          1           0       -2.639604   -0.364388    1.820082
 ---------------------------------------------------------------------

 SCF Done:  E(RwB97XD) =  -3360.31884286     A.U. after    1 cycles

 The electronic state is 1-A.
 Alpha  occ. eigenvalues -- -483.14098-101.71541 -62.68958 -56.48083 -56.47711
 Alpha  occ. eigenvalues --  -56.47702 -19.20835 -14.50275 -10.45107 -10.36173
 Alpha  occ. eigenvalues --  -10.32390 -10.27300 -10.26540  -9.60135  -8.83075
 Alpha  occ. eigenvalues --   -7.34805  -7.33900  -7.33866  -6.65260  -6.64077
 Alpha  occ. eigenvalues --   -6.64048  -2.75638  -2.75304  -2.75282  -2.74325
 Alpha  occ. eigenvalues --   -2.74324  -1.11643  -1.06039  -0.99399  -0.90300
 Alpha  occ. eigenvalues --   -0.85875  -0.81538  -0.79812  -0.70206  -0.64812
 Alpha  occ. eigenvalues --   -0.61714  -0.58664  -0.57008  -0.55504  -0.54883
 Alpha  occ. eigenvalues --   -0.51628  -0.49785  -0.49233  -0.48366  -0.48065
 Alpha  occ. eigenvalues --   -0.45291  -0.43551  -0.41403  -0.40602  -0.38173
 Alpha  occ. eigenvalues --   -0.37895  -0.32628  -0.29143
 Alpha virt. eigenvalues --    0.02650   0.03914   0.08565   0.10408   0.13117
 Alpha virt. eigenvalues --    0.13392   0.15486   0.16211   0.17998   0.18683
 Alpha virt. eigenvalues --    0.19065   0.20526   0.21172   0.22699   0.23324

 Mulliken charges:
               1
     1  C   -0.466002
     2  C    0.272689
     3  O   -0.502492
     4  C    0.179256
     5  C   -0.335028
     6  H    0.172563
     7  H    0.169009
     8  H    0.169038
     9  N   -0.296360
    10  H    0.291835
    11  H    0.300527
    12  Br  -0.073315
    13  Cl  -0.053447
    14  H    0.137590
    15  C   -0.366392
    16  H    0.133369
    17  H    0.123432
    18  H    0.143728
 Sum of Mulliken charges =  -0.00000

 Dipole moment (field-independent basis, Debye):
    X=              4.6574    Y=              8.8939    Z=             -1.3144  Tot=             10.1252
 Quadrupole moment (field-independent basis, Debye-Ang):
   XX=            -86.5792   YY=            -72.3540   ZZ=            -70.5057
   XY=            -10.7087   XZ=             -8.7433   YZ=             -9.2037

  Exact polarizability: 186.592  17.639 152.476   0.409   6.977 129.882
 Approx polarizability: 143.344  12.223 127.347   1.321   7.850 113.900

 ******    1 imaginary frequencies (negative Signs) ******

                      1                      2                      3
                      A                      A                      A
 Frequencies --   -359.7050                60.8995                83.5938
 Red. masses --      6.0740                 3.8767                 3.9534
 Frc consts  --      0.4630                 0.0085                 0.0163
 IR Inten    --    823.1689                 5.7566                 0.1875

                      4                      5                      6
                      A                      A                      A
 Frequencies --    112.5744               146.2095               165.9911
 Red. masses --      2.7031                 2.6479                 1.8124
 Frc consts  --      0.0202                 0.0333                 0.0294
 IR Inten    --      4.2570                 3.0016                 2.0248

                      7                      8                      9
                      A                      A                      A
 Frequencies --    189.2171               211.1374               218.4035
 Red. masses --      3.9952                 1.6257                 2.5658
 Frc consts  --      0.0843                 0.0427                 0.0721
 IR Inten    --      1.4982                 2.3943                 3.7054

                     10                     11                     12
                      A                      A                      A
 Frequencies --    266.1944               281.2508               291.3203
 Red. masses --      3.7281                 3.7961                 3.2325
 Frc consts  --      0.1556                 0.1769                 0.1616
 IR Inten    --      8.2226                19.0910                10.0238

                     13                     14                     15
                      A                      A                      A
 Frequencies --    370.4896               508.2085               539.9867
 Red. masses --      5.8633                 4.9849                 3.2215
 Frc consts  --      0.4742                 0.7586                 0.5535
 IR Inten    --      8.0448                89.5808                57.2221

                     16                     17                     18
                      A                      A                      A
 Frequencies --    572.5344               639.9325               715.4834
 Red. masses --      2.0494                 3.0348                 1.5338
 Frc consts  --      0.3958                 0.7322                 0.4626
 IR Inten    --      0.8119                17.2423                62.4027

                     19                     20                     21
                      A                      A                      A
 Frequencies --    777.6561               784.6835               853.9422
 Red. masses --      2.2874                 3.2163                 3.1506
 Frc consts  --      0.8150                 1.1668                 1.3536
 IR Inten    --    179.6877               168.3044                56.5370

                     22                     23                     24
                      A                      A                      A
 Frequencies --   1006.1935              1029.1476              1045.9485
 Red. masses --      1.1272                 1.4935                 1.8156
 Frc consts  --      0.6724                 0.9320                 1.1703
 IR Inten    --     48.3427               112.3785                 9.0461

                     25                     26                     27
                      A                      A                      A
 Frequencies --   1061.1513              1079.4992              1233.5921
 Red. masses --      1.1615                 4.7078                 1.3789
 Frc consts  --      0.7706                 3.2323                 1.2363
 IR Inten    --     68.3113                69.7571                26.8018

                     28                     29                     30
                      A                      A                      A
 Frequencies --   1264.1991              1309.1617              1345.1508
 Red. masses --      1.6910                 2.6810                 1.3170
 Frc consts  --      1.5923                 2.7073                 1.4040
 IR Inten    --    460.9214               298.3600                 2.4110

                     31                     32                     33
                      A                      A                      A
 Frequencies --   1396.6781              1441.9048              1456.6760
 Red. masses --      1.4063                 1.5263                 1.0995
 Frc consts  --      1.6163                 1.8696                 1.3745
 IR Inten    --     72.3155               598.5979                55.9127

                     34                     35                     36
                      A                      A                      A
 Frequencies --   1470.8870              1486.5591              1498.4342
 Red. masses --      2.0797                 1.0574                 1.0427
 Frc consts  --      2.6509                 1.3767                 1.3794
 IR Inten    --    613.1769                33.5614                15.8193

                     37                     38                     39
                      A                      A                      A
 Frequencies --   1503.2086              1639.3657              1645.9219
 Red. masses --      1.0392                 1.1193                 7.0907
 Frc consts  --      1.3835                 1.7723                11.3177
 IR Inten    --     26.2959               132.5253               684.1243

                     40                     41                     42
                      A                      A                      A
 Frequencies --   3071.3248              3071.7870              3148.3665
 Red. masses --      1.0334                 1.0371                 1.0984
 Frc consts  --      5.7437                 5.7660                 6.4150
 IR Inten    --     21.0121                 8.5445                12.3747

                     43                     44                     45
                      A                      A                      A
 Frequencies --   3150.5969              3170.9358              3174.5020
 Red. masses --      1.1041                 1.1044                 1.1059
 Frc consts  --      6.4571                 6.5424                 6.5665
 IR Inten    --      4.7663                26.9721                 8.9890

                     46                     47                     48
                      A                      A                      A
 Frequencies --   3196.9090              3510.0985              3596.6874
 Red. masses --      1.0868                 1.0505                 1.0975
 Frc consts  --      6.5442                 7.6261                 8.3647
 IR Inten    --      0.9117                73.4789                63.9700

 - Thermochemistry -
 -------------------
 Temperature   298.150 Kelvin.  Pressure   1.00000 Atm.
 Atom     1 has atomic number  6 and mass  12.00000

 Molecular mass:   212.95560 amu.
 Principal axes and moments of inertia in atomic units:
                           1         2         3
     Eigenvalues --  1468.023912944.849513251.03797
           X            0.99988   0.01133  -0.01034
           Y           -0.01283   0.98730  -0.15833
           Z            0.00841   0.15844   0.98733
 This molecule is an asymmetric top.
 Rotational symmetry number  1.
 Warning -- assumption of classical behavior for rotation
           may cause significant error
 Rotational temperatures (Kelvin)      0.05900     0.02941     0.02664
 Rotational constants (GHZ):           1.22937     0.61285     0.55513
    1 imaginary frequencies ignored.
 Zero-point vibrational energy     363632.4 (Joules/Mol)
                                   86.91024 (Kcal/Mol)
 Warning -- explicit consideration of  15 degrees of freedom as
           vibrations may cause significant error
 Vibrational temperatures:     87.62   120.27   161.97   210.36   238.82
          (Kelvin)            272.24   303.78   314.23   382.99   404.66
                              419.14   533.05   731.20   776.92   823.75
                              920.72  1029.42  1118.87  1128.98  1228.63
                             1447.69  1480.71  1504.89  1526.76  1553.16
                             1774.86  1818.90  1883.59  1935.37  2009.51
                             2074.58  2095.83  2116.28  2138.83  2155.91
                             2162.78  2358.68  2368.11  4418.95  4419.62
                             4529.80  4533.01  4562.27  4567.40  4599.64
                             5050.25  5174.83

 Zero-point correction=                           0.138500 (Hartree/Particle)
 Thermal correction to Energy=                    0.149538
 Thermal correction to Enthalpy=                  0.150482
 Thermal correction to Gibbs Free Energy=         0.100502
 Sum of electronic and zero-point Energies=          -3360.180343
 Sum of electronic and thermal Energies=             -3360.169305
 Sum of electronic and thermal Enthalpies=           -3360.168361
 Sum of electronic and thermal Free Energies=        -3360.218340

                     E (Thermal)             CV                S
                      KCal/Mol        Cal/Mol-Kelvin    Cal/Mol-Kelvin
 Total                   93.836             37.914            105.191
 Electronic               0.000              0.000              0.000
 Translational            0.889              2.981             41.971
 Rotational               0.889              2.981             31.020
 Vibrational             92.059             31.953             32.200
 Vibration     1          0.597              1.973              4.428
 Vibration     2          0.600              1.960              3.805
 Vibration     3          0.607              1.939              3.224
 Vibration     4          0.617              1.907              2.721
 Vibration     5          0.624              1.884              2.480
 Vibration     6          0.633              1.855              2.235
 Vibration     7          0.643              1.824              2.034
 Vibration     8          0.646              1.813              1.972
 Vibration     9          0.672              1.735              1.621
 Vibration    10          0.681              1.708              1.526
 Vibration    11          0.687              1.690              1.466
 Vibration    12          0.742              1.533              1.078
 Vibration    13          0.863              1.232              0.638
 Vibration    14          0.895              1.162              0.565
 Vibration    15          0.929              1.091              0.499

 Optimization completed.
    -- Stationary point found.
 Normal termination of Gaussian 16 at Sun Feb 21 17:12:01 2021.
