 Gaussian 16, Revision A.03,
 Gaussian 16:  ES64L-G16RevA.03 25-Dec-2016

 ----------------------------------------------------------------------
 # wB97XD def2tzvp, opt=(ts, noeigen, calcfc, maxcycles=70, maxstep=8),
  freq=noraman, scrf=(iefpcm, solvent=water)
 ----------------------------------------------------------------------

 ------------------------
 1_iteration/TS-718-1.out
 ------------------------
 Symbolic Z-matrix:
 Charge =  0 Multiplicity = 1

 SCF Done:  E(RwB97XD) =  -3494.31832501     A.U. after   15 cycles
 SCF Done:  E(RwB97XD) =  -3494.31857317     A.U. after   13 cycles
 SCF Done:  E(RwB97XD) =  -3494.31858121     A.U. after   11 cycles
 SCF Done:  E(RwB97XD) =  -3494.31858292     A.U. after    9 cycles
 SCF Done:  E(RwB97XD) =  -3494.31858294     A.U. after    8 cycles
 Optimization completed.
    -- Stationary point found.
 Normal termination of Gaussian 16 at Mon Feb 22 06:01:10 2021.

 ---------------------------------------------------------------------
 #N Geom=AllCheck Guess=TCheck SCRF=Check GenChk RwB97XD/def2TZVP Freq
 ---------------------------------------------------------------------

 Structure from the checkpoint file:  "/beegfs/scratch/user/q/tla25/Gau-93033.chk"
 ------------------------
 1_iteration/TS-718-1.out
 ------------------------
 Charge =  0 Multiplicity = 1

                         Standard orientation:
 ---------------------------------------------------------------------
 Center     Atomic      Atomic             Coordinates (Angstroms)
 Number     Number       Type             X           Y           Z
 ---------------------------------------------------------------------
      1          6           0       -0.511766   -0.288272    0.061189
      2          6           0       -1.694699    0.576058    0.086544
      3          8           0       -1.589515    1.816105    0.012827
      4          6           0        0.731828    0.268295    0.402768
      5          6           0        2.331219    2.392704   -0.836872
      6          1           0        2.442675    2.974925   -1.752333
      7          1           0        2.216383    3.075503    0.001372
      8          1           0        3.224829    1.788078   -0.688643
      9          7           0        1.162610    1.517874   -0.913719
     10          1           0        0.278979    2.029354   -0.872686
     11          1           0        1.167925    0.964109   -1.762767
     12         35           0        2.258744   -0.927798    0.297379
     13          6           0        0.837394    1.112121    1.650745
     14          1           0        0.047409    1.858890    1.661598
     15          1           0        0.730001    0.465139    2.520336
     16          1           0        1.804570    1.606614    1.713102
     17         17           0       -0.567288   -1.563461   -1.167591
     18          7           0       -2.920843    0.002249    0.164324
     19          6           0       -3.156118   -1.346619    0.631779
     20          6           0       -4.103392    0.810968   -0.037486
     21          1           0       -2.248212   -1.755250    1.067031
     22          1           0       -3.932143   -1.325300    1.400845
     23          1           0       -3.488948   -2.001402   -0.177550
     24          1           0       -3.857264    1.679014   -0.642405
     25          1           0       -4.860576    0.215359   -0.550062
     26          1           0       -4.520824    1.155486    0.914076
 ---------------------------------------------------------------------

 SCF Done:  E(RwB97XD) =  -3494.31858294     A.U. after    1 cycles

 The electronic state is 1-A.
 Alpha  occ. eigenvalues -- -483.13141-101.68442 -62.67997 -56.47110 -56.46764
 Alpha  occ. eigenvalues --  -56.46744 -19.20775 -14.48680 -14.45856 -10.40046
 Alpha  occ. eigenvalues --  -10.38312 -10.31940 -10.30628 -10.30451 -10.30133
 Alpha  occ. eigenvalues --  -10.28665  -9.56958  -8.82111  -7.31584  -7.30757
 Alpha  occ. eigenvalues --   -7.30732  -6.64254  -6.63152  -6.63091  -2.74643
 Alpha  occ. eigenvalues --   -2.74336  -2.74288  -2.73396  -2.73395  -1.13468
 Alpha  occ. eigenvalues --   -1.04425  -1.03224  -0.96556  -0.91572  -0.84825
 Alpha  occ. eigenvalues --   -0.81982  -0.80476  -0.79699  -0.76415  -0.67386
 Alpha  occ. eigenvalues --   -0.63577  -0.61876  -0.58942  -0.56918  -0.56334
 Alpha  occ. eigenvalues --   -0.55984  -0.55526  -0.53712  -0.51014  -0.49848
 Alpha  occ. eigenvalues --   -0.48495  -0.48416  -0.48117  -0.47544  -0.46673
 Alpha  occ. eigenvalues --   -0.45618  -0.45409  -0.43486  -0.41086  -0.40172
 Alpha  occ. eigenvalues --   -0.37572  -0.36566  -0.34605  -0.32001  -0.26308
 Alpha virt. eigenvalues --    0.04678   0.06215   0.10342   0.11256   0.12353
 Alpha virt. eigenvalues --    0.14022   0.15562   0.15981   0.17003   0.17643
 Alpha virt. eigenvalues --    0.17863   0.18364   0.18882   0.19201   0.19922

 Mulliken charges:
               1
     1  C   -0.266840
     2  C    0.334075
     3  O   -0.579493
     4  C    0.167655
     5  C   -0.296657
     6  H    0.158020
     7  H    0.162515
     8  H    0.151808
     9  N   -0.296531
    10  H    0.275397
    11  H    0.281134
    12  Br  -0.100001
    13  C   -0.430988
    14  H    0.164910
    15  H    0.152415
    16  H    0.152381
    17  Cl  -0.189937
    18  N   -0.102278
    19  C   -0.301539
    20  C   -0.289328
    21  H    0.159956
    22  H    0.136684
    23  H    0.140385
    24  H    0.140949
    25  H    0.139034
    26  H    0.136275
 Sum of Mulliken charges =  -0.00000

 Dipole moment (field-independent basis, Debye):
    X=              1.5072    Y=              3.1144    Z=             -0.5949  Tot=              3.5107
 Quadrupole moment (field-independent basis, Debye-Ang):
   XX=            -80.2573   YY=            -93.5845   ZZ=            -88.8765
   XY=             12.7797   XZ=             -4.8262   YZ=             -4.7719

  Exact polarizability: 237.553  12.808 197.286  -8.193   0.453 155.337
 Approx polarizability: 174.242   5.988 166.819  -5.034   0.865 135.975

 ******    1 imaginary frequencies (negative Signs) ******

                      1                      2                      3
                      A                      A                      A
 Frequencies --   -387.0597                51.8048                65.5380
 Red. masses --      6.4203                 5.9062                 3.2775
 Frc consts  --      0.5667                 0.0093                 0.0083
 IR Inten    --    924.7770                 1.5540                 9.2483

                      4                      5                      6
                      A                      A                      A
 Frequencies --     94.7052                98.4786               112.7724
 Red. masses --      1.9775                 1.8801                 2.6106
 Frc consts  --      0.0104                 0.0107                 0.0196
 IR Inten    --      2.1439                 6.6701                 3.4125

                      7                      8                      9
                      A                      A                      A
 Frequencies --    119.3256               151.2267               164.7353
 Red. masses --      2.8027                 2.3740                 1.6144
 Frc consts  --      0.0235                 0.0320                 0.0258
 IR Inten    --     23.8762                 1.2083                 9.4750

                     10                     11                     12
                      A                      A                      A
 Frequencies --    178.5391               201.6897               210.0926
 Red. masses --      2.4670                 1.6274                 3.0182
 Frc consts  --      0.0463                 0.0390                 0.0785
 IR Inten    --      4.4977                 3.0678                 2.8103

                     13                     14                     15
                      A                      A                      A
 Frequencies --    241.4204               255.3430               259.8901
 Red. masses --      3.6019                 2.4326                 2.5613
 Frc consts  --      0.1237                 0.0934                 0.1019
 IR Inten    --      3.8159                21.2772                14.5173

                     16                     17                     18
                      A                      A                      A
 Frequencies --    277.8510               306.8839               320.3011
 Red. masses --      2.2998                 2.3417                 2.8535
 Frc consts  --      0.1046                 0.1299                 0.1725
 IR Inten    --     20.9535                22.6682                 5.0634

                     19                     20                     21
                      A                      A                      A
 Frequencies --    369.4653               398.5621               459.2165
 Red. masses --      3.2718                 3.2414                 3.6281
 Frc consts  --      0.2631                 0.3034                 0.4508
 IR Inten    --     20.2057                 7.8250                76.1484

                     22                     23                     24
                      A                      A                      A
 Frequencies --    500.2555               532.8038               644.2027
 Red. masses --      4.3291                 7.6701                 5.3171
 Frc consts  --      0.6383                 1.2829                 1.3001
 IR Inten    --     25.6629                68.6038                25.6641

                     25                     26                     27
                      A                      A                      A
 Frequencies --    692.5580               746.8851               778.9719
 Red. masses --      3.1095                 1.5184                 8.4201
 Frc consts  --      0.8787                 0.4991                 3.0103
 IR Inten    --     22.5131                40.5622                87.2913

                     28                     29                     30
                      A                      A                      A
 Frequencies --    911.2420               995.2055              1043.1383
 Red. masses --      4.0958                 2.9829                 1.3011
 Frc consts  --      2.0038                 1.7407                 0.8342
 IR Inten    --     13.3388               118.2096                23.8258

                     31                     32                     33
                      A                      A                      A
 Frequencies --   1048.2811              1062.4309              1073.6542
 Red. masses --      1.9169                 1.6359                 1.4006
 Frc consts  --      1.2411                 1.0880                 0.9512
 IR Inten    --      7.4466                34.7035               136.6001

                     34                     35                     36
                      A                      A                      A
 Frequencies --   1082.7687              1110.1151              1132.1451
 Red. masses --      1.3801                 2.0040                 1.2304
 Frc consts  --      0.9533                 1.4551                 0.9292
 IR Inten    --     23.0562               179.9527                 0.5129

                     37                     38                     39
                      A                      A                      A
 Frequencies --   1142.0830              1171.3910              1220.8893
 Red. masses --      2.2140                 1.4025                 2.7687
 Frc consts  --      1.7015                 1.1339                 2.4315
 IR Inten    --     93.3905                 2.9265               310.5220

                     40                     41                     42
                      A                      A                      A
 Frequencies --   1243.5617              1315.9158              1352.8248
 Red. masses --      1.4706                 5.3670                 1.2786
 Frc consts  --      1.3399                 5.4757                 1.3787
 IR Inten    --     69.9799                50.2250                 5.0937

                     43                     44                     45
                      A                      A                      A
 Frequencies --   1377.3874              1414.5282              1431.8100
 Red. masses --      3.4342                 1.4015                 1.5251
 Frc consts  --      3.8387                 1.6522                 1.8421
 IR Inten    --    786.3503               172.3668                82.0538

                     46                     47                     48
                      A                      A                      A
 Frequencies --   1438.6454              1461.4903              1468.7206
 Red. masses --      1.3224                 1.1961                 1.2638
 Frc consts  --      1.6126                 1.5053                 1.6062
 IR Inten    --     56.3055                 9.2521                87.5974

                     49                     50                     51
                      A                      A                      A
 Frequencies --   1481.7668              1483.1932              1486.1474
 Red. masses --      1.0541                 1.0803                 1.0959
 Frc consts  --      1.3636                 1.4002                 1.4261
 IR Inten    --     27.5422                18.0950                 9.6029

                     52                     53                     54
                      A                      A                      A
 Frequencies --   1487.8767              1497.1151              1501.4728
 Red. masses --      1.0487                 1.0493                 1.0521
 Frc consts  --      1.3678                 1.3857                 1.3974
 IR Inten    --     19.2849                13.6805                18.0018

                     55                     56                     57
                      A                      A                      A
 Frequencies --   1511.9388              1534.2139              1614.7057
 Red. masses --      1.0389                 1.7003                 5.4761
 Frc consts  --      1.3992                 2.3580                 8.4122
 IR Inten    --     16.9714               230.9234               696.5902

                     58                     59                     60
                      A                      A                      A
 Frequencies --   1658.7307              3033.7777              3041.4977
 Red. masses --      1.0868                 1.0431                 1.0381
 Frc consts  --      1.7618                 5.6562                 5.6579
 IR Inten    --     48.5980                79.6664               118.3695

                     61                     62                     63
                      A                      A                      A
 Frequencies --   3069.5389              3085.9604              3096.6880
 Red. masses --      1.0354                 1.0359                 1.1018
 Frc consts  --      5.7478                 5.8125                 6.2249
 IR Inten    --     48.0034                15.4633                76.1457

                     64                     65                     66
                      A                      A                      A
 Frequencies --   3104.3228              3145.6854              3161.3793
 Red. masses --      1.0990                 1.1034                 1.1027
 Frc consts  --      6.2398                 6.4327                 6.4934
 IR Inten    --     15.3799                14.1218                12.2302

                     67                     68                     69
                      A                      A                      A
 Frequencies --   3168.8742              3175.4035              3177.6929
 Red. masses --      1.0996                 1.0994                 1.1044
 Frc consts  --      6.5056                 6.5313                 6.5707
 IR Inten    --      9.9695                 9.7600                14.2601

                     70                     71                     72
                      A                      A                      A
 Frequencies --   3187.1989              3417.8459              3572.3125
 Red. masses --      1.1025                 1.0642                 1.0854
 Frc consts  --      6.5984                 7.3247                 8.1610
 IR Inten    --      0.8379               148.2248                64.3466

 - Thermochemistry -
 -------------------
 Temperature   298.150 Kelvin.  Pressure   1.00000 Atm.
 Atom     1 has atomic number  6 and mass  12.00000

 Molecular mass:   255.99780 amu.
 Principal axes and moments of inertia in atomic units:
                           1         2         3
     Eigenvalues --  1921.215714602.196905533.42265
           X            0.99822   0.05705  -0.01764
           Y           -0.05747   0.99806  -0.02399
           Z            0.01623   0.02496   0.99956
 This molecule is an asymmetric top.
 Rotational symmetry number  1.
 Warning -- assumption of classical behavior for rotation
           may cause significant error
 Rotational temperatures (Kelvin)      0.04508     0.01882     0.01565
 Rotational constants (GHZ):           0.93937     0.39215     0.32615
    1 imaginary frequencies ignored.
 Zero-point vibrational energy     558818.1 (Joules/Mol)
                                  133.56072 (Kcal/Mol)
 Warning -- explicit consideration of  22 degrees of freedom as
           vibrations may cause significant error
 Vibrational temperatures:     74.54    94.29   136.26   141.69   162.25
          (Kelvin)            171.68   217.58   237.02   256.88   290.19
                              302.28   347.35   367.38   373.92   399.77
                              441.54   460.84   531.58   573.44   660.71
                              719.76   766.59   926.86   996.44  1074.60
                             1120.77  1311.07  1431.88  1500.84  1508.24
                             1528.60  1544.75  1557.86  1597.21  1628.90
                             1643.20  1685.37  1756.59  1789.21  1893.31
                             1946.41  1981.75  2035.19  2060.06  2069.89
                             2102.76  2113.16  2131.93  2133.98  2138.23
                             2140.72  2154.01  2160.28  2175.34  2207.39
                             2323.20  2386.54  4364.93  4376.04  4416.38
                             4440.01  4455.44  4466.43  4525.94  4548.52
                             4559.30  4568.70  4571.99  4585.67  4917.52
                             5139.76

 Zero-point correction=                           0.212843 (Hartree/Particle)
 Thermal correction to Energy=                    0.228082
 Thermal correction to Enthalpy=                  0.229026
 Thermal correction to Gibbs Free Energy=         0.169831
 Sum of electronic and zero-point Energies=          -3494.105740
 Sum of electronic and thermal Energies=             -3494.090501
 Sum of electronic and thermal Enthalpies=           -3494.089557
 Sum of electronic and thermal Free Energies=        -3494.148752

                     E (Thermal)             CV                S
                      KCal/Mol        Cal/Mol-Kelvin    Cal/Mol-Kelvin
 Total                  143.124             52.615            124.586
 Electronic               0.000              0.000              0.000
 Translational            0.889              2.981             42.520
 Rotational               0.889              2.981             32.259
 Vibrational            141.346             46.654             49.807
 Vibration     1          0.596              1.977              4.747
 Vibration     2          0.597              1.971              4.283
 Vibration     3          0.603              1.953              3.560
 Vibration     4          0.604              1.950              3.484
 Vibration     5          0.607              1.939              3.221
 Vibration     6          0.609              1.933              3.111
 Vibration     7          0.619              1.901              2.657
 Vibration     8          0.623              1.886              2.495
 Vibration     9          0.629              1.869              2.344
 Vibration    10          0.639              1.837              2.118
 Vibration    11          0.642              1.825              2.043
 Vibration    12          0.658              1.777              1.792
 Vibration    13          0.666              1.754              1.693
 Vibration    14          0.668              1.746              1.663
 Vibration    15          0.679              1.714              1.547
 Vibration    16          0.697              1.661              1.379
 Vibration    17          0.706              1.635              1.309
 Vibration    18          0.742              1.535              1.082
 Vibration    19          0.765              1.473              0.968
 Vibration    20          0.817              1.341              0.768
 Vibration    21          0.856              1.249              0.657
 Vibration    22          0.888              1.177              0.581

 Optimization completed.
    -- Stationary point found.
 Normal termination of Gaussian 16 at Mon Feb 22 06:35:28 2021.
