 Gaussian 16, Revision A.03,
 Gaussian 16:  ES64L-G16RevA.03 25-Dec-2016

 ----------------------------------------------------------------------
 # wB97XD def2tzvp, opt=(ts, noeigen, calcfc, maxcycles=70, maxstep=5),
  freq=noraman, scrf=(iefpcm, solvent=water)
 ----------------------------------------------------------------------

 -----------------------
 2_iteration/TS-70-2.out
 -----------------------
 Symbolic Z-matrix:
 Charge =  0 Multiplicity = 1

 SCF Done:  E(RwB97XD) =  -3226.45123696     A.U. after   14 cycles
 Optimization completed.
    -- Stationary point found.
 Normal termination of Gaussian 16 at Sun Jan 31 14:10:07 2021.

 ---------------------------------------------------------------------
 #N Geom=AllCheck Guess=TCheck SCRF=Check GenChk RwB97XD/def2TZVP Freq
 ---------------------------------------------------------------------

 Structure from the checkpoint file:  "/beegfs/scratch/user/q/tla25/Gau-14663.chk"
 -----------------------
 2_iteration/TS-70-2.out
 -----------------------
 Charge =  0 Multiplicity = 1

                         Standard orientation:
 ---------------------------------------------------------------------
 Center     Atomic      Atomic             Coordinates (Angstroms)
 Number     Number       Type             X           Y           Z
 ---------------------------------------------------------------------
      1          6           0       -0.750720    0.041691    0.180339
      2          6           0       -2.016689    0.740461    0.326499
      3          8           0       -2.046789    1.985781    0.251359
      4          6           0        0.416221    0.798400    0.316099
      5          6           0        1.575691    3.072210   -0.959801
      6          1           0        2.557611    2.613510   -1.063351
      7          1           0        1.468401    3.862550   -1.703811
      8          1           0        1.499011    3.511680    0.034639
      9          7           0        0.547541    2.048420   -1.101591
     10          1           0       -0.395899    2.417340   -0.993481
     11          1           0        0.608791    1.556860   -1.984441
     12          6           0        1.785790    0.213000    0.392859
     13          6           0        2.438450   -0.351570   -0.698991
     14          6           0        3.713410   -0.878660   -0.563211
     15          6           0        4.353260   -0.854290    0.667859
     16          6           0        3.713450   -0.289090    1.760999
     17          6           0        2.442830    0.248010    1.619859
     18          1           0        1.954650   -0.380070   -1.666191
     19          1           0        4.208410   -1.310120   -1.423981
     20          1           0        5.348290   -1.267740    0.772429
     21          1           0        4.206410   -0.257120    2.724339
     22          1           0        1.951431    0.698620    2.474169
     23          1           0        0.278731    1.597160    1.039769
     24         35           0       -0.715590   -1.576339   -0.857361
     25          7           0       -3.170720    0.047281    0.537749
     26          6           0       -3.221230   -1.241549    1.196559
     27          6           0       -4.432109    0.752211    0.469039
     28          1           0       -2.231760   -1.531189    1.538469
     29          1           0       -3.877120   -1.170829    2.068899
     30          1           0       -3.610020   -2.019949    0.535319
     31          1           0       -4.370309    1.556201   -0.259401
     32          1           0       -5.211530    0.051961    0.164709
     33          1           0       -4.713019    1.181921    1.436959
 ---------------------------------------------------------------------

 SCF Done:  E(RwB97XD) =  -3226.45123696     A.U. after    1 cycles

 The electronic state is 1-A.
 Alpha  occ. eigenvalues -- -483.11663 -62.66487 -56.45588 -56.45259 -56.45254
 Alpha  occ. eigenvalues --  -19.20378 -14.47420 -14.45304 -10.37717 -10.34110
 Alpha  occ. eigenvalues --  -10.31537 -10.30650 -10.30529 -10.30269 -10.29609
 Alpha  occ. eigenvalues --  -10.29379 -10.29367 -10.29247 -10.29221 -10.29149
 Alpha  occ. eigenvalues --   -8.80593  -6.62689  -6.61636  -6.61622  -2.73087
 Alpha  occ. eigenvalues --   -2.72779  -2.72767  -2.71915  -2.71915  -1.12914
 Alpha  occ. eigenvalues --   -1.03335  -1.02634  -0.97307  -0.92003  -0.87176
 Alpha  occ. eigenvalues --   -0.85438  -0.82282  -0.81321  -0.79446  -0.78051
 Alpha  occ. eigenvalues --   -0.72370  -0.70900  -0.67292  -0.63464  -0.62396
 Alpha  occ. eigenvalues --   -0.60030  -0.58557  -0.56511  -0.56020  -0.55873
 Alpha  occ. eigenvalues --   -0.55031  -0.54586  -0.52651  -0.51444  -0.51104
 Alpha  occ. eigenvalues --   -0.49945  -0.48335  -0.47913  -0.47851  -0.47027
 Alpha  occ. eigenvalues --   -0.46825  -0.45925  -0.44547  -0.43872  -0.42910
 Alpha  occ. eigenvalues --   -0.42313  -0.38283  -0.37216  -0.34517  -0.33745
 Alpha  occ. eigenvalues --   -0.33475  -0.31592  -0.26040
 Alpha virt. eigenvalues --    0.03485   0.05021   0.06889   0.09126   0.11154
 Alpha virt. eigenvalues --    0.12329   0.13204   0.13646   0.14961   0.15787
 Alpha virt. eigenvalues --    0.15902   0.17199   0.17552   0.17629   0.18174

 Mulliken charges:
               1
     1  C   -0.257039
     2  C    0.346503
     3  O   -0.582431
     4  C   -0.107756
     5  C   -0.278875
     6  H    0.152364
     7  H    0.152436
     8  H    0.147649
     9  N   -0.313037
    10  H    0.273805
    11  H    0.273062
    12  C    0.327536
    13  C   -0.313256
    14  C   -0.126029
    15  C   -0.152739
    16  C   -0.138225
    17  C   -0.252678
    18  H    0.154942
    19  H    0.144634
    20  H    0.145525
    21  H    0.144165
    22  H    0.144548
    23  H    0.162835
    24  Br  -0.171605
    25  N   -0.125362
    26  C   -0.294013
    27  C   -0.294432
    28  H    0.154873
    29  H    0.135866
    30  H    0.139160
    31  H    0.137576
    32  H    0.138586
    33  H    0.131413
 Sum of Mulliken charges =  -0.00000

 Dipole moment (field-independent basis, Debye):
    X=              3.2518    Y=              2.2854    Z=             -1.3180  Tot=              4.1874
 Quadrupole moment (field-independent basis, Debye-Ang):
   XX=            -95.0068   YY=           -108.8477   ZZ=            -99.5861
   XY=              8.6173   XZ=             -3.3746   YZ=             -6.1342

  Exact polarizability: 309.683   0.050 239.879  -8.808   6.182 226.130
 Approx polarizability: 224.054  -4.689 198.603  -4.148   7.607 196.586

 ******    1 imaginary frequencies (negative Signs) ******

                      1                      2                      3
                      A                      A                      A
 Frequencies --   -366.4919                41.2865                41.6642
 Red. masses --      6.2631                 5.6482                 4.1675
 Frc consts  --      0.4956                 0.0057                 0.0043
 IR Inten    --    934.5685                 0.3767                 0.5122

                      4                      5                      6
                      A                      A                      A
 Frequencies --     61.2786                76.5376                85.3527
 Red. masses --      3.5297                 4.3152                 3.3426
 Frc consts  --      0.0078                 0.0149                 0.0143
 IR Inten    --      6.3676                 2.5910                 3.7009

                      7                      8                      9
                      A                      A                      A
 Frequencies --    100.6485               125.3683               130.8676
 Red. masses --      3.5401                 6.5741                 1.7222
 Frc consts  --      0.0211                 0.0609                 0.0174
 IR Inten    --      7.4963                15.8832                 2.0665

                     10                     11                     12
                      A                      A                      A
 Frequencies --    151.4047               170.2440               189.0454
 Red. masses --      1.3544                 1.6030                 2.2659
 Frc consts  --      0.0183                 0.0274                 0.0477
 IR Inten    --      9.6315                 1.7432                 6.5826

                     13                     14                     15
                      A                      A                      A
 Frequencies --    204.9379               211.0879               232.9894
 Red. masses --      2.5607                 2.5187                 3.4779
 Frc consts  --      0.0634                 0.0661                 0.1112
 IR Inten    --     21.3364                 1.9430                 1.1524

                     16                     17                     18
                      A                      A                      A
 Frequencies --    257.1444               270.1577               298.7774
 Red. masses --      2.6033                 2.8535                 2.7688
 Frc consts  --      0.1014                 0.1227                 0.1456
 IR Inten    --     25.2188                13.6891                25.8970

                     19                     20                     21
                      A                      A                      A
 Frequencies --    361.7992               406.7512               421.2246
 Red. masses --      3.9881                 3.1906                 3.1635
 Frc consts  --      0.3076                 0.3110                 0.3307
 IR Inten    --     16.3532                27.1867                 7.3548

                     22                     23                     24
                      A                      A                      A
 Frequencies --    426.1699               478.6506               552.0264
 Red. masses --      5.5011                 3.5867                 3.2078
 Frc consts  --      0.5887                 0.4841                 0.5759
 IR Inten    --     46.7831                33.7250               184.6914

                     25                     26                     27
                      A                      A                      A
 Frequencies --    591.9947               631.8841               654.8623
 Red. masses --      4.0627                 5.5258                 4.1831
 Frc consts  --      0.8389                 1.2999                 1.0569
 IR Inten    --      3.2334                 3.5075                25.8411

                     28                     29                     30
                      A                      A                      A
 Frequencies --    662.9871               723.1981               739.6131
 Red. masses --      3.5022                 1.6965                 1.8929
 Frc consts  --      0.9070                 0.5228                 0.6101
 IR Inten    --     24.2802                41.3533               133.8479

                     31                     32                     33
                      A                      A                      A
 Frequencies --    777.4907               795.2734               831.9609
 Red. masses --      8.6714                 2.0854                 4.6428
 Frc consts  --      3.0884                 0.7771                 1.8934
 IR Inten    --     37.9764                17.4992                10.2052

                     34                     35                     36
                      A                      A                      A
 Frequencies --    879.4377               927.8347               964.5672
 Red. masses --      1.2459                 3.1555                 1.5375
 Frc consts  --      0.5677                 1.6005                 0.8428
 IR Inten    --      0.8012                13.3751                 8.2916

                     37                     38                     39
                      A                      A                      A
 Frequencies --   1009.1374              1014.8002              1027.3881
 Red. masses --      1.1707                 1.3469                 4.7779
 Frc consts  --      0.7024                 0.8172                 2.9714
 IR Inten    --     14.4493                 3.3395                 1.2790

                     40                     41                     42
                      A                      A                      A
 Frequencies --   1031.4557              1053.1337              1061.9273
 Red. masses --      1.3580                 1.9255                 1.5756
 Frc consts  --      0.8512                 1.2582                 1.0469
 IR Inten    --      2.8645               115.6533                23.0870

                     43                     44                     45
                      A                      A                      A
 Frequencies --   1065.0738              1088.7735              1093.2836
 Red. masses --      1.9532                 2.4902                 1.5389
 Frc consts  --      1.3054                 1.7392                 1.0837
 IR Inten    --     22.7674               236.9484                48.9307

                     46                     47                     48
                      A                      A                      A
 Frequencies --   1119.5068              1133.3021              1168.4493
 Red. masses --      1.5856                 1.2286                 1.4088
 Frc consts  --      1.1708                 0.9297                 1.1332
 IR Inten    --     19.8016                 1.3383                 9.8721

                     49                     50                     51
                      A                      A                      A
 Frequencies --   1184.1825              1197.1124              1204.3003
 Red. masses --      1.1453                 1.1593                 3.2268
 Frc consts  --      0.9462                 0.9788                 2.7573
 IR Inten    --      2.1031               126.7963                39.4954

                     52                     53                     54
                      A                      A                      A
 Frequencies --   1210.9449              1217.4085              1246.2976
 Red. masses --      1.3258                 1.2137                 3.5032
 Frc consts  --      1.1455                 1.0599                 3.2060
 IR Inten    --     54.6841                22.4292               291.8937

                     55                     56                     57
                      A                      A                      A
 Frequencies --   1268.2236              1314.8689              1334.1734
 Red. masses --      1.2999                 4.9774                 3.8901
 Frc consts  --      1.2318                 5.0701                 4.0798
 IR Inten    --     55.1141                44.6795                37.3564

                     58                     59                     60
                      A                      A                      A
 Frequencies --   1348.6232              1368.6662              1431.2170
 Red. masses --      1.3350                 1.3840                 2.1906
 Frc consts  --      1.4305                 1.5275                 2.6438
 IR Inten    --     12.7601                30.2535               662.2449

                     61                     62                     63
                      A                      A                      A
 Frequencies --   1449.2505              1457.0381              1468.3477
 Red. masses --      1.1711                 1.6831                 1.6567
 Frc consts  --      1.4492                 2.1052                 2.1045
 IR Inten    --     19.6911                96.0296               129.2344

                     64                     65                     66
                      A                      A                      A
 Frequencies --   1475.5481              1483.6171              1490.8759
 Red. masses --      1.2245                 1.0838                 1.0411
 Frc consts  --      1.5708                 1.4055                 1.3634
 IR Inten    --    107.7135                10.1893                17.8257

                     67                     68                     69
                      A                      A                      A
 Frequencies --   1499.2717              1501.5308              1501.9754
 Red. masses --      1.2235                 1.0630                 1.4192
 Frc consts  --      1.6204                 1.4120                 1.8863
 IR Inten    --     37.1610                38.5717                35.3387

                     70                     71                     72
                      A                      A                      A
 Frequencies --   1506.3121              1529.9387              1552.7736
 Red. masses --      1.2252                 1.5855                 2.5407
 Frc consts  --      1.6378                 2.1866                 3.6093
 IR Inten    --     29.1165               255.6246                 4.8135

                     73                     74                     75
                      A                      A                      A
 Frequencies --   1602.4036              1654.8578              1661.9367
 Red. masses --      5.2870                 5.7224                 1.0917
 Frc consts  --      7.9983                 9.2332                 1.7766
 IR Inten    --    641.2682                 2.8007                54.9820

                     76                     77                     78
                      A                      A                      A
 Frequencies --   1679.5954              3025.6357              3036.6359
 Red. masses --      5.8021                 1.0466                 1.0392
 Frc consts  --      9.6437                 5.6450                 5.6462
 IR Inten    --      0.2117               100.1139               118.9372

                     79                     80                     81
                      A                      A                      A
 Frequencies --   3062.1654              3090.4859              3102.1198
 Red. masses --      1.0339                 1.1024                 1.0938
 Frc consts  --      5.7117                 6.2038                 6.2016
 IR Inten    --     61.2410                69.3284                28.2650

                     82                     83                     84
                      A                      A                      A
 Frequencies --   3137.4768              3149.0855              3158.6840
 Red. masses --      1.1045                 1.0882                 1.1050
 Frc consts  --      6.4057                 6.3578                 6.4957
 IR Inten    --     23.0441                 7.8157                17.4072

                     85                     86                     87
                      A                      A                      A
 Frequencies --   3170.9546              3176.1692              3192.1688
 Red. masses --      1.0997                 1.0978                 1.0873
 Frc consts  --      6.5150                 6.5251                 6.5280
 IR Inten    --     14.0603                14.1667                 5.4470

                     88                     89                     90
                      A                      A                      A
 Frequencies --   3199.3673              3208.3473              3217.0884
 Red. masses --      1.0878                 1.0916                 1.0946
 Frc consts  --      6.5603                 6.6205                 6.6749
 IR Inten    --      0.2174                20.5413                36.5910

                     91                     92                     93
                      A                      A                      A
 Frequencies --   3224.8332              3463.4397              3597.1954
 Red. masses --      1.0985                 1.0601                 1.0880
 Frc consts  --      6.7305                 7.4920                 8.2951
 IR Inten    --      9.4897               101.1623                60.9898

 - Thermochemistry -
 -------------------
 Temperature   298.150 Kelvin.  Pressure   1.00000 Atm.
 Atom     1 has atomic number  6 and mass  12.00000

 Molecular mass:   284.05242 amu.
 Principal axes and moments of inertia in atomic units:
                           1         2         3
     Eigenvalues --  2815.346106645.273137782.93009
           X            0.99990  -0.00307  -0.01389
           Y            0.00193   0.99665  -0.08181
           Z            0.01409   0.08178   0.99655
 This molecule is an asymmetric top.
 Rotational symmetry number  1.
 Warning -- assumption of classical behavior for rotation
           may cause significant error
 Rotational temperatures (Kelvin)      0.03076     0.01303     0.01113
 Rotational constants (GHZ):           0.64104     0.27158     0.23188
    1 imaginary frequencies ignored.
 Zero-point vibrational energy     726108.7 (Joules/Mol)
                                  173.54414 (Kcal/Mol)
 Warning -- explicit consideration of  24 degrees of freedom as
           vibrations may cause significant error
 Vibrational temperatures:     59.40    59.95    88.17   110.12   122.80
          (Kelvin)            144.81   180.38   188.29   217.84   244.94
                              271.99   294.86   303.71   335.22   369.97
                              388.70   429.87   520.55   585.22   606.05
                              613.16   688.67   794.24   851.75   909.14
                              942.20   953.89  1040.52  1064.14  1118.64
                             1144.22  1197.01  1265.31  1334.95  1387.80
                             1451.92  1460.07  1478.18  1484.03  1515.22
                             1527.88  1532.40  1566.50  1572.99  1610.72
                             1630.57  1681.14  1703.77  1722.38  1732.72
                             1742.28  1751.58  1793.14  1824.69  1891.80
                             1919.58  1940.37  1969.21  2059.20  2085.15
                             2096.35  2112.62  2122.98  2134.59  2145.04
                             2157.12  2160.37  2161.01  2167.25  2201.24
                             2234.09  2305.50  2380.97  2391.16  2416.56
                             4353.21  4369.04  4405.77  4446.52  4463.26
                             4514.13  4530.83  4544.64  4562.30  4569.80
                             4592.82  4603.18  4616.10  4628.67  4639.82
                             4983.12  5175.56

 Zero-point correction=                           0.276560 (Hartree/Particle)
 Thermal correction to Energy=                    0.293716
 Thermal correction to Enthalpy=                  0.294660
 Thermal correction to Gibbs Free Energy=         0.230189
 Sum of electronic and zero-point Energies=          -3226.174677
 Sum of electronic and thermal Energies=             -3226.157521
 Sum of electronic and thermal Enthalpies=           -3226.156577
 Sum of electronic and thermal Free Energies=        -3226.221048

                     E (Thermal)             CV                S
                      KCal/Mol        Cal/Mol-Kelvin    Cal/Mol-Kelvin
 Total                  184.310             61.622            135.692
 Electronic               0.000              0.000              0.000
 Translational            0.889              2.981             42.830
 Rotational               0.889              2.981             33.343
 Vibrational            182.532             55.660             59.519
 Vibration     1          0.594              1.981              5.196
 Vibration     2          0.594              1.981              5.178
 Vibration     3          0.597              1.973              4.416
 Vibration     4          0.599              1.965              3.978
 Vibration     5          0.601              1.959              3.764
 Vibration     6          0.604              1.949              3.442
 Vibration     7          0.610              1.928              3.016
 Vibration     8          0.612              1.922              2.933
 Vibration     9          0.619              1.901              2.655
 Vibration    10          0.625              1.879              2.433
 Vibration    11          0.633              1.855              2.237
 Vibration    12          0.640              1.833              2.088
 Vibration    13          0.643              1.824              2.034
 Vibration    14          0.654              1.790              1.856
 Vibration    15          0.667              1.751              1.681
 Vibration    16          0.674              1.728              1.595
 Vibration    17          0.692              1.676              1.424
 Vibration    18          0.736              1.551              1.114
 Vibration    19          0.772              1.456              0.938
 Vibration    20          0.784              1.424              0.888
 Vibration    21          0.788              1.413              0.871
 Vibration    22          0.835              1.297              0.714
 Vibration    23          0.907              1.135              0.540
 Vibration    24          0.949              1.049              0.464

 Optimization completed.
    -- Stationary point found.
 Normal termination of Gaussian 16 at Sun Jan 31 15:27:38 2021.
