 Gaussian 16, Revision C.01,
 Gaussian 16:  ES64L-G16RevC.01  3-Jul-2019

 ----------------------------------------------------------------------
 # wb97xd def2tzvp opt=(ts, noeigen, calcfc, maxcycles=100, maxstep=10)
  freq=noraman scrf=(iefpcm, solvent=water)
 ----------------------------------------------------------------------

 ----------
 TS-702.out
 ----------
 Symbolic Z-matrix:
 Charge =  0 Multiplicity = 1

 SCF Done:  E(RwB97XD) =  -3074.01590349     A.U. after   16 cycles
 SCF Done:  E(RwB97XD) =  -3074.01411901     A.U. after   13 cycles
 SCF Done:  E(RwB97XD) =  -3074.01353169     A.U. after   13 cycles
 SCF Done:  E(RwB97XD) =  -3074.01539653     A.U. after   14 cycles
 SCF Done:  E(RwB97XD) =  -3074.01694139     A.U. after   13 cycles
 SCF Done:  E(RwB97XD) =  -3074.01794932     A.U. after   14 cycles
 SCF Done:  E(RwB97XD) =  -3074.01818344     A.U. after   13 cycles
 SCF Done:  E(RwB97XD) =  -3074.01779057     A.U. after   14 cycles
 SCF Done:  E(RwB97XD) =  -3074.01804606     A.U. after   13 cycles
 SCF Done:  E(RwB97XD) =  -3074.01871974     A.U. after   12 cycles
 SCF Done:  E(RwB97XD) =  -3074.01895628     A.U. after   13 cycles
 SCF Done:  E(RwB97XD) =  -3074.01874379     A.U. after   12 cycles
 SCF Done:  E(RwB97XD) =  -3074.01898651     A.U. after   12 cycles
 SCF Done:  E(RwB97XD) =  -3074.01899036     A.U. after   11 cycles
 SCF Done:  E(RwB97XD) =  -3074.01899463     A.U. after   11 cycles
 SCF Done:  E(RwB97XD) =  -3074.01899583     A.U. after   10 cycles
 SCF Done:  E(RwB97XD) =  -3074.01899573     A.U. after    9 cycles
 SCF Done:  E(RwB97XD) =  -3074.01899575     A.U. after    9 cycles
 SCF Done:  E(RwB97XD) =  -3074.01899569     A.U. after    8 cycles
 Optimization completed.
    -- Stationary point found.
 Normal termination of Gaussian 16 at Thu Jun  2 22:30:17 2022.

 ---------------------------------------------------------------------
 #N Geom=AllCheck Guess=TCheck SCRF=Check GenChk RwB97XD/def2TZVP Freq
 ---------------------------------------------------------------------

 Structure from the checkpoint file:  "/local/jobs/107281/Gau-1894171.chk"
 ----------
 TS-702.out
 ----------
 Charge =  0 Multiplicity = 1

                         Standard orientation:
 ---------------------------------------------------------------------
 Center     Atomic      Atomic             Coordinates (Angstroms)
 Number     Number       Type             X           Y           Z
 ---------------------------------------------------------------------
      1          6           0        0.535620    0.403053    0.735225
      2          6           0        1.964643    0.570125    0.403089
      3          8           0        2.584696    1.561156    0.802415
      4          6           0       -0.389313    0.189207   -0.232201
      5          6           0       -2.588455    1.888510   -1.291969
      6          1           0       -3.231473    2.741131   -1.069629
      7          1           0       -2.125928    2.041162   -2.264093
      8          1           0       -3.193565    0.983598   -1.316332
      9          7           0       -1.547933    1.734730   -0.276352
     10          1           0       -0.865257    2.483198   -0.327054
     11          1           0       -1.946146    1.745534    0.655336
     12         35           0       -2.009252   -1.111325    0.307284
     13          6           0       -0.128280   -0.050330   -1.683907
     14          1           0        0.616705    0.654981   -2.053839
     15          1           0        0.233092   -1.064532   -1.842361
     16          1           0       -1.036513    0.058136   -2.270378
     17          6           0        0.151967    0.796289    2.137845
     18          1           0       -0.798003    0.336806    2.417255
     19          1           0        0.904741    0.468726    2.856583
     20          1           0        0.047850    1.879502    2.260046
     21          7           0        2.602642   -0.385384   -0.333605
     22          6           0        2.212151   -1.779551   -0.358571
     23          6           0        3.965750   -0.134834   -0.753005
     24          1           0        1.244782   -1.908775    0.118854
     25          1           0        2.160696   -2.150886   -1.384925
     26          1           0        2.950587   -2.381362    0.180927
     27          1           0        4.099015    0.920806   -0.973380
     28          1           0        4.686938   -0.421791    0.019947
     29          1           0        4.171281   -0.719355   -1.650561
 ---------------------------------------------------------------------

 SCF Done:  E(RwB97XD) =  -3074.01899569     A.U. after    1 cycles

 The electronic state is 1-A.
 Alpha  occ. eigenvalues -- -483.09712 -62.64579 -56.43626 -56.43371 -56.43364
 Alpha  occ. eigenvalues --  -19.20311 -14.48701 -14.45647 -10.38722 -10.37752
 Alpha  occ. eigenvalues --  -10.31859 -10.30743 -10.30305 -10.28803 -10.27212
 Alpha  occ. eigenvalues --  -10.26107  -8.78675  -6.60605  -6.59810  -6.59784
 Alpha  occ. eigenvalues --   -2.71008  -2.70803  -2.70782  -2.70139  -2.70138
 Alpha  occ. eigenvalues --   -1.13090  -1.04120  -1.02951  -0.92491  -0.84855
 Alpha  occ. eigenvalues --   -0.82606  -0.81462  -0.79414  -0.78977  -0.74237
 Alpha  occ. eigenvalues --   -0.66820  -0.63335  -0.61534  -0.59013  -0.56484
 Alpha  occ. eigenvalues --   -0.56326  -0.55301  -0.54599  -0.53153  -0.50907
 Alpha  occ. eigenvalues --   -0.49737  -0.49140  -0.48454  -0.48203  -0.48141
 Alpha  occ. eigenvalues --   -0.46740  -0.45850  -0.45251  -0.44124  -0.42510
 Alpha  occ. eigenvalues --   -0.41376  -0.35679  -0.35427  -0.34149  -0.31795
 Alpha  occ. eigenvalues --   -0.26198
 Alpha virt. eigenvalues --    0.02838   0.07081   0.09667   0.12095   0.13350
 Alpha virt. eigenvalues --    0.13476   0.14754   0.15999   0.16353   0.16852
 Alpha virt. eigenvalues --    0.17239   0.18148   0.19079   0.19145   0.19538

 Mulliken charges:
               1
     1  C   -0.071069
     2  C    0.276408
     3  O   -0.518566
     4  C    0.035563
     5  C   -0.307259
     6  H    0.160038
     7  H    0.164553
     8  H    0.155335
     9  N   -0.303048
    10  H    0.283589
    11  H    0.288696
    12  Br  -0.345208
    13  C   -0.373124
    14  H    0.160722
    15  H    0.150536
    16  H    0.161584
    17  C   -0.442589
    18  H    0.137433
    19  H    0.130339
    20  H    0.127907
    21  N   -0.120061
    22  C   -0.331705
    23  C   -0.285314
    24  H    0.166297
    25  H    0.152501
    26  H    0.139658
    27  H    0.140036
    28  H    0.131253
    29  H    0.135493
 Sum of Mulliken charges =  -0.00000

 Dipole moment (field-independent basis, Debye):
    X=             -2.7535    Y=              2.1047    Z=             -4.5742  Tot=              5.7389
 Quadrupole moment (field-independent basis, Debye-Ang):
   XX=            -90.2138   YY=            -84.8517   ZZ=            -85.1580
   XY=            -24.4078   XZ=             -4.0352   YZ=             -4.0938

  Exact polarizability:     245.145      11.642     202.368       8.175       3.322     173.579
 Approx polarizability:     180.365      10.801     164.465       5.490       3.854     145.242

 ******    1 imaginary frequencies (negative Signs) ******

                      1                      2                      3
                      A                      A                      A
 Frequencies --   -445.2373                44.0328                67.9651
 Red. masses --      6.8424                 4.6964                 5.0995
 Frc consts  --      0.7992                 0.0054                 0.0139
 IR Inten    --    532.6580                17.4853                22.8706

                      4                      5                      6
                      A                      A                      A
 Frequencies --     87.1936                97.3904               124.6028
 Red. masses --      2.5588                 2.5977                 1.2781
 Frc consts  --      0.0115                 0.0145                 0.0117
 IR Inten    --      4.6602                 3.6921                 4.5319

                      7                      8                      9
                      A                      A                      A
 Frequencies --    132.0331               143.1106               153.4699
 Red. masses --      2.0216                 1.2211                 2.6641
 Frc consts  --      0.0208                 0.0147                 0.0370
 IR Inten    --      2.8226                 5.1768                18.4953

                     10                     11                     12
                      A                      A                      A
 Frequencies --    179.5319               192.7493               209.4525
 Red. masses --      2.3988                 2.0280                 2.1605
 Frc consts  --      0.0456                 0.0444                 0.0558
 IR Inten    --     11.8616                39.7589                68.0092

                     13                     14                     15
                      A                      A                      A
 Frequencies --    215.3131               232.1419               269.3369
 Red. masses --      2.3497                 1.9171                 1.4422
 Frc consts  --      0.0642                 0.0609                 0.0616
 IR Inten    --      8.9945                 6.8642                18.5759

                     16                     17                     18
                      A                      A                      A
 Frequencies --    279.8932               303.6641               306.7557
 Red. masses --      2.7948                 1.9836                 1.8619
 Frc consts  --      0.1290                 0.1078                 0.1032
 IR Inten    --     24.7213                 4.6689                12.0028

                     19                     20                     21
                      A                      A                      A
 Frequencies --    325.8996               377.0306               395.0747
 Red. masses --      2.7705                 2.4727                 2.8272
 Frc consts  --      0.1734                 0.2071                 0.2600
 IR Inten    --     11.4784                52.1739                45.2431

                     22                     23                     24
                      A                      A                      A
 Frequencies --    453.5609               465.4084               578.6080
 Red. masses --      2.7866                 3.4795                 4.3339
 Frc consts  --      0.3377                 0.4441                 0.8549
 IR Inten    --     28.4302               228.6453                86.6593

                     25                     26                     27
                      A                      A                      A
 Frequencies --    597.2143               687.1206               729.9533
 Red. masses --      4.2211                 1.3957                 4.1231
 Frc consts  --      0.8870                 0.3882                 1.2944
 IR Inten    --     27.3713                79.5716               129.2242

                     28                     29                     30
                      A                      A                      A
 Frequencies --    795.6992               908.5017               983.1967
 Red. masses --      6.8752                 2.2976                 2.1756
 Frc consts  --      2.5647                 1.1173                 1.2391
 IR Inten    --     23.8534               161.2223               120.9031

                     31                     32                     33
                      A                      A                      A
 Frequencies --   1016.8391              1042.5490              1049.7556
 Red. masses --      1.1021                 1.3110                 1.5232
 Frc consts  --      0.6714                 0.8395                 0.9890
 IR Inten    --      8.5752               264.4953                12.1196

                     34                     35                     36
                      A                      A                      A
 Frequencies --   1063.1884              1069.5889              1077.1030
 Red. masses --      1.4166                 1.7264                 2.2602
 Frc consts  --      0.9435                 1.1637                 1.5450
 IR Inten    --    111.0906                65.7490                79.7492

                     37                     38                     39
                      A                      A                      A
 Frequencies --   1084.9183              1124.6578              1131.9301
 Red. masses --      1.4035                 2.1441                 1.2455
 Frc consts  --      0.9733                 1.5979                 0.9402
 IR Inten    --      0.6937                56.4598                 2.3486

                     40                     41                     42
                      A                      A                      A
 Frequencies --   1141.0394              1176.0331              1231.4008
 Red. masses --      2.5761                 1.3854                 1.3706
 Frc consts  --      1.9761                 1.1289                 1.2245
 IR Inten    --     69.8569                23.9411                24.5819

                     43                     44                     45
                      A                      A                      A
 Frequencies --   1266.0524              1313.0288              1346.9416
 Red. masses --      4.3880                 4.9595                 1.3009
 Frc consts  --      4.1440                 5.0378                 1.3905
 IR Inten    --    245.0846               142.3184                 0.9739

                     46                     47                     48
                      A                      A                      A
 Frequencies --   1402.3023              1414.3380              1424.3335
 Red. masses --      1.2529                 1.3704                 1.9733
 Frc consts  --      1.4516                 1.6151                 2.3586
 IR Inten    --      1.0300               161.0138               288.2475

                     49                     50                     51
                      A                      A                      A
 Frequencies --   1443.7033              1452.7745              1467.1456
 Red. masses --      1.1621                 1.1744                 1.0985
 Frc consts  --      1.4271                 1.4604                 1.3931
 IR Inten    --      7.0966                 0.3729                22.5280

                     52                     53                     54
                      A                      A                      A
 Frequencies --   1473.4454              1478.6832              1481.7452
 Red. masses --      1.1479                 1.0524                 1.0753
 Frc consts  --      1.4684                 1.3558                 1.3910
 IR Inten    --     89.9477                23.1318                 9.9036

                     55                     56                     57
                      A                      A                      A
 Frequencies --   1486.4086              1493.2585              1496.9842
 Red. masses --      1.0807                 1.0754                 1.0513
 Frc consts  --      1.4068                 1.4128                 1.3880
 IR Inten    --     59.5774                 9.6573                48.5741

                     58                     59                     60
                      A                      A                      A
 Frequencies --   1499.7481              1505.0320              1512.3280
 Red. masses --      1.0440                 1.0412                 1.0686
 Frc consts  --      1.3835                 1.3895                 1.4400
 IR Inten    --     13.4779                16.3776                17.4694

                     61                     62                     63
                      A                      A                      A
 Frequencies --   1536.6058              1598.7631              1643.7643
 Red. masses --      1.3142                 6.0210                 1.3448
 Frc consts  --      1.8283                 9.0675                 2.1409
 IR Inten    --    255.7187               667.0973               297.8158

                     64                     65                     66
                      A                      A                      A
 Frequencies --   1646.8063              3025.2757              3027.5265
 Red. masses --      3.4267                 1.0436                 1.0440
 Frc consts  --      5.4753                 5.6277                 5.6380
 IR Inten    --    374.4410                88.7157                52.7005

                     67                     68                     69
                      A                      A                      A
 Frequencies --   3030.8394              3068.4521              3079.4078
 Red. masses --      1.0446                 1.0356                 1.0388
 Frc consts  --      5.6535                 5.7450                 5.8037
 IR Inten    --    134.7115                42.4118                16.5454

                     70                     71                     72
                      A                      A                      A
 Frequencies --   3086.0976              3088.6704              3107.3079
 Red. masses --      1.0997                 1.0922                 1.0918
 Frc consts  --      6.1711                 6.1390                 6.2108
 IR Inten    --     54.9363                37.4880                34.7417

                     73                     74                     75
                      A                      A                      A
 Frequencies --   3124.5161              3146.3485              3159.9774
 Red. masses --      1.1020                 1.1018                 1.1007
 Frc consts  --      6.3385                 6.4265                 6.4757
 IR Inten    --     29.3180                11.3191                14.3632

                     76                     77                     78
                      A                      A                      A
 Frequencies --   3171.7344              3172.0389              3172.6072
 Red. masses --      1.1005                 1.1021                 1.0985
 Frc consts  --      6.5230                 6.5335                 6.5146
 IR Inten    --     11.6071                 6.0548                11.0262

                     79                     80                     81
                      A                      A                      A
 Frequencies --   3176.0712              3520.5051              3604.7238
 Red. masses --      1.1042                 1.0517                 1.0958
 Frc consts  --      6.5625                 7.6797                 8.3892
 IR Inten    --      6.8304                29.0200                45.9373

 - Thermochemistry -
 -------------------
 Temperature   298.150 Kelvin.  Pressure   1.00000 Atm.
 Atom     1 has atomic number  6 and mass  12.00000

 Molecular mass:   236.05242 amu.
 Principal axes and moments of inertia in atomic units:
                           1         2         3
     Eigenvalues --  1807.967634400.771234832.77721
           X            0.99713  -0.07567   0.00344
           Y            0.07556   0.99681   0.02571
           Z           -0.00538  -0.02537   0.99966
 This molecule is an asymmetric top.
 Rotational symmetry number  1.
 Warning -- assumption of classical behavior for rotation
           may cause significant error
 Rotational temperatures (Kelvin)      0.04791     0.01968     0.01792
 Rotational constants (GHZ):           0.99822     0.41010     0.37344
    1 imaginary frequencies ignored.
 Zero-point vibrational energy     656099.1 (Joules/Mol)
                                  156.81145 (Kcal/Mol)
 Warning -- explicit consideration of  24 degrees of freedom as
           vibrations may cause significant error
 Vibrational temperatures:     63.35    97.79   125.45   140.12   179.28
          (Kelvin)            189.97   205.90   220.81   258.31   277.32
                              301.36   309.79   334.00   387.52   402.70
                              436.90   441.35   468.90   542.46   568.42
                              652.57   669.62   832.49   859.26   988.61
                             1050.24  1144.83  1307.13  1414.60  1463.00
                             1500.00  1510.36  1529.69  1538.90  1549.71
                             1560.96  1618.13  1628.59  1641.70  1692.05
                             1771.71  1821.57  1889.16  1937.95  2017.60
                             2034.92  2049.30  2077.17  2090.22  2110.90
                             2119.96  2127.50  2131.90  2138.61  2148.47
                             2153.83  2157.80  2165.41  2175.90  2210.83
                             2300.26  2365.01  2369.39  4352.70  4355.94
                             4360.70  4414.82  4430.58  4440.21  4443.91
                             4470.72  4495.48  4526.89  4546.50  4563.42
                             4563.86  4564.67  4569.66  5065.22  5186.39

 Zero-point correction=                           0.249895 (Hartree/Particle)
 Thermal correction to Energy=                    0.265729
 Thermal correction to Enthalpy=                  0.266674
 Thermal correction to Gibbs Free Energy=         0.206614
 Sum of electronic and zero-point Energies=          -3073.769101
 Sum of electronic and thermal Energies=             -3073.753266
 Sum of electronic and thermal Enthalpies=           -3073.752322
 Sum of electronic and thermal Free Energies=        -3073.812381

                     E (Thermal)             CV                S
                      KCal/Mol        Cal/Mol-Kelvin    Cal/Mol-Kelvin
 Total                  166.748             55.290            126.406
 Electronic               0.000              0.000              0.000
 Translational            0.889              2.981             42.278
 Rotational               0.889              2.981             32.020
 Vibrational            164.970             49.328             52.108
 Vibration     1          0.595              1.980              5.069
 Vibration     2          0.598              1.969              4.211
 Vibration     3          0.601              1.958              3.722
 Vibration     4          0.603              1.951              3.506
 Vibration     5          0.610              1.928              3.028
 Vibration     6          0.612              1.921              2.916
 Vibration     7          0.616              1.910              2.762
 Vibration     8          0.619              1.899              2.629
 Vibration     9          0.629              1.867              2.333
 Vibration    10          0.635              1.850              2.201
 Vibration    11          0.642              1.826              2.048
 Vibration    12          0.645              1.818              1.998
 Vibration    13          0.653              1.792              1.862
 Vibration    14          0.674              1.730              1.600
 Vibration    15          0.680              1.711              1.534
 Vibration    16          0.695              1.667              1.397
 Vibration    17          0.697              1.661              1.380
 Vibration    18          0.710              1.624              1.280
 Vibration    19          0.748              1.519              1.051
 Vibration    20          0.762              1.481              0.981
 Vibration    21          0.812              1.353              0.785
 Vibration    22          0.823              1.327              0.751
 Vibration    23          0.935              1.078              0.488
 Vibration    24          0.955              1.038              0.454

 Optimization completed.
    -- Stationary point found.
 Normal termination of Gaussian 16 at Thu Jun  2 22:56:11 2022.
