 Gaussian 16, Revision A.03,
 Gaussian 16:  ES64L-G16RevA.03 25-Dec-2016

 ----------------------------------------------------------------------
 # wB97XD def2tzvp, opt=(ts, noeigen, calcfc, maxcycles=70, maxstep=8),
  freq=noraman, scrf=(iefpcm, solvent=water)
 ----------------------------------------------------------------------

 -----------------------
 1_iteration/TS-73-1.out
 -----------------------
 Symbolic Z-matrix:
 Charge =  0 Multiplicity = 1

 SCF Done:  E(RwB97XD) =  -978.455727047     A.U. after   15 cycles
 Optimization completed.
    -- Stationary point found.
 Normal termination of Gaussian 16 at Sat Jan 30 22:02:06 2021.

 ---------------------------------------------------------------------
 #N Geom=AllCheck Guess=TCheck SCRF=Check GenChk RwB97XD/def2TZVP Freq
 ---------------------------------------------------------------------

 Structure from the checkpoint file:  "/beegfs/scratch/user/q/tla25/Gau-72917.chk"
 -----------------------
 1_iteration/TS-73-1.out
 -----------------------
 Charge =  0 Multiplicity = 1

                         Standard orientation:
 ---------------------------------------------------------------------
 Center     Atomic      Atomic             Coordinates (Angstroms)
 Number     Number       Type             X           Y           Z
 ---------------------------------------------------------------------
      1          6           0       -1.407051   -0.411489    0.333350
      2          6           0       -2.588191   -0.282549    1.102750
      3          8           0       -3.598951   -0.979599    1.055770
      4          6           0       -0.350440    0.481920    0.495370
      5          6           0       -1.891130    2.486591   -0.782130
      6          1           0       -2.039510    3.244571   -1.551200
      7          1           0       -2.569170    1.653511   -0.968480
      8          1           0       -2.122770    2.913501    0.192410
      9          7           0       -0.525830    1.983220   -0.771770
     10          1           0       -0.247410    1.641500   -1.683630
     11          1           0        0.142500    2.689730   -0.488000
     12          6           0        1.088460    0.171070    0.282440
     13          6           0        1.604109   -0.317310   -0.916780
     14          6           0        2.956019   -0.596620   -1.037320
     15          6           0        3.812109   -0.396981    0.036640
     16          6           0        3.309920    0.095780    1.231500
     17          6           0        1.959230    0.384980    1.349010
     18          1           0        0.952229   -0.478510   -1.764260
     19          1           0        3.342049   -0.971970   -1.976420
     20          1           0        4.867209   -0.618581   -0.060520
     21          1           0        3.970050    0.262449    2.073010
     22          1           0        1.573900    0.777020    2.282760
     23          1           0       -0.508980    1.122940    1.357250
     24         17           0       -1.371501   -1.677999   -0.873860
     25          1           0       -2.530380    0.551731    1.829960
 ---------------------------------------------------------------------

 SCF Done:  E(RwB97XD) =  -978.455727047     A.U. after    1 cycles

 The electronic state is 1-A.
 Alpha  occ. eigenvalues -- -101.68955 -19.21346 -14.48188 -10.35379 -10.35204
 Alpha  occ. eigenvalues --  -10.31704 -10.31508 -10.31179 -10.29770 -10.29696
 Alpha  occ. eigenvalues --  -10.29519 -10.29477 -10.29434  -9.57488  -7.32107
 Alpha  occ. eigenvalues --   -7.31285  -7.31269  -1.11752  -1.03786  -0.98076
 Alpha  occ. eigenvalues --   -0.96016  -0.89307  -0.85764  -0.84149  -0.79037
 Alpha  occ. eigenvalues --   -0.75338  -0.71311  -0.68690  -0.64274  -0.62762
 Alpha  occ. eigenvalues --   -0.61366  -0.57722  -0.57068  -0.56182  -0.55039
 Alpha  occ. eigenvalues --   -0.53127  -0.52627  -0.51498  -0.49748  -0.48694
 Alpha  occ. eigenvalues --   -0.48149  -0.47604  -0.46699  -0.44479  -0.43612
 Alpha  occ. eigenvalues --   -0.43010  -0.40945  -0.39132  -0.34307  -0.34016
 Alpha  occ. eigenvalues --   -0.33055  -0.28240
 Alpha virt. eigenvalues --    0.01668   0.04767   0.07225   0.09468   0.11740
 Alpha virt. eigenvalues --    0.13287   0.13361   0.14562   0.15044   0.16715
 Alpha virt. eigenvalues --    0.16826   0.17779   0.18513   0.19288   0.19671

 Mulliken charges:
               1
     1  C   -0.012836
     2  C    0.048512
     3  O   -0.492490
     4  C   -0.136051
     5  C   -0.310315
     6  H    0.159972
     7  H    0.163077
     8  H    0.156740
     9  N   -0.339682
    10  H    0.281038
    11  H    0.289083
    12  C    0.294490
    13  C   -0.304865
    14  C   -0.133993
    15  C   -0.152194
    16  C   -0.134129
    17  C   -0.229974
    18  H    0.163251
    19  H    0.146826
    20  H    0.147701
    21  H    0.146897
    22  H    0.144563
    23  H    0.185400
    24  Cl  -0.160489
    25  H    0.079469
 Sum of Mulliken charges =  -0.00000

 Dipole moment (field-independent basis, Debye):
    X=              7.7160    Y=              9.5598    Z=             -2.3704  Tot=             12.5118
 Quadrupole moment (field-independent basis, Debye-Ang):
   XX=           -103.5104   YY=            -78.5304   ZZ=            -76.8727
   XY=            -16.5642   XZ=              7.1617   YZ=              1.1961

  Exact polarizability: 254.917  12.752 174.202 -12.821  10.759 186.074
 Approx polarizability: 193.327   9.529 145.330  -7.130  11.749 161.234

 ******    1 imaginary frequencies (negative Signs) ******

                      1                      2                      3
                      A                      A                      A
 Frequencies --   -327.2600                49.8008                63.2404
 Red. masses --      5.8448                 4.6993                 4.5622
 Frc consts  --      0.3688                 0.0069                 0.0108
 IR Inten    --    825.2979                 2.8865                 1.2496

                      4                      5                      6
                      A                      A                      A
 Frequencies --     69.4833                96.1212               112.1180
 Red. masses --      3.7166                 3.8466                 3.1604
 Frc consts  --      0.0106                 0.0209                 0.0234
 IR Inten    --      5.0870                 3.5626                15.7105

                      7                      8                      9
                      A                      A                      A
 Frequencies --    139.5726               189.0333               224.6520
 Red. masses --      2.2207                 1.5460                12.0490
 Frc consts  --      0.0255                 0.0325                 0.3583
 IR Inten    --      2.2284                 4.9184                 7.3480

                     10                     11                     12
                      A                      A                      A
 Frequencies --    240.6237               263.0922               288.7589
 Red. masses --      3.9950                 4.3244                 3.8336
 Frc consts  --      0.1363                 0.1764                 0.1883
 IR Inten    --      7.7703                 7.2956                31.6939

                     13                     14                     15
                      A                      A                      A
 Frequencies --    322.6727               394.6862               424.9894
 Red. masses --      4.8320                 3.5015                 2.9338
 Frc consts  --      0.2964                 0.3214                 0.3122
 IR Inten    --      0.9417                 9.5509                 2.3189

                     16                     17                     18
                      A                      A                      A
 Frequencies --    477.8267               546.2296               602.4193
 Red. masses --      3.7059                 2.1668                 2.6158
 Frc consts  --      0.4985                 0.3809                 0.5593
 IR Inten    --     40.3268               109.4017                70.3757

                     19                     20                     21
                      A                      A                      A
 Frequencies --    635.4694               637.6964               665.8774
 Red. masses --      6.3281                 5.3850                 4.5394
 Frc consts  --      1.5056                 1.2902                 1.1859
 IR Inten    --     38.5663                33.7660                68.0263

                     22                     23                     24
                      A                      A                      A
 Frequencies --    729.9246               757.9658               801.9107
 Red. masses --      1.6292                 3.2783                 2.1606
 Frc consts  --      0.5114                 1.1097                 0.8186
 IR Inten    --     89.1046                47.8895                 8.1324

                     25                     26                     27
                      A                      A                      A
 Frequencies --    869.1492               883.7353               968.3932
 Red. masses --      4.3130                 1.2491                 1.4065
 Frc consts  --      1.9196                 0.5748                 0.7772
 IR Inten    --     16.3854                 0.3551                 1.8384

                     28                     29                     30
                      A                      A                      A
 Frequencies --    998.0265              1005.6674              1012.4961
 Red. masses --      1.0765                 1.1867                 1.5494
 Frc consts  --      0.6317                 0.7071                 0.9358
 IR Inten    --     40.7934                92.0058                10.0898

                     31                     32                     33
                      A                      A                      A
 Frequencies --   1020.6994              1026.5385              1037.0475
 Red. masses --      1.3316                 5.9163                 1.3057
 Frc consts  --      0.8174                 3.6733                 0.8274
 IR Inten    --     10.4969                 1.6002                 1.0062

                     34                     35                     36
                      A                      A                      A
 Frequencies --   1066.0795              1087.0423              1121.4729
 Red. masses --      2.1968                 4.7515                 1.5892
 Frc consts  --      1.4710                 3.3081                 1.1777
 IR Inten    --      6.7704                30.4138                18.6431

                     37                     38                     39
                      A                      A                      A
 Frequencies --   1136.3512              1187.1532              1209.1708
 Red. masses --      1.1252                 1.1367                 1.4125
 Frc consts  --      0.8560                 0.9439                 1.2168
 IR Inten    --     60.3290                 0.0247                29.6548

                     40                     41                     42
                      A                      A                      A
 Frequencies --   1216.0016              1221.5416              1234.8045
 Red. masses --      1.8840                 1.2774                 2.9137
 Frc consts  --      1.6414                 1.1231                 2.6175
 IR Inten    --    187.2347                 4.7849                97.6109

                     43                     44                     45
                      A                      A                      A
 Frequencies --   1298.1718              1334.2507              1344.3930
 Red. masses --      2.6777                 3.8527                 1.3365
 Frc consts  --      2.6588                 4.0410                 1.4232
 IR Inten    --     13.6731                71.0192                 1.3450

                     46                     47                     48
                      A                      A                      A
 Frequencies --   1373.6290              1426.4095              1458.1434
 Red. masses --      1.3879                 1.3244                 1.2067
 Frc consts  --      1.5429                 1.5876                 1.5117
 IR Inten    --     42.9010               141.0756                33.8023

                     49                     50                     51
                      A                      A                      A
 Frequencies --   1487.9326              1493.0264              1504.1445
 Red. masses --      2.2294                 1.0444                 1.0387
 Frc consts  --      2.9081                 1.3716                 1.3846
 IR Inten    --    144.5168                27.3203                25.7564

                     52                     53                     54
                      A                      A                      A
 Frequencies --   1522.1451              1555.2139              1647.1389
 Red. masses --      2.5271                 2.6325                 1.1057
 Frc consts  --      3.4498                 3.7514                 1.7674
 IR Inten    --    336.7990                76.4094                58.9203

                     55                     56                     57
                      A                      A                      A
 Frequencies --   1655.1469              1677.0173              1679.4206
 Red. masses --      5.2710                 6.6086                 7.0741
 Frc consts  --      8.5078                10.9505                11.7556
 IR Inten    --     28.6430               602.0300               658.6256

                     58                     59                     60
                      A                      A                      A
 Frequencies --   2916.7302              3065.8666              3144.0036
 Red. masses --      1.0814                 1.0327                 1.1048
 Frc consts  --      5.4202                 5.7194                 6.4342
 IR Inten    --    137.3727                30.0267                11.4354

                     61                     62                     63
                      A                      A                      A
 Frequencies --   3158.2541              3166.9026              3193.5369
 Red. masses --      1.1056                 1.0881                 1.0878
 Frc consts  --      6.4973                 6.4299                 6.5366
 IR Inten    --     17.2480                 6.3205                 5.7927

                     64                     65                     66
                      A                      A                      A
 Frequencies --   3201.3867              3211.3777              3222.0164
 Red. masses --      1.0883                 1.0925                 1.0967
 Frc consts  --      6.5718                 6.6381                 6.7077
 IR Inten    --      0.8941                23.0010                26.8444

                     67                     68                     69
                      A                      A                      A
 Frequencies --   3232.1820              3532.8258              3615.5704
 Red. masses --      1.0948                 1.0505                 1.0964
 Frc consts  --      6.7389                 7.7246                 8.4443
 IR Inten    --      4.9099                49.2337                41.4514

 - Thermochemistry -
 -------------------
 Temperature   298.150 Kelvin.  Pressure   1.00000 Atm.
 Atom     1 has atomic number  6 and mass  12.00000

 Molecular mass:   197.06074 amu.
 Principal axes and moments of inertia in atomic units:
                           1         2         3
     Eigenvalues --  1656.203194199.158574631.53517
           X            0.99938  -0.03511   0.00375
           Y            0.03521   0.99885  -0.03268
           Z           -0.00260   0.03280   0.99946
 This molecule is an asymmetric top.
 Rotational symmetry number  1.
 Warning -- assumption of classical behavior for rotation
           may cause significant error
 Rotational temperatures (Kelvin)      0.05230     0.02063     0.01870
 Rotational constants (GHZ):           1.08969     0.42979     0.38966
    1 imaginary frequencies ignored.
 Zero-point vibrational energy     533249.6 (Joules/Mol)
                                  127.44971 (Kcal/Mol)
 Warning -- explicit consideration of  17 degrees of freedom as
           vibrations may cause significant error
 Vibrational temperatures:     71.65    90.99    99.97   138.30   161.31
          (Kelvin)            200.81   271.98   323.22   346.20   378.53
                              415.46   464.25   567.87   611.47   687.49
                              785.90   866.75   914.30   917.50   958.05
                             1050.20  1090.54  1153.77  1250.51  1271.50
                             1393.30  1435.94  1446.93  1456.76  1468.56
                             1476.96  1492.08  1533.85  1564.01  1613.55
                             1634.96  1708.05  1739.73  1749.56  1757.53
                             1776.61  1867.78  1919.69  1934.28  1976.35
                             2052.29  2097.94  2140.80  2148.13  2164.13
                             2190.03  2237.61  2369.87  2381.39  2412.85
                             2416.31  4196.52  4411.10  4523.52  4544.02
                             4556.47  4594.79  4606.08  4620.46  4635.76
                             4650.39  5082.95  5202.00

 Zero-point correction=                           0.203104 (Hartree/Particle)
 Thermal correction to Energy=                    0.215888
 Thermal correction to Enthalpy=                  0.216832
 Thermal correction to Gibbs Free Energy=         0.162719
 Sum of electronic and zero-point Energies=           -978.252623
 Sum of electronic and thermal Energies=              -978.239839
 Sum of electronic and thermal Enthalpies=            -978.238895
 Sum of electronic and thermal Free Energies=         -978.293008

                     E (Thermal)             CV                S
                      KCal/Mol        Cal/Mol-Kelvin    Cal/Mol-Kelvin
 Total                  135.472             46.475            113.890
 Electronic               0.000              0.000              0.000
 Translational            0.889              2.981             41.740
 Rotational               0.889              2.981             31.844
 Vibrational            133.694             40.513             40.306
 Vibration     1          0.595              1.978              4.825
 Vibration     2          0.597              1.972              4.353
 Vibration     3          0.598              1.969              4.168
 Vibration     4          0.603              1.952              3.531
 Vibration     5          0.607              1.939              3.232
 Vibration     6          0.615              1.914              2.810
 Vibration     7          0.633              1.855              2.237
 Vibration     8          0.649              1.804              1.921
 Vibration     9          0.658              1.778              1.798
 Vibration    10          0.670              1.740              1.641
 Vibration    11          0.685              1.695              1.481
 Vibration    12          0.708              1.630              1.297
 Vibration    13          0.762              1.482              0.982
 Vibration    14          0.787              1.416              0.875
 Vibration    15          0.834              1.299              0.716
 Vibration    16          0.901              1.148              0.552
 Vibration    17          0.961              1.027              0.446

 Optimization completed.
    -- Stationary point found.
 Normal termination of Gaussian 16 at Sat Jan 30 22:37:00 2021.
