 Gaussian 16, Revision A.03,
 Gaussian 16:  ES64L-G16RevA.03 25-Dec-2016

 ----------------------------------------------------------------------
 # wB97XD def2tzvp, opt=(ts, noeigen, calcfc, maxcycles=70, maxstep=3),
  freq=noraman, scrf=(iefpcm, solvent=water)
 ----------------------------------------------------------------------

 ------------------------
 0_iteration/TS-778-0.out
 ------------------------
 Symbolic Z-matrix:
 Charge =  0 Multiplicity = 1

 SCF Done:  E(RwB97XD) =  -3399.61482182     A.U. after   16 cycles
 SCF Done:  E(RwB97XD) =  -3399.61423805     A.U. after   12 cycles
 SCF Done:  E(RwB97XD) =  -3399.61370503     A.U. after   12 cycles
 SCF Done:  E(RwB97XD) =  -3399.61323120     A.U. after   12 cycles
 SCF Done:  E(RwB97XD) =  -3399.61285340     A.U. after   12 cycles
 SCF Done:  E(RwB97XD) =  -3399.61261516     A.U. after   12 cycles
 SCF Done:  E(RwB97XD) =  -3399.61255793     A.U. after   13 cycles
 SCF Done:  E(RwB97XD) =  -3399.61277016     A.U. after   13 cycles
 SCF Done:  E(RwB97XD) =  -3399.61319447     A.U. after   14 cycles
 SCF Done:  E(RwB97XD) =  -3399.61373513     A.U. after   13 cycles
 SCF Done:  E(RwB97XD) =  -3399.62945450     A.U. after   12 cycles
 SCF Done:  E(RwB97XD) =  -3399.62946329     A.U. after   11 cycles
 SCF Done:  E(RwB97XD) =  -3399.62945489     A.U. after   11 cycles
 SCF Done:  E(RwB97XD) =  -3399.62946540     A.U. after   11 cycles
 SCF Done:  E(RwB97XD) =  -3399.62946554     A.U. after    9 cycles
 SCF Done:  E(RwB97XD) =  -3399.62946563     A.U. after    8 cycles
 SCF Done:  E(RwB97XD) =  -3399.62946373     A.U. after   10 cycles
 SCF Done:  E(RwB97XD) =  -3399.62946564     A.U. after   10 cycles
 SCF Done:  E(RwB97XD) =  -3399.62946563     A.U. after    6 cycles
 Optimization completed.
    -- Stationary point found.
 Normal termination of Gaussian 16 at Wed Apr 14 04:59:49 2021.

 ---------------------------------------------------------------------
 #N Geom=AllCheck Guess=TCheck SCRF=Check GenChk RwB97XD/def2TZVP Freq
 ---------------------------------------------------------------------

 Structure from the checkpoint file:  "/beegfs/scratch/user/q/tla25/Gau-210322.chk"
 ------------------------
 0_iteration/TS-778-0.out
 ------------------------
 Charge =  0 Multiplicity = 1

                         Standard orientation:
 ---------------------------------------------------------------------
 Center     Atomic      Atomic             Coordinates (Angstroms)
 Number     Number       Type             X           Y           Z
 ---------------------------------------------------------------------
      1          6           0       -0.883944    0.667032   -0.238115
      2          6           0       -2.290168    0.360067   -0.279600
      3          8           0       -3.114310    1.231482   -0.589289
      4          6           0        0.130348   -0.277660   -0.054709
      5          6           0        0.345334    0.452399    2.583878
      6          1           0        0.326949    0.153129    3.630072
      7          1           0        1.208072    1.088631    2.400381
      8          1           0       -0.568413    0.994679    2.343069
      9          7           0        0.418795   -0.719750    1.715982
     10          1           0        1.308095   -1.203489    1.795341
     11          1           0       -0.315164   -1.383405    1.941493
     12         35           0        1.939082    0.312949   -0.503653
     13         17           0       -0.046738   -1.941248   -0.672576
     14          6           0       -0.534315    2.135151   -0.365190
     15          1           0        0.280031    2.430917    0.295335
     16          1           0       -0.245674    2.410276   -1.384670
     17          1           0       -1.410397    2.725664   -0.105372
     18          6           0       -2.863490   -0.999199    0.082298
     19          1           0       -2.302829   -1.541112    0.840693
     20          1           0       -3.878212   -0.835296    0.441174
     21          1           0       -2.915457   -1.632322   -0.804817
 ---------------------------------------------------------------------

 SCF Done:  E(RwB97XD) =  -3399.62946563     A.U. after    1 cycles

 The electronic state is 1-A.
 Alpha  occ. eigenvalues -- -483.14079-101.70991 -62.68930 -56.48059 -56.47687
 Alpha  occ. eigenvalues --  -56.47670 -19.20206 -14.51294 -10.45134 -10.35428
 Alpha  occ. eigenvalues --  -10.32580 -10.27275 -10.26980 -10.26797  -9.59600
 Alpha  occ. eigenvalues --   -8.83039  -7.34262  -7.33364  -7.33334  -6.65229
 Alpha  occ. eigenvalues --   -6.64050  -6.63999  -2.75605  -2.75279  -2.75239
 Alpha  occ. eigenvalues --   -2.74286  -2.74285  -1.11056  -1.06892  -0.98955
 Alpha  occ. eigenvalues --   -0.90434  -0.86923  -0.82430  -0.80300  -0.76495
 Alpha  occ. eigenvalues --   -0.69361  -0.65397  -0.60424  -0.59251  -0.56809
 Alpha  occ. eigenvalues --   -0.55650  -0.53951  -0.51860  -0.49610  -0.49244
 Alpha  occ. eigenvalues --   -0.48604  -0.48049  -0.48016  -0.45682  -0.44175
 Alpha  occ. eigenvalues --   -0.42342  -0.41337  -0.40449  -0.38415  -0.37201
 Alpha  occ. eigenvalues --   -0.32037  -0.27595
 Alpha virt. eigenvalues --    0.03179   0.04236   0.07794   0.09728   0.12972
 Alpha virt. eigenvalues --    0.13987   0.14985   0.15624   0.16737   0.17405
 Alpha virt. eigenvalues --    0.18678   0.19989   0.20676   0.21671   0.22064

 Mulliken charges:
               1
     1  C   -0.258791
     2  C    0.242955
     3  O   -0.518325
     4  C    0.113631
     5  C   -0.310360
     6  H    0.174215
     7  H    0.168282
     8  H    0.167592
     9  N   -0.261726
    10  H    0.303140
    11  H    0.288016
    12  Br  -0.069184
    13  Cl  -0.064022
    14  C   -0.376292
    15  H    0.130326
    16  H    0.126377
    17  H    0.132123
    18  C   -0.366003
    19  H    0.102241
    20  H    0.127515
    21  H    0.148289
 Sum of Mulliken charges =  -0.00000

 Dipole moment (field-independent basis, Debye):
    X=              5.8194    Y=             -4.4739    Z=              7.7360  Tot=             10.6643
 Quadrupole moment (field-independent basis, Debye-Ang):
   XX=            -97.9380   YY=            -82.0406   ZZ=            -69.1006
   XY=             10.7013   XZ=             -2.1390   YZ=             -1.4853

  Exact polarizability: 207.054 -10.342 164.301  10.963  -6.589 145.174
 Approx polarizability: 160.812  -8.285 139.071   7.373  -5.064 124.020

 ******    1 imaginary frequencies (negative Signs) ******

                      1                      2                      3
                      A                      A                      A
 Frequencies --   -379.9740                52.2268                80.0169
 Red. masses --      6.1595                 3.0280                 4.6441
 Frc consts  --      0.5240                 0.0049                 0.0175
 IR Inten    --    916.1953                 2.6132                 7.2464

                      4                      5                      6
                      A                      A                      A
 Frequencies --     97.5563               110.4990               162.3572
 Red. masses --      2.5103                 1.5841                 2.7440
 Frc consts  --      0.0141                 0.0114                 0.0426
 IR Inten    --      4.3304                 0.3588                 1.5938

                      7                      8                      9
                      A                      A                      A
 Frequencies --    195.1609               199.8190               223.9170
 Red. masses --      1.5874                 4.9493                 3.0987
 Frc consts  --      0.0356                 0.1164                 0.0915
 IR Inten    --      1.5036                 2.8295                 7.3849

                     10                     11                     12
                      A                      A                      A
 Frequencies --    238.3186               244.2006               262.8444
 Red. masses --      1.2163                 3.1320                 3.0588
 Frc consts  --      0.0407                 0.1100                 0.1245
 IR Inten    --      0.6432                 6.3545                 1.0145

                     13                     14                     15
                      A                      A                      A
 Frequencies --    290.0173               334.9236               380.5841
 Red. masses --      3.0253                 3.5300                 3.0506
 Frc consts  --      0.1499                 0.2333                 0.2603
 IR Inten    --      7.6462                44.4405                 3.6945

                     16                     17                     18
                      A                      A                      A
 Frequencies --    393.1239               471.2909               535.0814
 Red. masses --      7.6997                 3.9095                 4.5413
 Frc consts  --      0.7011                 0.5116                 0.7661
 IR Inten    --      6.5527                61.8750                93.7921

                     19                     20                     21
                      A                      A                      A
 Frequencies --    611.7394               641.5681               696.5018
 Red. masses --      3.3916                 2.6418                 2.1170
 Frc consts  --      0.7478                 0.6407                 0.6051
 IR Inten    --     35.2376                39.9549                24.8966

                     22                     23                     24
                      A                      A                      A
 Frequencies --    809.8052               828.5010               978.5890
 Red. masses --      3.6588                 2.5876                 2.0216
 Frc consts  --      1.4137                 1.0465                 1.1406
 IR Inten    --    187.2246               113.3658                14.1749

                     25                     26                     27
                      A                      A                      A
 Frequencies --   1007.1535              1035.3958              1037.8144
 Red. masses --      1.4205                 1.3452                 1.5816
 Frc consts  --      0.8489                 0.8497                 1.0037
 IR Inten    --    347.9276               194.5454                15.0142

                     28                     29                     30
                      A                      A                      A
 Frequencies --   1065.4718              1068.3551              1089.9975
 Red. masses --      1.4540                 1.6626                 2.1794
 Frc consts  --      0.9725                 1.1181                 1.5256
 IR Inten    --     10.6604                 6.9649               106.1501

                     31                     32                     33
                      A                      A                      A
 Frequencies --   1121.7077              1255.4113              1343.9897
 Red. masses --      2.3037                 1.3577                 1.4600
 Frc consts  --      1.7078                 1.2607                 1.5538
 IR Inten    --      5.8932                48.7035               157.9356

                     34                     35                     36
                      A                      A                      A
 Frequencies --   1353.1809              1377.4572              1398.6428
 Red. masses --      2.6419                 5.3122                 1.4522
 Frc consts  --      2.8502                 5.9386                 1.6737
 IR Inten    --    770.9660               538.2995               139.1517

                     37                     38                     39
                      A                      A                      A
 Frequencies --   1408.7917              1457.9473              1468.1366
 Red. masses --      1.2496                 1.1908                 1.0776
 Frc consts  --      1.4612                 1.4913                 1.3684
 IR Inten    --     90.4201                 7.7299                19.9620

                     40                     41                     42
                      A                      A                      A
 Frequencies --   1477.5823              1491.7239              1495.6376
 Red. masses --      1.0512                 1.0759                 1.0589
 Frc consts  --      1.3521                 1.4106                 1.3955
 IR Inten    --     16.2316                13.8211                18.5435

                     43                     44                     45
                      A                      A                      A
 Frequencies --   1500.3580              1502.8401              1627.0756
 Red. masses --      1.0455                 1.0484                 7.4654
 Frc consts  --      1.3867                 1.3950                11.6444
 IR Inten    --     63.2740                73.8268               732.8662

                     46                     47                     48
                      A                      A                      A
 Frequencies --   1641.2223              3034.3071              3073.1537
 Red. masses --      1.1097                 1.0498                 1.0374
 Frc consts  --      1.7612                 5.6947                 5.7724
 IR Inten    --     43.5046                78.3324                11.3709

                     49                     50                     51
                      A                      A                      A
 Frequencies --   3078.4711              3111.3361              3147.1614
 Red. masses --      1.0324                 1.0873                 1.0995
 Frc consts  --      5.7646                 6.2016                 6.4163
 IR Inten    --     19.0267                37.5172                16.9081

                     52                     53                     54
                      A                      A                      A
 Frequencies --   3154.9751              3164.4356              3167.4734
 Red. masses --      1.1002                 1.1051                 1.1023
 Frc consts  --      6.4523                 6.5197                 6.5162
 IR Inten    --     13.5680                 2.6962                41.4949

                     55                     56                     57
                      A                      A                      A
 Frequencies --   3177.5035              3509.4596              3591.9402
 Red. masses --      1.1068                 1.0509                 1.0966
 Frc consts  --      6.5843                 7.6259                 8.3360
 IR Inten    --      7.4126                63.3501                69.6683

 - Thermochemistry -
 -------------------
 Temperature   298.150 Kelvin.  Pressure   1.00000 Atm.
 Atom     1 has atomic number  6 and mass  12.00000

 Molecular mass:   226.97125 amu.
 Principal axes and moments of inertia in atomic units:
                           1         2         3
     Eigenvalues --  1708.905063079.308453360.90652
           X            0.99973   0.00500   0.02272
           Y           -0.00435   0.99959  -0.02842
           Z           -0.02285   0.02831   0.99934
 This molecule is an asymmetric top.
 Rotational symmetry number  1.
 Warning -- assumption of classical behavior for rotation
           may cause significant error
 Rotational temperatures (Kelvin)      0.05068     0.02813     0.02577
 Rotational constants (GHZ):           1.05608     0.58609     0.53698
    1 imaginary frequencies ignored.
 Zero-point vibrational energy     438280.3 (Joules/Mol)
                                  104.75152 (Kcal/Mol)
 Warning -- explicit consideration of  18 degrees of freedom as
           vibrations may cause significant error
 Vibrational temperatures:     75.14   115.13   140.36   158.98   233.60
          (Kelvin)            280.79   287.49   322.17   342.89   351.35
                              378.17   417.27   481.88   547.58   565.62
                              678.08   769.86   880.16   923.07  1002.11
                             1165.13  1192.03  1407.97  1449.07  1489.70
                             1493.18  1532.98  1537.12  1568.26  1613.89
                             1806.26  1933.70  1946.93  1981.85  2012.34
                             2026.94  2097.66  2112.32  2125.91  2146.26
                             2151.89  2158.68  2162.25  2341.00  2361.35
                             4365.69  4421.58  4429.23  4476.52  4528.06
                             4539.31  4552.92  4557.29  4571.72  5049.33
                             5168.00

 Zero-point correction=                           0.166932 (Hartree/Particle)
 Thermal correction to Energy=                    0.179361
 Thermal correction to Enthalpy=                  0.180305
 Thermal correction to Gibbs Free Energy=         0.127474
 Sum of electronic and zero-point Energies=          -3399.462533
 Sum of electronic and thermal Energies=             -3399.450105
 Sum of electronic and thermal Enthalpies=           -3399.449161
 Sum of electronic and thermal Free Energies=        -3399.501992

                     E (Thermal)             CV                S
                      KCal/Mol        Cal/Mol-Kelvin    Cal/Mol-Kelvin
 Total                  112.551             43.288            111.193
 Electronic               0.000              0.000              0.000
 Translational            0.889              2.981             42.161
 Rotational               0.889              2.981             31.248
 Vibrational            110.773             37.327             37.783
 Vibration     1          0.596              1.977              4.731
 Vibration     2          0.600              1.963              3.890
 Vibration     3          0.603              1.951              3.503
 Vibration     4          0.606              1.941              3.260
 Vibration     5          0.622              1.889              2.522
 Vibration     6          0.636              1.847              2.178
 Vibration     7          0.638              1.840              2.135
 Vibration     8          0.649              1.805              1.927
 Vibration     9          0.656              1.782              1.815
 Vibration    10          0.660              1.772              1.772
 Vibration    11          0.670              1.741              1.643
 Vibration    12          0.686              1.692              1.474
 Vibration    13          0.716              1.606              1.236
 Vibration    14          0.750              1.512              1.037
 Vibration    15          0.760              1.485              0.988
 Vibration    16          0.828              1.314              0.734
 Vibration    17          0.890              1.172              0.576
 Vibration    18          0.971              1.007              0.430

 Optimization completed.
    -- Stationary point found.
 Normal termination of Gaussian 16 at Wed Apr 14 05:07:17 2021.
