 Gaussian 16, Revision A.03,
 Gaussian 16:  ES64L-G16RevA.03 25-Dec-2016

 ----------------------------------------------------------------------
 # wB97XD def2tzvp, opt=(ts, noeigen, calcfc, maxcycles=70, maxstep=3),
  freq=noraman, scrf=(iefpcm, solvent=water)
 ----------------------------------------------------------------------

 ------------------------
 0_iteration/TS-755-0.out
 ------------------------
 Symbolic Z-matrix:
 Charge =  0 Multiplicity = 1

 SCF Done:  E(RwB97XD) =  -5949.98380029     A.U. after   15 cycles
 SCF Done:  E(RwB97XD) =  -5949.98432132     A.U. after   12 cycles
 SCF Done:  E(RwB97XD) =  -5949.98494353     A.U. after   12 cycles
 SCF Done:  E(RwB97XD) =  -5949.98567007     A.U. after   12 cycles
 SCF Done:  E(RwB97XD) =  -5949.98647539     A.U. after   12 cycles
 SCF Done:  E(RwB97XD) =  -5949.98723009     A.U. after   12 cycles
 SCF Done:  E(RwB97XD) =  -5949.98794879     A.U. after   12 cycles
 SCF Done:  E(RwB97XD) =  -5949.98855624     A.U. after   12 cycles
 SCF Done:  E(RwB97XD) =  -5949.98917023     A.U. after   12 cycles
 SCF Done:  E(RwB97XD) =  -5949.98972851     A.U. after   11 cycles
 SCF Done:  E(RwB97XD) =  -5949.99522723     A.U. after   11 cycles
 SCF Done:  E(RwB97XD) =  -5949.99523635     A.U. after   11 cycles
 SCF Done:  E(RwB97XD) =  -5949.99523223     A.U. after   10 cycles
 SCF Done:  E(RwB97XD) =  -5949.99523851     A.U. after   10 cycles
 SCF Done:  E(RwB97XD) =  -5949.99522912     A.U. after   11 cycles
 SCF Done:  E(RwB97XD) =  -5949.99517825     A.U. after   12 cycles
 SCF Done:  E(RwB97XD) =  -5949.99523477     A.U. after   12 cycles
 SCF Done:  E(RwB97XD) =  -5949.99524018     A.U. after   10 cycles
 SCF Done:  E(RwB97XD) =  -5949.99524021     A.U. after    8 cycles
 Optimization completed.
    -- Stationary point found.
 Normal termination of Gaussian 16 at Sat Apr 10 09:36:04 2021.

 ---------------------------------------------------------------------
 #N Geom=AllCheck Guess=TCheck SCRF=Check GenChk RwB97XD/def2TZVP Freq
 ---------------------------------------------------------------------

 Structure from the checkpoint file:  "/beegfs/scratch/user/q/tla25/Gau-43589.chk"
 ------------------------
 0_iteration/TS-755-0.out
 ------------------------
 Charge =  0 Multiplicity = 1

                         Standard orientation:
 ---------------------------------------------------------------------
 Center     Atomic      Atomic             Coordinates (Angstroms)
 Number     Number       Type             X           Y           Z
 ---------------------------------------------------------------------
      1          6           0        1.038904   -0.378943   -0.298611
      2          6           0        2.194203    0.470894   -0.017446
      3          8           0        2.080200    1.496879    0.662855
      4          6           0       -0.239537    0.049638   -0.012086
      5          6           0        0.062367   -0.757260    2.711515
      6          1           0       -0.731419   -1.501404    2.718338
      7          1           0        0.948229   -1.183133    2.236618
      8          1           0        0.313503   -0.488556    3.738123
      9          7           0       -0.357328    0.399775    1.940997
     10          1           0       -1.269059    0.752530    2.205480
     11          1           0        0.332328    1.145874    1.974144
     12         35           0       -1.690842   -1.156927   -0.263632
     13         35           0       -0.781305    1.849706   -0.537709
     14         17           0        1.351854   -2.034108   -0.774863
     15          7           0        3.394577    0.089359   -0.502639
     16          1           0        4.200837    0.637605   -0.263517
     17          1           0        3.511266   -0.735297   -1.061156
 ---------------------------------------------------------------------

 SCF Done:  E(RwB97XD) =  -5949.99524021     A.U. after    1 cycles

 The electronic state is 1-A.
 Alpha  occ. eigenvalues -- -483.14887-483.13846-101.70254 -62.69725 -62.68685
 Alpha  occ. eigenvalues --  -56.48866 -56.48480 -56.48460 -56.47824 -56.47436
 Alpha  occ. eigenvalues --  -56.47424 -19.21586 -14.48149 -14.44993 -10.44282
 Alpha  occ. eigenvalues --  -10.39835 -10.33069 -10.31701  -9.58773  -8.83839
 Alpha  occ. eigenvalues --   -8.82789  -7.33430  -7.32558  -7.32523  -6.66068
 Alpha  occ. eigenvalues --   -6.65006  -6.64832  -6.64773  -6.63777  -6.63739
 Alpha  occ. eigenvalues --   -2.76447  -2.76094  -2.76049  -2.75376  -2.75050
 Alpha  occ. eigenvalues --   -2.75049  -2.75034  -2.75003  -2.74009  -2.74009
 Alpha  occ. eigenvalues --   -1.14350  -1.03925  -1.01260  -0.98435  -0.93694
 Alpha  occ. eigenvalues --   -0.88066  -0.82815  -0.78789  -0.73149  -0.65601
 Alpha  occ. eigenvalues --   -0.63212  -0.61297  -0.58277  -0.57366  -0.55461
 Alpha  occ. eigenvalues --   -0.53407  -0.52275  -0.50636  -0.48084  -0.47925
 Alpha  occ. eigenvalues --   -0.46428  -0.43177  -0.42410  -0.40145  -0.38466
 Alpha  occ. eigenvalues --   -0.37212  -0.37066  -0.35793  -0.34572  -0.28508
 Alpha virt. eigenvalues --    0.01257   0.03476   0.05379   0.10977   0.13159
 Alpha virt. eigenvalues --    0.13473   0.15116   0.16684   0.17101   0.17745
 Alpha virt. eigenvalues --    0.18715   0.19883   0.20837   0.22301   0.23567

 Mulliken charges:
               1
     1  C   -0.299681
     2  C    0.354472
     3  O   -0.528058
     4  C    0.193358
     5  C   -0.290478
     6  H    0.156042
     7  H    0.154278
     8  H    0.157054
     9  N   -0.355646
    10  H    0.289239
    11  H    0.284198
    12  Br  -0.016028
    13  Br  -0.063915
    14  Cl  -0.129874
    15  N   -0.457049
    16  H    0.276946
    17  H    0.275144
 Sum of Mulliken charges =  -0.00000

 Dipole moment (field-independent basis, Debye):
    X=             -0.1328    Y=             -1.7268    Z=              3.7305  Tot=              4.1129
 Quadrupole moment (field-independent basis, Debye-Ang):
   XX=            -79.5063   YY=            -96.5438   ZZ=            -80.9666
   XY=             -4.5082   XZ=             -7.3250   YZ=             -0.7994

  Exact polarizability: 192.683  -4.597 178.926 -14.208   6.021 155.589
 Approx polarizability: 151.958  -2.830 154.036  -9.592   8.264 131.901

 ******    1 imaginary frequencies (negative Signs) ******

                      1                      2                      3
                      A                      A                      A
 Frequencies --   -386.9224                65.7196                78.2084
 Red. masses --      5.9701                 5.3435                 6.6300
 Frc consts  --      0.5266                 0.0136                 0.0239
 IR Inten    --    649.9139                 1.5176                 9.1607

                      4                      5                      6
                      A                      A                      A
 Frequencies --     94.9181               120.9259               142.1903
 Red. masses --      3.7603                 5.1629                 2.0468
 Frc consts  --      0.0200                 0.0445                 0.0244
 IR Inten    --      3.7088                 2.0143                10.6221

                      7                      8                      9
                      A                      A                      A
 Frequencies --    152.2351               170.7558               184.3174
 Red. masses --      2.7023                 5.7962                 1.2539
 Frc consts  --      0.0369                 0.0996                 0.0251
 IR Inten    --      2.8015                 1.5200               276.1121

                     10                     11                     12
                      A                      A                      A
 Frequencies --    195.2938               214.9129               240.7609
 Red. masses --      5.5161                 3.7139                 7.6871
 Frc consts  --      0.1240                 0.1011                 0.2625
 IR Inten    --     31.3017                17.5325                 7.6651

                     13                     14                     15
                      A                      A                      A
 Frequencies --    267.7890               284.6242               329.7441
 Red. masses --      5.8511                 4.6966                 7.4435
 Frc consts  --      0.2472                 0.2242                 0.4769
 IR Inten    --     28.7478                 6.8896                12.1316

                     16                     17                     18
                      A                      A                      A
 Frequencies --    442.8067               488.6744               561.5199
 Red. masses --      6.1361                 5.0278                 1.2661
 Frc consts  --      0.7089                 0.7074                 0.2352
 IR Inten    --     36.4297                74.7001                17.4672

                     19                     20                     21
                      A                      A                      A
 Frequencies --    585.9514               661.9469               732.8308
 Red. masses --      2.3373                 1.5707                 9.4607
 Frc consts  --      0.4728                 0.4055                 2.9935
 IR Inten    --     15.5444                66.8862               249.6525

                     22                     23                     24
                      A                      A                      A
 Frequencies --    785.8191               832.6534               983.2730
 Red. masses --      8.6918                 4.9868                 1.0983
 Frc consts  --      3.1623                 2.0370                 0.6256
 IR Inten    --     53.5708                49.2008                98.2889

                     25                     26                     27
                      A                      A                      A
 Frequencies --   1037.6693              1062.1657              1088.9888
 Red. masses --      1.3271                 2.4106                 4.5867
 Frc consts  --      0.8419                 1.6024                 3.2047
 IR Inten    --     59.9259                58.4934                35.5046

                     28                     29                     30
                      A                      A                      A
 Frequencies --   1111.7380              1193.1140              1346.5023
 Red. masses --      2.3076                 1.4181                 1.3223
 Frc consts  --      1.6804                 1.1894                 1.4126
 IR Inten    --      4.1379                23.2638                 6.9393

                     31                     32                     33
                      A                      A                      A
 Frequencies --   1391.7560              1412.1025              1457.7427
 Red. masses --      4.3483                 5.7745                 1.2799
 Frc consts  --      4.9624                 6.7841                 1.6025
 IR Inten    --    970.3340               442.9536                36.0284

                     34                     35                     36
                      A                      A                      A
 Frequencies --   1486.7910              1500.4218              1619.2554
 Red. masses --      1.0420                 1.0334                 1.5165
 Frc consts  --      1.3571                 1.3707                 2.3428
 IR Inten    --     20.0114                12.2703               233.0000

                     37                     38                     39
                      A                      A                      A
 Frequencies --   1634.9257              1677.0750              3060.3537
 Red. masses --      1.1268                 3.5808                 1.0339
 Frc consts  --      1.7746                 5.9338                 5.7054
 IR Inten    --    234.8118               447.0472                35.5332

                     40                     41                     42
                      A                      A                      A
 Frequencies --   3130.7613              3164.9218              3491.8903
 Red. masses --      1.1040                 1.1044                 1.0531
 Frc consts  --      6.3755                 6.5177                 7.5657
 IR Inten    --     12.8296                13.6206                56.4688

                     43                     44                     45
                      A                      A                      A
 Frequencies --   3602.4548              3635.2778              3764.5101
 Red. masses --      1.0952                 1.0451                 1.1059
 Frc consts  --      8.3741                 8.1376                 9.2342
 IR Inten    --    108.1953               123.8205               104.7959

 - Thermochemistry -
 -------------------
 Temperature   298.150 Kelvin.  Pressure   1.00000 Atm.
 Atom     1 has atomic number  6 and mass  12.00000

 Molecular mass:   291.86136 amu.
 Principal axes and moments of inertia in atomic units:
                           1         2         3
     Eigenvalues --  2904.623263248.509514460.48609
           X            0.99921  -0.03169  -0.02404
           Y            0.03172   0.99950   0.00101
           Z            0.02399  -0.00177   0.99971
 This molecule is an asymmetric top.
 Rotational symmetry number  1.
 Warning -- assumption of classical behavior for rotation
           may cause significant error
 Rotational temperatures (Kelvin)      0.02982     0.02666     0.01942
 Rotational constants (GHZ):           0.62133     0.55556     0.40461
    1 imaginary frequencies ignored.
 Zero-point vibrational energy     307968.4 (Joules/Mol)
                                   73.60620 (Kcal/Mol)
 Warning -- explicit consideration of  18 degrees of freedom as
           vibrations may cause significant error
 Vibrational temperatures:     94.56   112.52   136.57   173.99   204.58
          (Kelvin)            219.03   245.68   265.19   280.98   309.21
                              346.40   385.29   409.51   474.43   637.10
                              703.09   807.90   843.05   952.39  1054.38
                             1130.62  1198.00  1414.71  1492.97  1528.22
                             1566.81  1599.54  1716.62  1937.32  2002.43
                             2031.70  2097.37  2139.16  2158.77  2329.75
                             2352.29  2412.94  4403.17  4504.47  4553.62
                             5024.05  5183.13  5230.35  5416.29

 Zero-point correction=                           0.117299 (Hartree/Particle)
 Thermal correction to Energy=                    0.129982
 Thermal correction to Enthalpy=                  0.130926
 Thermal correction to Gibbs Free Energy=         0.076562
 Sum of electronic and zero-point Energies=          -5949.877941
 Sum of electronic and thermal Energies=             -5949.865259
 Sum of electronic and thermal Enthalpies=           -5949.864314
 Sum of electronic and thermal Free Energies=        -5949.918679

                     E (Thermal)             CV                S
                      KCal/Mol        Cal/Mol-Kelvin    Cal/Mol-Kelvin
 Total                   81.565             42.127            114.419
 Electronic               0.000              0.000              0.000
 Translational            0.889              2.981             42.911
 Rotational               0.889              2.981             32.109
 Vibrational             79.787             36.165             39.399
 Vibration     1          0.597              1.971              4.278
 Vibration     2          0.600              1.964              3.935
 Vibration     3          0.603              1.953              3.556
 Vibration     4          0.609              1.932              3.086
 Vibration     5          0.616              1.911              2.774
 Vibration     6          0.619              1.900              2.644
 Vibration     7          0.626              1.878              2.427
 Vibration     8          0.631              1.861              2.284
 Vibration     9          0.636              1.846              2.177
 Vibration    10          0.645              1.818              2.002
 Vibration    11          0.658              1.778              1.797
 Vibration    12          0.673              1.732              1.610
 Vibration    13          0.683              1.702              1.506
 Vibration    14          0.713              1.616              1.261
 Vibration    15          0.802              1.377              0.818
 Vibration    16          0.845              1.275              0.687
 Vibration    17          0.917              1.115              0.521
 Vibration    18          0.943              1.062              0.474

 Optimization completed.
    -- Stationary point found.
 Normal termination of Gaussian 16 at Sat Apr 10 09:42:39 2021.
