 Gaussian 16, Revision A.03,
 Gaussian 16:  ES64L-G16RevA.03 25-Dec-2016

 ----------------------------------------------------------------------
 # wB97XD def2tzvp, opt=(ts, noeigen, calcfc, maxcycles=70, maxstep=8),
  freq=noraman, scrf=(iefpcm, solvent=water)
 ----------------------------------------------------------------------

 ------------------------
 1_iteration/TS-773-1.out
 ------------------------
 Symbolic Z-matrix:
 Charge =  0 Multiplicity = 1

 SCF Done:  E(RwB97XD) =  -3415.69110130     A.U. after   15 cycles
 SCF Done:  E(RwB97XD) =  -3415.69110129     A.U. after    7 cycles
 Optimization completed.
    -- Stationary point found.
 Normal termination of Gaussian 16 at Wed Apr 14 21:36:41 2021.

 ---------------------------------------------------------------------
 #N Geom=AllCheck Guess=TCheck SCRF=Check GenChk RwB97XD/def2TZVP Freq
 ---------------------------------------------------------------------

 Structure from the checkpoint file:  "/beegfs/scratch/user/q/tla25/Gau-33676.chk"
 ------------------------
 1_iteration/TS-773-1.out
 ------------------------
 Charge =  0 Multiplicity = 1

                         Standard orientation:
 ---------------------------------------------------------------------
 Center     Atomic      Atomic             Coordinates (Angstroms)
 Number     Number       Type             X           Y           Z
 ---------------------------------------------------------------------
      1          6           0       -0.438614   -0.868381   -0.438013
      2          6           0       -1.885394   -0.907372   -0.329478
      3          8           0       -2.519762   -1.814452   -0.891212
      4          6           0        0.497948    0.037012    0.024930
      5          6           0       -0.446940    2.114759   -1.470166
      6          1           0       -0.253042    2.829702   -2.267388
      7          1           0       -1.140950    1.353906   -1.823239
      8          1           0       -0.870027    2.631138   -0.612289
      9          7           0        0.793976    1.450579   -1.071736
     10          1           0        1.250583    1.033618   -1.877364
     11          1           0        1.449068    2.095822   -0.638651
     12         35           0        2.329483   -0.659417    0.041312
     13         17           0        0.199559    0.952742    1.537003
     14          1           0       -0.047653   -1.652254   -1.070529
     15          7           0       -2.563557    0.040549    0.370062
     16          6           0       -3.993418   -0.031147    0.553083
     17          1           0       -2.052915    0.719742    0.901680
     18          1           0       -4.291554   -0.934855    1.090590
     19          1           0       -4.310948    0.836855    1.127591
     20          1           0       -4.513281   -0.022188   -0.406095
 ---------------------------------------------------------------------

 SCF Done:  E(RwB97XD) =  -3415.69110129     A.U. after    1 cycles

 The electronic state is 1-A.
 Alpha  occ. eigenvalues -- -483.13989-101.71461 -62.68850 -56.47974 -56.47603
 Alpha  occ. eigenvalues --  -56.47596 -19.19297 -14.51684 -14.44073 -10.45205
 Alpha  occ. eigenvalues --  -10.37485 -10.32700 -10.30462 -10.25790  -9.60062
 Alpha  occ. eigenvalues --   -8.82966  -7.34703  -7.33840  -7.33810  -6.65146
 Alpha  occ. eigenvalues --   -6.63967  -6.63945  -2.75523  -2.75191  -2.75173
 Alpha  occ. eigenvalues --   -2.74220  -2.74219  -1.12078  -1.07305  -1.00862
 Alpha  occ. eigenvalues --   -0.98580  -0.90244  -0.84890  -0.80423  -0.78919
 Alpha  occ. eigenvalues --   -0.69782  -0.66447  -0.65572  -0.60729  -0.58550
 Alpha  occ. eigenvalues --   -0.57415  -0.55555  -0.53375  -0.52077  -0.50250
 Alpha  occ. eigenvalues --   -0.49276  -0.48676  -0.47271  -0.46042  -0.45630
 Alpha  occ. eigenvalues --   -0.41782  -0.41125  -0.38501  -0.37967  -0.33591
 Alpha  occ. eigenvalues --   -0.32984  -0.27996
 Alpha virt. eigenvalues --    0.02933   0.06467   0.07687   0.10254   0.12493
 Alpha virt. eigenvalues --    0.14662   0.15561   0.16342   0.16517   0.17251
 Alpha virt. eigenvalues --    0.19267   0.20081   0.21111   0.21333   0.22053

 Mulliken charges:
               1
     1  C   -0.519868
     2  C    0.366429
     3  O   -0.564449
     4  C    0.153562
     5  C   -0.324511
     6  H    0.174914
     7  H    0.168767
     8  H    0.165570
     9  N   -0.242937
    10  H    0.295378
    11  H    0.304454
    12  Br  -0.081805
    13  Cl  -0.092132
    14  H    0.140770
    15  N   -0.305720
    16  C   -0.251735
    17  H    0.229173
    18  H    0.121632
    19  H    0.137088
    20  H    0.125419
 Sum of Mulliken charges =  -0.00000

 Dipole moment (field-independent basis, Debye):
    X=              4.1511    Y=             10.1137    Z=             -1.2680  Tot=             11.0057
 Quadrupole moment (field-independent basis, Debye-Ang):
   XX=            -84.2304   YY=            -79.8279   ZZ=            -76.3680
   XY=            -10.1258   XZ=            -11.5723   YZ=             -9.3074

  Exact polarizability: 198.655   8.552 157.876  -0.339   8.174 136.897
 Approx polarizability: 149.179   5.757 134.170   0.247   9.693 119.990

 ******    1 imaginary frequencies (negative Signs) ******

                      1                      2                      3
                      A                      A                      A
 Frequencies --   -350.8958                50.5317                57.7378
 Red. masses --      6.1100                 2.9922                 3.6843
 Frc consts  --      0.4432                 0.0045                 0.0072
 IR Inten    --    632.7053                 0.5521                12.7379

                      4                      5                      6
                      A                      A                      A
 Frequencies --     70.8654               106.7426               134.5477
 Red. masses --      2.5564                 1.6034                 3.5225
 Frc consts  --      0.0076                 0.0108                 0.0376
 IR Inten    --      2.3557                19.5611                 3.9212

                      7                      8                      9
                      A                      A                      A
 Frequencies --    148.9679               176.3757               199.9738
 Red. masses --      2.7396                 4.2410                 1.3128
 Frc consts  --      0.0358                 0.0777                 0.0309
 IR Inten    --     10.3930                12.2827                 2.4367

                     10                     11                     12
                      A                      A                      A
 Frequencies --    212.0593               218.6192               274.3339
 Red. masses --      4.4870                 8.8614                 4.1164
 Frc consts  --      0.1189                 0.2495                 0.1825
 IR Inten    --      5.1830                 6.0996                 9.5414

                     13                     14                     15
                      A                      A                      A
 Frequencies --    297.9125               309.4721               376.8921
 Red. masses --      4.7324                 2.6901                 4.1128
 Frc consts  --      0.2475                 0.1518                 0.3442
 IR Inten    --     30.3874                17.4959                13.1488

                     16                     17                     18
                      A                      A                      A
 Frequencies --    411.4841               510.4957               560.4628
 Red. masses --      1.4202                 2.7189                 3.9637
 Frc consts  --      0.1417                 0.4175                 0.7336
 IR Inten    --     87.7431                87.6035               140.7793

                     19                     20                     21
                      A                      A                      A
 Frequencies --    650.3538               669.0256               775.4672
 Red. masses --      1.9452                 3.0364                 2.8051
 Frc consts  --      0.4847                 0.8008                 0.9939
 IR Inten    --     62.1743                46.6979                73.4962

                     22                     23                     24
                      A                      A                      A
 Frequencies --    797.8797               811.3505               907.3963
 Red. masses --      3.1674                 3.9011                 2.8914
 Frc consts  --      1.1880                 1.5130                 1.4026
 IR Inten    --    116.8205               136.2904                19.1599

                     25                     26                     27
                      A                      A                      A
 Frequencies --   1027.3242              1060.9785              1095.9606
 Red. masses --      1.1334                 2.6011                 1.4680
 Frc consts  --      0.7048                 1.7251                 1.0389
 IR Inten    --     20.0857                 4.6802               118.3906

                     28                     29                     30
                      A                      A                      A
 Frequencies --   1143.5241              1156.2443              1190.3814
 Red. masses --      2.7748                 1.3617                 1.9532
 Frc consts  --      2.1378                 1.0726                 1.6307
 IR Inten    --     51.3611                 5.2346                45.7888

                     31                     32                     33
                      A                      A                      A
 Frequencies --   1259.2957              1268.7336              1315.3010
 Red. masses --      1.4555                 1.3449                 2.3205
 Frc consts  --      1.3599                 1.2755                 2.3653
 IR Inten    --    487.3315                44.3625               438.0037

                     34                     35                     36
                      A                      A                      A
 Frequencies --   1346.9805              1432.1953              1455.6810
 Red. masses --      1.3015                 2.3088                 1.2238
 Frc consts  --      1.3913                 2.7903                 1.5279
 IR Inten    --     11.5873               549.4329                22.6643

                     37                     38                     39
                      A                      A                      A
 Frequencies --   1463.6028              1475.4087              1492.9062
 Red. masses --      1.4565                 1.0468                 1.0410
 Frc consts  --      1.8382                 1.3425                 1.3670
 IR Inten    --    181.5729                14.5427                33.9524

                     40                     41                     42
                      A                      A                      A
 Frequencies --   1500.6209              1508.4089              1564.3286
 Red. masses --      1.0356                 1.0752                 1.9772
 Frc consts  --      1.3740                 1.4413                 2.8507
 IR Inten    --     15.6981                26.2046               563.0194

                     43                     44                     45
                      A                      A                      A
 Frequencies --   1631.8132              1637.9598              3044.5504
 Red. masses --      1.1220                 4.9789                 1.0386
 Frc consts  --      1.7603                 7.8703                 5.6720
 IR Inten    --    153.0633               844.7412                90.4184

                     46                     47                     48
                      A                      A                      A
 Frequencies --   3083.7206              3104.5024              3155.4045
 Red. masses --      1.0324                 1.1007                 1.1015
 Frc consts  --      5.7841                 6.2505                 6.4620
 IR Inten    --     19.6631                48.4976                25.5031

                     49                     50                     51
                      A                      A                      A
 Frequencies --   3168.5536              3185.1478              3220.1850
 Red. masses --      1.1057                 1.1066                 1.0871
 Frc consts  --      6.5404                 6.6144                 6.6418
 IR Inten    --      2.5028                 7.3338                 1.4303

                     52                     53                     54
                      A                      A                      A
 Frequencies --   3497.5425              3582.1941              3684.7495
 Red. masses --      1.0509                 1.0974                 1.0780
 Frc consts  --      7.5744                 8.2972                 8.6238
 IR Inten    --     68.5655                67.8659                90.4616

 - Thermochemistry -
 -------------------
 Temperature   298.150 Kelvin.  Pressure   1.00000 Atm.
 Atom     1 has atomic number  6 and mass  12.00000

 Molecular mass:   227.96650 amu.
 Principal axes and moments of inertia in atomic units:
                           1         2         3
     Eigenvalues --  1467.399043921.588094233.35661
           X            0.99982   0.01269  -0.01414
           Y           -0.01468   0.98836  -0.15141
           Z            0.01205   0.15159   0.98837
 This molecule is an asymmetric top.
 Rotational symmetry number  1.
 Warning -- assumption of classical behavior for rotation
           may cause significant error
 Rotational temperatures (Kelvin)      0.05903     0.02209     0.02046
 Rotational constants (GHZ):           1.22989     0.46021     0.42631
    1 imaginary frequencies ignored.
 Zero-point vibrational energy     409620.2 (Joules/Mol)
                                   97.90157 (Kcal/Mol)
 Warning -- explicit consideration of  17 degrees of freedom as
           vibrations may cause significant error
 Vibrational temperatures:     72.70    83.07   101.96   153.58   193.58
          (Kelvin)            214.33   253.77   287.72   305.11   314.54
                              394.71   428.63   445.26   542.26   592.03
                              734.49   806.38   935.71   962.58  1115.72
                             1147.97  1167.35  1305.54  1478.09  1526.51
                             1576.84  1645.28  1663.58  1712.69  1811.85
                             1825.42  1892.42  1938.00  2060.61  2094.40
                             2105.80  2122.78  2147.96  2159.06  2170.26
                             2250.72  2347.82  2356.66  4380.43  4436.79
                             4466.69  4539.92  4558.84  4582.72  4633.13
                             5032.18  5153.98  5301.53

 Zero-point correction=                           0.156016 (Hartree/Particle)
 Thermal correction to Energy=                    0.168671
 Thermal correction to Enthalpy=                  0.169615
 Thermal correction to Gibbs Free Energy=         0.115376
 Sum of electronic and zero-point Energies=          -3415.535085
 Sum of electronic and thermal Energies=             -3415.522430
 Sum of electronic and thermal Enthalpies=           -3415.521486
 Sum of electronic and thermal Free Energies=        -3415.575726

                     E (Thermal)             CV                S
                      KCal/Mol        Cal/Mol-Kelvin    Cal/Mol-Kelvin
 Total                  105.843             42.607            114.156
 Electronic               0.000              0.000              0.000
 Translational            0.889              2.981             42.174
 Rotational               0.889              2.981             31.566
 Vibrational            104.065             36.646             40.416
 Vibration     1          0.595              1.977              4.796
 Vibration     2          0.596              1.974              4.533
 Vibration     3          0.598              1.968              4.129
 Vibration     4          0.606              1.944              3.327
 Vibration     5          0.613              1.919              2.880
 Vibration     6          0.618              1.904              2.685
 Vibration     7          0.628              1.871              2.366
 Vibration     8          0.638              1.840              2.133
 Vibration     9          0.643              1.823              2.026
 Vibration    10          0.646              1.813              1.970
 Vibration    11          0.677              1.721              1.569
 Vibration    12          0.691              1.678              1.429
 Vibration    13          0.699              1.656              1.365
 Vibration    14          0.747              1.519              1.052
 Vibration    15          0.775              1.445              0.921
 Vibration    16          0.866              1.227              0.632
 Vibration    17          0.916              1.117              0.523

 Optimization completed.
    -- Stationary point found.
 Normal termination of Gaussian 16 at Wed Apr 14 21:43:09 2021.
