 Gaussian 16, Revision A.03,
 Gaussian 16:  ES64L-G16RevA.03 25-Dec-2016

 ----------------------------------------------------------------------
 # wB97XD def2tzvp, opt=(ts, noeigen, calcfc, maxcycles=70, maxstep=8),
  freq=noraman, scrf=(iefpcm, solvent=water)
 ----------------------------------------------------------------------

 -----------------------
 1_iteration/TS-78-1.out
 -----------------------
 Symbolic Z-matrix:
 Charge =  0 Multiplicity = 1

 SCF Done:  E(RwB97XD) =  -1112.43120545     A.U. after   15 cycles
 SCF Done:  E(RwB97XD) =  -1112.43161186     A.U. after   13 cycles
 SCF Done:  E(RwB97XD) =  -1112.43290278     A.U. after   13 cycles
 SCF Done:  E(RwB97XD) =  -1112.43621313     A.U. after   14 cycles
 SCF Done:  E(RwB97XD) =  -1112.43946610     A.U. after   14 cycles
 SCF Done:  E(RwB97XD) =  -1112.44195394     A.U. after   13 cycles
 SCF Done:  E(RwB97XD) =  -1112.44384365     A.U. after   13 cycles
 SCF Done:  E(RwB97XD) =  -1112.44492959     A.U. after   12 cycles
 SCF Done:  E(RwB97XD) =  -1112.44567292     A.U. after   13 cycles
 SCF Done:  E(RwB97XD) =  -1112.44597135     A.U. after   12 cycles
 SCF Done:  E(RwB97XD) =  -1112.44592454     A.U. after   12 cycles
 SCF Done:  E(RwB97XD) =  -1112.44591993     A.U. after   11 cycles
 SCF Done:  E(RwB97XD) =  -1112.44620618     A.U. after   11 cycles
 SCF Done:  E(RwB97XD) =  -1112.44615900     A.U. after   11 cycles
 SCF Done:  E(RwB97XD) =  -1112.44622185     A.U. after   11 cycles
 SCF Done:  E(RwB97XD) =  -1112.44622253     A.U. after   10 cycles
 SCF Done:  E(RwB97XD) =  -1112.44622414     A.U. after    9 cycles
 SCF Done:  E(RwB97XD) =  -1112.44622405     A.U. after    8 cycles
 SCF Done:  E(RwB97XD) =  -1112.44622417     A.U. after    7 cycles
 Optimization completed.
    -- Stationary point found.
 Normal termination of Gaussian 16 at Sun Jan 31 06:14:14 2021.

 ---------------------------------------------------------------------
 #N Geom=AllCheck Guess=TCheck SCRF=Check GenChk RwB97XD/def2TZVP Freq
 ---------------------------------------------------------------------

 Structure from the checkpoint file:  "/beegfs/scratch/user/q/tla25/Gau-114516.chk"
 -----------------------
 1_iteration/TS-78-1.out
 -----------------------
 Charge =  0 Multiplicity = 1

                         Standard orientation:
 ---------------------------------------------------------------------
 Center     Atomic      Atomic             Coordinates (Angstroms)
 Number     Number       Type             X           Y           Z
 ---------------------------------------------------------------------
      1          6           0       -0.845302   -0.220386   -0.013182
      2          6           0       -2.133647    0.387034   -0.274461
      3          8           0       -2.204972    1.613143   -0.503130
      4          6           0        0.295365    0.531167   -0.320114
      5          6           0        1.401818    3.025524    0.466424
      6          1           0        1.280574    3.940574    1.047186
      7          1           0        2.392865    2.613423    0.648233
      8          1           0        1.311627    3.264982   -0.592936
      9          7           0        0.394709    2.028241    0.809834
     10          1           0        0.469364    1.716701    1.770228
     11          1           0       -0.555875    2.353248    0.641092
     12          6           0        1.679729   -0.021534   -0.290453
     13          6           0        2.367394   -0.136006   -1.495579
     14          6           0        3.655776   -0.647740   -1.533107
     15          6           0        4.282334   -1.036117   -0.358467
     16          6           0        3.611571   -0.910161    0.850025
     17          6           0        2.319455   -0.409597    0.883801
     18          1           0        1.886567    0.177308   -2.414762
     19          1           0        4.172539   -0.733899   -2.480510
     20          1           0        5.290871   -1.428840   -0.382792
     21          1           0        4.096365   -1.202819    1.772777
     22          1           0        1.811456   -0.318298    1.834479
     23          1           0        0.126983    1.157112   -1.191387
     24         17           0       -0.740963   -1.504813    1.197554
     25          7           0       -3.270916   -0.366467   -0.257462
     26          6           0       -3.299558   -1.777362   -0.584263
     27          6           0       -4.552161    0.302540   -0.307189
     28          1           0       -2.318899   -2.111865   -0.910108
     29          1           0       -3.615833   -2.385731    0.266772
     30          1           0       -4.005073   -1.938925   -1.404225
     31          1           0       -5.294265   -0.316386    0.199792
     32          1           0       -4.488563    1.265273    0.192744
     33          1           0       -4.887758    0.468227   -1.337160
 ---------------------------------------------------------------------

 SCF Done:  E(RwB97XD) =  -1112.44622417     A.U. after    1 cycles

 The electronic state is 1-A.
 Alpha  occ. eigenvalues -- -101.68113 -19.20095 -14.47718 -14.45097 -10.37432
 Alpha  occ. eigenvalues --  -10.34018 -10.31619 -10.30609 -10.30444 -10.30185
 Alpha  occ. eigenvalues --  -10.29721 -10.29371 -10.29334 -10.29241 -10.29212
 Alpha  occ. eigenvalues --  -10.29150  -9.56640  -7.31255  -7.30442  -7.30423
 Alpha  occ. eigenvalues --   -1.12642  -1.03546  -1.02517  -0.97431  -0.94929
 Alpha  occ. eigenvalues --   -0.88367  -0.85428  -0.83008  -0.81251  -0.79400
 Alpha  occ. eigenvalues --   -0.78101  -0.72411  -0.70901  -0.67347  -0.63543
 Alpha  occ. eigenvalues --   -0.62462  -0.60051  -0.58799  -0.56572  -0.56110
 Alpha  occ. eigenvalues --   -0.55838  -0.55117  -0.54579  -0.53098  -0.51428
 Alpha  occ. eigenvalues --   -0.51186  -0.49997  -0.48270  -0.48051  -0.47788
 Alpha  occ. eigenvalues --   -0.47332  -0.47132  -0.46070  -0.45283  -0.43894
 Alpha  occ. eigenvalues --   -0.43216  -0.42613  -0.40401  -0.39023  -0.34486
 Alpha  occ. eigenvalues --   -0.33886  -0.33517  -0.31513  -0.25804
 Alpha virt. eigenvalues --    0.03427   0.05047   0.08277   0.09940   0.11854
 Alpha virt. eigenvalues --    0.12716   0.13415   0.13681   0.15005   0.16132
 Alpha virt. eigenvalues --    0.16583   0.17331   0.17597   0.17847   0.18312

 Mulliken charges:
               1
     1  C   -0.230606
     2  C    0.336409
     3  O   -0.589984
     4  C   -0.086801
     5  C   -0.281268
     6  H    0.154101
     7  H    0.153868
     8  H    0.148891
     9  N   -0.303864
    10  H    0.274888
    11  H    0.274975
    12  C    0.305159
    13  C   -0.238798
    14  C   -0.142487
    15  C   -0.148132
    16  C   -0.132840
    17  C   -0.304585
    18  H    0.144064
    19  H    0.144074
    20  H    0.145663
    21  H    0.144520
    22  H    0.150897
    23  H    0.158392
    24  Cl  -0.189994
    25  N   -0.124186
    26  C   -0.294545
    27  C   -0.295168
    28  H    0.153256
    29  H    0.136430
    30  H    0.132608
    31  H    0.137951
    32  H    0.136925
    33  H    0.130187
 Sum of Mulliken charges =  -0.00000

 Dipole moment (field-independent basis, Debye):
    X=              3.4273    Y=              2.5884    Z=              1.2602  Tot=              4.4760
 Quadrupole moment (field-independent basis, Debye-Ang):
   XX=            -90.7838   YY=           -100.1320   ZZ=            -96.4232
   XY=              8.9443   XZ=              0.5067   YZ=              7.2030

  Exact polarizability: 302.632   2.770 222.902   6.518  -7.416 215.508
 Approx polarizability: 218.231  -3.335 185.406   3.235  -8.084 189.589

 ******    1 imaginary frequencies (negative Signs) ******

                      1                      2                      3
                      A                      A                      A
 Frequencies --   -366.5427                35.0758                44.8096
 Red. masses --      6.2527                 3.9002                 5.4421
 Frc consts  --      0.4950                 0.0028                 0.0064
 IR Inten    --    951.7545                 0.4704                 1.2109

                      4                      5                      6
                      A                      A                      A
 Frequencies --     59.4655                77.0656                87.6574
 Red. masses --      3.5763                 4.0651                 3.0871
 Frc consts  --      0.0075                 0.0142                 0.0140
 IR Inten    --      6.8408                 3.6780                 6.9142

                      7                      8                      9
                      A                      A                      A
 Frequencies --    108.7967               120.8994               133.1787
 Red. masses --      4.1235                 1.8221                 2.9954
 Frc consts  --      0.0288                 0.0157                 0.0313
 IR Inten    --      6.9409                 4.1702                28.6526

                     10                     11                     12
                      A                      A                      A
 Frequencies --    144.5669               166.6610               197.9201
 Red. masses --      1.3209                 1.2407                 2.2483
 Frc consts  --      0.0163                 0.0203                 0.0519
 IR Inten    --      4.2805                 1.5719                 8.2590

                     13                     14                     15
                      A                      A                      A
 Frequencies --    207.6937               219.8690               238.7694
 Red. masses --      2.9321                 3.7469                 4.6688
 Frc consts  --      0.0745                 0.1067                 0.1568
 IR Inten    --     23.5179                 8.3379                 1.1276

                     16                     17                     18
                      A                      A                      A
 Frequencies --    258.7863               269.9509               306.5341
 Red. masses --      2.8581                 2.5626                 3.9257
 Frc consts  --      0.1128                 0.1100                 0.2173
 IR Inten    --     16.1026                25.6799                19.8054

                     19                     20                     21
                      A                      A                      A
 Frequencies --    356.0153               394.7494               419.3612
 Red. masses --      4.1012                 3.1461                 2.8519
 Frc consts  --      0.3063                 0.2888                 0.2955
 IR Inten    --     13.5927                16.8319                 1.2633

                     22                     23                     24
                      A                      A                      A
 Frequencies --    456.4519               497.0329               556.8313
 Red. masses --      4.3630                 5.6393                 3.2141
 Frc consts  --      0.5356                 0.8208                 0.5872
 IR Inten    --     97.9689                 3.8600               201.5253

                     25                     26                     27
                      A                      A                      A
 Frequencies --    594.4588               633.8939               664.9798
 Red. masses --      4.0024                 5.8978                 2.9283
 Frc consts  --      0.8333                 1.3963                 0.7629
 IR Inten    --      2.8939                 4.9147                29.7277

                     28                     29                     30
                      A                      A                      A
 Frequencies --    671.0300               721.3164               746.8626
 Red. masses --      4.1217                 1.5898                 2.3538
 Frc consts  --      1.0935                 0.4874                 0.7736
 IR Inten    --     19.3589                65.9778                95.0283

                     31                     32                     33
                      A                      A                      A
 Frequencies --    778.1096               797.9772               836.2384
 Red. masses --      8.9946                 2.1229                 4.3906
 Frc consts  --      3.2086                 0.7965                 1.8090
 IR Inten    --     40.8376                15.6272                14.5241

                     34                     35                     36
                      A                      A                      A
 Frequencies --    873.2855               931.8682               958.8546
 Red. masses --      1.2507                 2.8737                 1.6023
 Frc consts  --      0.5620                 1.4703                 0.8680
 IR Inten    --      0.5937                11.8890                 5.6472

                     37                     38                     39
                      A                      A                      A
 Frequencies --   1009.4692              1012.4472              1027.2609
 Red. masses --      1.3688                 1.1487                 5.6340
 Frc consts  --      0.8218                 0.6937                 3.5029
 IR Inten    --      0.7457                15.8180                 1.0469

                     40                     41                     42
                      A                      A                      A
 Frequencies --   1030.3796              1049.7447              1060.4858
 Red. masses --      1.3217                 1.3480                 2.0642
 Frc consts  --      0.8268                 0.8752                 1.3678
 IR Inten    --      0.7792               137.3660                10.6758

                     43                     44                     45
                      A                      A                      A
 Frequencies --   1065.0267              1087.1568              1090.9985
 Red. masses --      2.1192                 1.8112                 2.0971
 Frc consts  --      1.4163                 1.2612                 1.4707
 IR Inten    --     38.5347               154.7245               123.0760

                     46                     47                     48
                      A                      A                      A
 Frequencies --   1118.0185              1133.6819              1167.8527
 Red. masses --      1.5822                 1.2281                 1.4023
 Frc consts  --      1.1652                 0.9300                 1.1269
 IR Inten    --     18.8579                 1.2105                11.5698

                     49                     50                     51
                      A                      A                      A
 Frequencies --   1184.4699              1203.4208              1209.6478
 Red. masses --      1.1391                 1.2050                 1.4019
 Frc consts  --      0.9416                 1.0282                 1.2086
 IR Inten    --      0.4736               161.4384                61.6800

                     52                     53                     54
                      A                      A                      A
 Frequencies --   1210.8556              1217.1796              1251.5558
 Red. masses --      2.5218                 1.2817                 3.6402
 Frc consts  --      2.1785                 1.1188                 3.3595
 IR Inten    --     15.2629                 9.5598               279.5905

                     55                     56                     57
                      A                      A                      A
 Frequencies --   1272.4903              1314.3005              1333.5383
 Red. masses --      1.3002                 4.9301                 3.8430
 Frc consts  --      1.2404                 5.0176                 4.0265
 IR Inten    --     44.6810                37.1208                46.7727

                     58                     59                     60
                      A                      A                      A
 Frequencies --   1345.3537              1366.3576              1428.3841
 Red. masses --      1.3553                 1.3977                 1.9707
 Frc consts  --      1.4454                 1.5374                 2.3690
 IR Inten    --     11.2781                34.8255               599.3805

                     61                     62                     63
                      A                      A                      A
 Frequencies --   1443.7976              1456.8821              1468.0041
 Red. masses --      1.2303                 1.7711                 1.5552
 Frc consts  --      1.5110                 2.2148                 1.9747
 IR Inten    --    114.1175               119.2565               107.0508

                     64                     65                     66
                      A                      A                      A
 Frequencies --   1473.1414              1483.8774              1491.0946
 Red. masses --      1.1934                 1.1134                 1.0418
 Frc consts  --      1.5259                 1.4445                 1.3648
 IR Inten    --    112.0528                12.6158                20.2192

                     67                     68                     69
                      A                      A                      A
 Frequencies --   1494.3500              1501.4160              1502.3010
 Red. masses --      1.0786                 1.3248                 1.1978
 Frc consts  --      1.4191                 1.7596                 1.5927
 IR Inten    --     37.7956                14.6678                62.2394

                     70                     71                     72
                      A                      A                      A
 Frequencies --   1506.7246              1530.4044              1552.0660
 Red. masses --      1.3151                 1.6245                 2.5463
 Frc consts  --      1.7591                 2.2417                 3.6140
 IR Inten    --     39.8772               264.2557                 3.9810

                     73                     74                     75
                      A                      A                      A
 Frequencies --   1599.3698              1654.9263              1658.2622
 Red. masses --      5.2948                 5.6657                 1.0947
 Frc consts  --      7.9799                 9.1425                 1.7736
 IR Inten    --    619.5720                 2.8673                55.5890

                     76                     77                     78
                      A                      A                      A
 Frequencies --   1679.0803              3022.7304              3036.5029
 Red. masses --      5.8564                 1.0472                 1.0392
 Frc consts  --      9.7281                 5.6376                 5.6454
 IR Inten    --      0.1661               107.9396               122.2686

                     79                     80                     81
                      A                      A                      A
 Frequencies --   3063.3724              3089.9140              3100.1049
 Red. masses --      1.0337                 1.1017                 1.0937
 Frc consts  --      5.7151                 6.1974                 6.1931
 IR Inten    --     56.5788                75.1459                25.9666

                     82                     83                     84
                      A                      A                      A
 Frequencies --   3139.5367              3156.1534              3159.5903
 Red. masses --      1.1048                 1.0895                 1.1038
 Frc consts  --      6.4158                 6.3944                 6.4925
 IR Inten    --     21.8491                 9.1557                13.9567

                     85                     86                     87
                      A                      A                      A
 Frequencies --   3168.2006              3175.6684              3192.1513
 Red. masses --      1.1001                 1.0978                 1.0871
 Frc consts  --      6.5058                 6.5228                 6.5269
 IR Inten    --     13.9831                14.0197                 5.5786

                     88                     89                     90
                      A                      A                      A
 Frequencies --   3198.7763              3207.6020              3215.9334
 Red. masses --      1.0879                 1.0917                 1.0949
 Frc consts  --      6.5588                 6.6175                 6.6716
 IR Inten    --      0.2171                19.2033                32.9500

                     91                     92                     93
                      A                      A                      A
 Frequencies --   3223.8784              3459.3220              3594.3953
 Red. masses --      1.0988                 1.0605                 1.0882
 Frc consts  --      6.7283                 7.4772                 8.2834
 IR Inten    --     11.9482                94.6381                61.9354

 - Thermochemistry -
 -------------------
 Temperature   298.150 Kelvin.  Pressure   1.00000 Atm.
 Atom     1 has atomic number  6 and mass  12.00000

 Molecular mass:   240.10294 amu.
 Principal axes and moments of inertia in atomic units:
                           1         2         3
     Eigenvalues --  2171.932546375.524017263.68880
           X            0.99992   0.01084   0.00624
           Y           -0.01112   0.99887   0.04612
           Z           -0.00573  -0.04619   0.99892
 This molecule is an asymmetric top.
 Rotational symmetry number  1.
 Warning -- assumption of classical behavior for rotation
           may cause significant error
 Rotational temperatures (Kelvin)      0.03988     0.01359     0.01192
 Rotational constants (GHZ):           0.83094     0.28307     0.24846
    1 imaginary frequencies ignored.
 Zero-point vibrational energy     726471.9 (Joules/Mol)
                                  173.63096 (Kcal/Mol)
 Warning -- explicit consideration of  24 degrees of freedom as
           vibrations may cause significant error
 Vibrational temperatures:     50.47    64.47    85.56   110.88   126.12
          (Kelvin)            156.53   173.95   191.61   208.00   239.79
                              284.76   298.82   316.34   343.54   372.34
                              388.40   441.03   512.23   567.96   603.37
                              656.73   715.12   801.16   855.29   912.03
                              956.76   965.46  1037.81  1074.57  1119.53
                             1148.11  1203.16  1256.46  1340.75  1379.58
                             1452.40  1456.69  1478.00  1482.49  1510.35
                             1525.80  1532.34  1564.18  1569.70  1608.58
                             1631.12  1680.28  1704.19  1731.45  1740.41
                             1742.15  1751.25  1800.71  1830.83  1890.99
                             1918.66  1935.66  1965.88  2055.13  2077.30
                             2096.13  2112.13  2119.52  2134.97  2145.35
                             2150.04  2160.20  2161.48  2167.84  2201.91
                             2233.08  2301.14  2381.07  2385.87  2415.82
                             4349.03  4368.85  4407.51  4445.70  4460.36
                             4517.09  4541.00  4545.95  4558.33  4569.08
                             4592.79  4602.33  4615.02  4627.01  4638.44
                             4977.19  5171.53

 Zero-point correction=                           0.276699 (Hartree/Particle)
 Thermal correction to Energy=                    0.293778
 Thermal correction to Enthalpy=                  0.294722
 Thermal correction to Gibbs Free Energy=         0.230762
 Sum of electronic and zero-point Energies=          -1112.169526
 Sum of electronic and thermal Energies=             -1112.152446
 Sum of electronic and thermal Enthalpies=           -1112.151502
 Sum of electronic and thermal Free Energies=        -1112.215462

                     E (Thermal)             CV                S
                      KCal/Mol        Cal/Mol-Kelvin    Cal/Mol-Kelvin
 Total                  184.349             61.449            134.615
 Electronic               0.000              0.000              0.000
 Translational            0.889              2.981             42.329
 Rotational               0.889              2.981             32.975
 Vibrational            182.571             55.487             59.311
 Vibration     1          0.594              1.982              5.519
 Vibration     2          0.595              1.979              5.034
 Vibration     3          0.597              1.974              4.475
 Vibration     4          0.599              1.964              3.964
 Vibration     5          0.601              1.958              3.712
 Vibration     6          0.606              1.942              3.290
 Vibration     7          0.609              1.932              3.086
 Vibration     8          0.613              1.920              2.900
 Vibration     9          0.616              1.909              2.743
 Vibration    10          0.624              1.883              2.473
 Vibration    11          0.637              1.843              2.152
 Vibration    12          0.641              1.829              2.064
 Vibration    13          0.647              1.811              1.960
 Vibration    14          0.657              1.781              1.812
 Vibration    15          0.668              1.748              1.670
 Vibration    16          0.674              1.729              1.597
 Vibration    17          0.697              1.661              1.381
 Vibration    18          0.732              1.563              1.139
 Vibration    19          0.762              1.481              0.982
 Vibration    20          0.782              1.428              0.894
 Vibration    21          0.815              1.347              0.777
 Vibration    22          0.853              1.257              0.666
 Vibration    23          0.912              1.125              0.530
 Vibration    24          0.952              1.044              0.459

 Optimization completed.
    -- Stationary point found.
 Normal termination of Gaussian 16 at Sun Jan 31 07:26:09 2021.
