 Gaussian 16, Revision A.03,
 Gaussian 16:  ES64L-G16RevA.03 25-Dec-2016

 ----------------------------------------------------------------------
 # wB97XD def2tzvp, opt=(ts, noeigen, calcfc, maxcycles=70, maxstep=8),
  freq=noraman, scrf=(iefpcm, solvent=water)
 ----------------------------------------------------------------------

 ------------------------
 1_iteration/TS-762-1.out
 ------------------------
 Symbolic Z-matrix:
 Charge =  0 Multiplicity = 1

 SCF Done:  E(RwB97XD) =  -3591.35394453     A.U. after   15 cycles
 SCF Done:  E(RwB97XD) =  -3591.35612106     A.U. after   13 cycles
 SCF Done:  E(RwB97XD) =  -3591.35868058     A.U. after   13 cycles
 SCF Done:  E(RwB97XD) =  -3591.36205516     A.U. after   13 cycles
 SCF Done:  E(RwB97XD) =  -3591.36463124     A.U. after   13 cycles
 SCF Done:  E(RwB97XD) =  -3591.36522995     A.U. after   12 cycles
 SCF Done:  E(RwB97XD) =  -3591.36583199     A.U. after   13 cycles
 SCF Done:  E(RwB97XD) =  -3591.36593609     A.U. after   12 cycles
 SCF Done:  E(RwB97XD) =  -3591.36597518     A.U. after   12 cycles
 SCF Done:  E(RwB97XD) =  -3591.36603562     A.U. after   11 cycles
 SCF Done:  E(RwB97XD) =  -3591.36594195     A.U. after   12 cycles
 SCF Done:  E(RwB97XD) =  -3591.36606508     A.U. after   11 cycles
 SCF Done:  E(RwB97XD) =  -3591.36606809     A.U. after   11 cycles
 SCF Done:  E(RwB97XD) =  -3591.36607377     A.U. after   10 cycles
 SCF Done:  E(RwB97XD) =  -3591.36607412     A.U. after    9 cycles
 SCF Done:  E(RwB97XD) =  -3591.36607472     A.U. after    8 cycles
 SCF Done:  E(RwB97XD) =  -3591.36607491     A.U. after    9 cycles
 SCF Done:  E(RwB97XD) =  -3591.36607513     A.U. after    7 cycles
 Optimization completed.
    -- Stationary point found.
 Normal termination of Gaussian 16 at Mon Feb 22 12:13:39 2021.

 ---------------------------------------------------------------------
 #N Geom=AllCheck Guess=TCheck SCRF=Check GenChk RwB97XD/def2TZVP Freq
 ---------------------------------------------------------------------

 Structure from the checkpoint file:  "/beegfs/scratch/user/q/tla25/Gau-32291.chk"
 ------------------------
 1_iteration/TS-762-1.out
 ------------------------
 Charge =  0 Multiplicity = 1

                         Standard orientation:
 ---------------------------------------------------------------------
 Center     Atomic      Atomic             Coordinates (Angstroms)
 Number     Number       Type             X           Y           Z
 ---------------------------------------------------------------------
      1          6           0       -0.116767    0.830713   -0.157819
      2          6           0       -0.362821    2.252253   -0.246005
      3          8           0        0.578126    3.045867   -0.337539
      4          6           0       -1.108442   -0.151684   -0.156337
      5          6           0       -1.250612    0.018432    2.615454
      6          1           0       -1.846548    0.049127    3.526023
      7          1           0       -0.492229   -0.757285    2.700868
      8          1           0       -0.766655    0.982757    2.467183
      9          7           0       -2.089368   -0.257891    1.457594
     10          1           0       -2.501346   -1.184612    1.493275
     11          1           0       -2.847726    0.411039    1.380963
     12         35           0       -0.496227   -1.989835   -0.216277
     13         17           0       -2.535197   -0.002370   -1.225705
     14          6           0        1.327839    0.445304   -0.074032
     15          6           0        2.017373    0.416148    1.134579
     16          6           0        3.361639    0.073795    1.183188
     17          6           0        4.043794   -0.238847    0.016614
     18          6           0        3.373257   -0.198898   -1.198310
     19          6           0        2.030450    0.143353   -1.239300
     20          1           0        1.499171    0.665083    2.051542
     21          1           0        3.876488    0.051973    2.135843
     22          1           0        5.092017   -0.507971    0.052848
     23          1           0        3.897562   -0.434874   -2.116201
     24          1           0        1.509305    0.171784   -2.188984
     25          6           0       -1.757120    2.847064   -0.206039
     26          1           0       -2.456150    2.313375    0.434083
     27          1           0       -1.668158    3.873067    0.145788
     28          1           0       -2.180426    2.863565   -1.211364
 ---------------------------------------------------------------------

 SCF Done:  E(RwB97XD) =  -3591.36607513     A.U. after    1 cycles

 The electronic state is 1-A.
 Alpha  occ. eigenvalues -- -483.14445-101.71003 -62.69280 -56.48416 -56.48037
 Alpha  occ. eigenvalues --  -56.48019 -19.20914 -14.50843 -10.45380 -10.36182
 Alpha  occ. eigenvalues --  -10.32601 -10.29852 -10.28700 -10.28663 -10.28609
 Alpha  occ. eigenvalues --  -10.28435 -10.28374 -10.27681 -10.27671  -9.59604
 Alpha  occ. eigenvalues --   -8.83381  -7.34264  -7.33371  -7.33341  -6.65589
 Alpha  occ. eigenvalues --   -6.64383  -6.64329  -2.75965  -2.75628  -2.75586
 Alpha  occ. eigenvalues --   -2.74611  -2.74610  -1.11846  -1.06527  -0.99232
 Alpha  occ. eigenvalues --   -0.96244  -0.90655  -0.87832  -0.84678  -0.84120
 Alpha  occ. eigenvalues --   -0.80708  -0.80209  -0.71259  -0.69998  -0.68540
 Alpha  occ. eigenvalues --   -0.65230  -0.62546  -0.59796  -0.59010  -0.56954
 Alpha  occ. eigenvalues --   -0.55562  -0.55489  -0.53916  -0.52689  -0.51883
 Alpha  occ. eigenvalues --   -0.50510  -0.49983  -0.49456  -0.48720  -0.48105
 Alpha  occ. eigenvalues --   -0.47402  -0.45802  -0.43527  -0.42480  -0.42322
 Alpha  occ. eigenvalues --   -0.41510  -0.40414  -0.38571  -0.37954  -0.33345
 Alpha  occ. eigenvalues --   -0.33070  -0.32043  -0.28799
 Alpha virt. eigenvalues --    0.02594   0.03415   0.05379   0.05760   0.07858
 Alpha virt. eigenvalues --    0.09796   0.12725   0.13925   0.14425   0.14733
 Alpha virt. eigenvalues --    0.15854   0.16717   0.17510   0.18186   0.18654

 Mulliken charges:
               1
     1  C   -0.329528
     2  C    0.240266
     3  O   -0.496810
     4  C    0.114201
     5  C   -0.315940
     6  H    0.177243
     7  H    0.172733
     8  H    0.163315
     9  N   -0.292281
    10  H    0.301035
    11  H    0.287825
    12  Br  -0.043627
    13  Cl  -0.065944
    14  C    0.293667
    15  C   -0.220280
    16  C   -0.173238
    17  C   -0.134513
    18  C   -0.148513
    19  C   -0.252634
    20  H    0.148219
    21  H    0.137655
    22  H    0.141733
    23  H    0.138598
    24  H    0.136577
    25  C   -0.364437
    26  H    0.098502
    27  H    0.131990
    28  H    0.154185
 Sum of Mulliken charges =  -0.00000

 Dipole moment (field-independent basis, Debye):
    X=             -6.8290    Y=             -4.9096    Z=              6.0082  Tot=             10.3363
 Quadrupole moment (field-independent basis, Debye-Ang):
   XX=            -93.5079   YY=           -125.9465   ZZ=            -94.2491
   XY=             -9.4998   XZ=             -9.8049   YZ=              1.5166

  Exact polarizability: 274.766   1.747 238.011  -1.747  -4.674 229.224
 Approx polarizability: 218.629   1.455 193.889  -0.416  -2.108 197.618

 ******    1 imaginary frequencies (negative Signs) ******

                      1                      2                      3
                      A                      A                      A
 Frequencies --   -364.7379                40.2735                60.4879
 Red. masses --      5.8556                 4.2313                 7.1768
 Frc consts  --      0.4590                 0.0040                 0.0155
 IR Inten    --    810.5194                 1.8342                 6.9854

                      4                      5                      6
                      A                      A                      A
 Frequencies --     68.5644                82.8564                91.7118
 Red. masses --      6.6845                 4.5712                 2.9408
 Frc consts  --      0.0185                 0.0185                 0.0146
 IR Inten    --      2.3698                 3.6142                 3.4387

                      7                      8                      9
                      A                      A                      A
 Frequencies --    131.3973               155.0909               181.0527
 Red. masses --      4.0981                 6.8546                 2.1985
 Frc consts  --      0.0417                 0.0971                 0.0425
 IR Inten    --      4.1693                 3.8452                 0.6937

                     10                     11                     12
                      A                      A                      A
 Frequencies --    204.3801               211.7713               221.6756
 Red. masses --      1.9977                 2.6301                 1.9374
 Frc consts  --      0.0492                 0.0695                 0.0561
 IR Inten    --      5.8750                 0.5797                 1.0589

                     13                     14                     15
                      A                      A                      A
 Frequencies --    232.0385               257.3430               268.6027
 Red. masses --      2.1931                 2.6769                 4.6394
 Frc consts  --      0.0696                 0.1044                 0.1972
 IR Inten    --      4.2279                 3.4757                30.3691

                     16                     17                     18
                      A                      A                      A
 Frequencies --    305.9828               353.1370               368.9923
 Red. masses --      5.9759                 6.9461                 3.7344
 Frc consts  --      0.3296                 0.5104                 0.2996
 IR Inten    --     10.4760                16.8644                 7.2279

                     19                     20                     21
                      A                      A                      A
 Frequencies --    417.7065               424.4799               514.8446
 Red. masses --      4.8971                 2.9027                 4.5841
 Frc consts  --      0.5034                 0.3082                 0.7159
 IR Inten    --     15.3941                 0.3841                39.8540

                     22                     23                     24
                      A                      A                      A
 Frequencies --    527.6299               589.2333               632.8312
 Red. masses --      3.6598                 3.9539                 5.3997
 Frc consts  --      0.6003                 0.8088                 1.2741
 IR Inten    --     45.8438                82.6786                 9.6833

                     25                     26                     27
                      A                      A                      A
 Frequencies --    648.5824               661.8110               697.3480
 Red. masses --      3.5877                 1.9095                 3.6139
 Frc consts  --      0.8892                 0.4928                 1.0354
 IR Inten    --     62.1301                20.3567                52.3844

                     28                     29                     30
                      A                      A                      A
 Frequencies --    725.8810               763.6116               794.6638
 Red. masses --      1.5892                 3.3810                 2.9219
 Frc consts  --      0.4933                 1.1615                 1.0871
 IR Inten    --     86.8729               144.4274               106.3689

                     31                     32                     33
                      A                      A                      A
 Frequencies --    841.6403               876.5229               927.8203
 Red. masses --      3.3951                 1.2498                 2.6499
 Frc consts  --      1.4169                 0.5657                 1.3440
 IR Inten    --    123.1703                 0.1307                17.5740

                     34                     35                     36
                      A                      A                      A
 Frequencies --    962.6863              1010.3135              1016.8743
 Red. masses --      1.7558                 1.3718                 1.1000
 Frc consts  --      0.9588                 0.8250                 0.6702
 IR Inten    --     41.9686                 0.2815                 5.1261

                     37                     38                     39
                      A                      A                      A
 Frequencies --   1026.2184              1027.0436              1033.3642
 Red. masses --      1.4116                 4.4461                 1.7163
 Frc consts  --      0.8759                 2.7632                 1.0798
 IR Inten    --      5.9988                 1.5867                87.6742

                     40                     41                     42
                      A                      A                      A
 Frequencies --   1041.0931              1054.5118              1066.0271
 Red. masses --      1.7770                 1.3557                 1.8825
 Frc consts  --      1.1348                 0.8882                 1.2604
 IR Inten    --      4.4385                70.0395                27.3254

                     43                     44                     45
                      A                      A                      A
 Frequencies --   1088.1694              1110.9907              1181.2337
 Red. masses --      4.5098                 1.5597                 1.1325
 Frc consts  --      3.1463                 1.1343                 0.9310
 IR Inten    --     70.8764                13.6564                 0.0755

                     46                     47                     48
                      A                      A                      A
 Frequencies --   1207.9960              1211.2869              1239.0092
 Red. masses --      1.2584                 2.7280                 1.3915
 Frc consts  --      1.0819                 2.3583                 1.2586
 IR Inten    --      7.7310                75.3770                32.6983

                     49                     50                     51
                      A                      A                      A
 Frequencies --   1307.4750              1327.6902              1343.6146
 Red. masses --      4.5636                 4.2084                 1.3534
 Frc consts  --      4.5965                 4.3708                 1.4395
 IR Inten    --      8.0094              1208.3977                46.2760

                     52                     53                     54
                      A                      A                      A
 Frequencies --   1357.6282              1391.5847              1404.6880
 Red. masses --      1.4364                 1.5645                 3.5511
 Frc consts  --      1.5598                 1.7851                 4.1283
 IR Inten    --      1.9352               257.6223               242.3640

                     55                     56                     57
                      A                      A                      A
 Frequencies --   1461.2573              1463.6430              1486.8845
 Red. masses --      1.2002                 1.0906                 2.1912
 Frc consts  --      1.5100                 1.3766                 2.8542
 IR Inten    --     12.1043                20.4382                 6.1344

                     58                     59                     60
                      A                      A                      A
 Frequencies --   1495.3950              1498.6787              1503.7000
 Red. masses --      1.0640                 1.0377                 1.0554
 Frc consts  --      1.4019                 1.3732                 1.4061
 IR Inten    --     11.2275                19.2667                58.3678

                     61                     62                     63
                      A                      A                      A
 Frequencies --   1544.7729              1639.9474              1645.3888
 Red. masses --      2.3991                 1.1865                 5.5376
 Frc consts  --      3.3731                 1.8801                 8.8329
 IR Inten    --     39.9014               228.9510               420.2729

                     64                     65                     66
                      A                      A                      A
 Frequencies --   1646.9195              1672.7075              3076.1287
 Red. masses --      5.8275                 6.0658                 1.0375
 Frc consts  --      9.3127                 9.9995                 5.7842
 IR Inten    --     58.3445                57.8893                10.5370

                     67                     68                     69
                      A                      A                      A
 Frequencies --   3077.1235              3151.4509              3163.0528
 Red. masses --      1.0322                 1.0990                 1.1052
 Frc consts  --      5.7587                 6.4310                 6.5146
 IR Inten    --     16.4325                15.3095                 6.1301

                     70                     71                     72
                      A                      A                      A
 Frequencies --   3171.4925              3172.7188              3188.3801
 Red. masses --      1.1026                 1.1066                 1.0861
 Frc consts  --      6.5344                 6.5629                 6.5049
 IR Inten    --     38.2232                 8.3108                 4.4771

                     73                     74                     75
                      A                      A                      A
 Frequencies --   3194.8779              3204.3733              3214.2705
 Red. masses --      1.0882                 1.0926                 1.0949
 Frc consts  --      6.5441                 6.6101                 6.6649
 IR Inten    --      1.0270                29.0889                42.9661

                     76                     77                     78
                      A                      A                      A
 Frequencies --   3222.3652              3517.0949              3598.0646
 Red. masses --      1.0966                 1.0511                 1.0962
 Frc consts  --      6.7089                 7.6609                 8.3617
 IR Inten    --     13.8843                76.1426                66.3542

 - Thermochemistry -
 -------------------
 Temperature   298.150 Kelvin.  Pressure   1.00000 Atm.
 Atom     1 has atomic number  6 and mass  12.00000

 Molecular mass:   288.98690 amu.
 Principal axes and moments of inertia in atomic units:
                           1         2         3
     Eigenvalues --  3398.066084839.411016176.39208
           X            0.99728  -0.06939  -0.02483
           Y            0.06925   0.99758  -0.00650
           Z            0.02522   0.00476   0.99967
 This molecule is an asymmetric top.
 Rotational symmetry number  1.
 Warning -- assumption of classical behavior for rotation
           may cause significant error
 Rotational temperatures (Kelvin)      0.02549     0.01790     0.01402
 Rotational constants (GHZ):           0.53111     0.37293     0.29220
    1 imaginary frequencies ignored.
 Zero-point vibrational energy     578395.4 (Joules/Mol)
                                  138.23981 (Kcal/Mol)
 Warning -- explicit consideration of  22 degrees of freedom as
           vibrations may cause significant error
 Vibrational temperatures:     57.94    87.03    98.65   119.21   131.95
          (Kelvin)            189.05   223.14   260.49   294.06   304.69
                              318.94   333.85   370.26   386.46   440.24
                              508.09   530.90   600.99   610.73   740.75
                              759.14   847.78   910.50   933.17   952.20
                             1003.33  1044.38  1098.67  1143.34  1210.93
                             1261.12  1334.93  1385.09  1453.62  1463.06
                             1476.50  1477.69  1486.78  1497.90  1517.21
                             1533.78  1565.63  1598.47  1699.53  1738.04
                             1742.77  1782.66  1881.16  1910.25  1933.16
                             1953.32  2002.18  2021.03  2102.42  2105.86
                             2139.30  2151.54  2156.26  2163.49  2222.58
                             2359.52  2367.35  2369.55  2406.65  4425.86
                             4427.29  4534.23  4550.93  4563.07  4564.83
                             4587.37  4596.72  4610.38  4624.62  4636.26
                             5060.32  5176.81

 Zero-point correction=                           0.220299 (Hartree/Particle)
 Thermal correction to Energy=                    0.235848
 Thermal correction to Enthalpy=                  0.236792
 Thermal correction to Gibbs Free Energy=         0.176335
 Sum of electronic and zero-point Energies=          -3591.145776
 Sum of electronic and thermal Energies=             -3591.130227
 Sum of electronic and thermal Enthalpies=           -3591.129283
 Sum of electronic and thermal Free Energies=        -3591.189740

                     E (Thermal)             CV                S
                      KCal/Mol        Cal/Mol-Kelvin    Cal/Mol-Kelvin
 Total                  147.997             56.630            127.242
 Electronic               0.000              0.000              0.000
 Translational            0.889              2.981             42.881
 Rotational               0.889              2.981             32.985
 Vibrational            146.219             50.668             51.375
 Vibration     1          0.594              1.981              5.246
 Vibration     2          0.597              1.973              4.441
 Vibration     3          0.598              1.969              4.194
 Vibration     4          0.600              1.961              3.822
 Vibration     5          0.602              1.955              3.623
 Vibration     6          0.612              1.922              2.925
 Vibration     7          0.620              1.897              2.609
 Vibration     8          0.630              1.865              2.318
 Vibration     9          0.640              1.834              2.093
 Vibration    10          0.643              1.823              2.028
 Vibration    11          0.648              1.808              1.945
 Vibration    12          0.653              1.792              1.863
 Vibration    13          0.667              1.750              1.680
 Vibration    14          0.673              1.731              1.605
 Vibration    15          0.696              1.662              1.384
 Vibration    16          0.729              1.569              1.152
 Vibration    17          0.741              1.536              1.084
 Vibration    18          0.781              1.432              0.900
 Vibration    19          0.786              1.417              0.877
 Vibration    20          0.870              1.217              0.622
 Vibration    21          0.883              1.189              0.593
 Vibration    22          0.947              1.055              0.469

 Optimization completed.
    -- Stationary point found.
 Normal termination of Gaussian 16 at Mon Feb 22 13:14:51 2021.
