 Gaussian 16, Revision A.03,
 Gaussian 16:  ES64L-G16RevA.03 25-Dec-2016

 ----------------------------------------------------------------------
 # wB97XD def2tzvp, opt=(ts, noeigen, calcfc, maxcycles=70, maxstep=1),
  freq=noraman, scrf=(iefpcm, solvent=water)
 ----------------------------------------------------------------------

 ------------------------
 0_iteration/TS-793-0.out
 ------------------------
 Symbolic Z-matrix:
 Charge =  0 Multiplicity = 1

 SCF Done:  E(RwB97XD) =  -3780.60615862     A.U. after   15 cycles
 SCF Done:  E(RwB97XD) =  -3780.60605370     A.U. after   10 cycles
 SCF Done:  E(RwB97XD) =  -3780.60595241     A.U. after   10 cycles
 SCF Done:  E(RwB97XD) =  -3780.60585500     A.U. after   10 cycles
 SCF Done:  E(RwB97XD) =  -3780.60576156     A.U. after   10 cycles
 SCF Done:  E(RwB97XD) =  -3780.60567224     A.U. after   10 cycles
 SCF Done:  E(RwB97XD) =  -3780.60558715     A.U. after   10 cycles
 SCF Done:  E(RwB97XD) =  -3780.60550621     A.U. after   10 cycles
 SCF Done:  E(RwB97XD) =  -3780.60542934     A.U. after   10 cycles
 SCF Done:  E(RwB97XD) =  -3780.60535648     A.U. after   10 cycles
 SCF Done:  E(RwB97XD) =  -3780.60647941     A.U. after   10 cycles
 SCF Done:  E(RwB97XD) =  -3780.60650801     A.U. after   10 cycles
 SCF Done:  E(RwB97XD) =  -3780.60653037     A.U. after   10 cycles
 SCF Done:  E(RwB97XD) =  -3780.60654553     A.U. after   10 cycles
 SCF Done:  E(RwB97XD) =  -3780.60655439     A.U. after   10 cycles
 SCF Done:  E(RwB97XD) =  -3780.60655882     A.U. after   10 cycles
 SCF Done:  E(RwB97XD) =  -3780.60655987     A.U. after   10 cycles
 SCF Done:  E(RwB97XD) =  -3780.60656002     A.U. after    8 cycles
 SCF Done:  E(RwB97XD) =  -3780.60656000     A.U. after    8 cycles
 Optimization completed.
    -- Stationary point found.
 Normal termination of Gaussian 16 at Sun Feb 21 18:41:11 2021.

 ---------------------------------------------------------------------
 #N Geom=AllCheck Guess=TCheck SCRF=Check GenChk RwB97XD/def2TZVP Freq
 ---------------------------------------------------------------------

 Structure from the checkpoint file:  "/beegfs/scratch/user/q/tla25/Gau-69523.chk"
 ------------------------
 0_iteration/TS-793-0.out
 ------------------------
 Charge =  0 Multiplicity = 1

                         Standard orientation:
 ---------------------------------------------------------------------
 Center     Atomic      Atomic             Coordinates (Angstroms)
 Number     Number       Type             X           Y           Z
 ---------------------------------------------------------------------
      1          6           0        1.016671   -0.351798   -0.279527
      2          6           0        2.212173    0.176498   -0.866347
      3          8           0        3.306495   -0.365801   -0.846886
      4          6           0       -0.198176    0.306248   -0.235023
      5          6           0        0.837642    1.890997    1.906551
      6          1           0        0.833798    2.238576    2.939637
      7          1           0        1.688779    1.224260    1.763695
      8          1           0        0.940260    2.746377    1.241239
      9          7           0       -0.380850    1.169760    1.578906
     10          1           0       -0.548989    0.402412    2.219258
     11          1           0       -1.200171    1.766380    1.570625
     12         35           0       -1.828339   -0.712593   -0.147560
     13         17           0       -0.397556    1.735938   -1.211187
     14         17           0        1.174025   -1.851967    0.586310
     15          1           0        2.082330    1.141644   -1.378135
 ---------------------------------------------------------------------

 SCF Done:  E(RwB97XD) =  -3780.60656000     A.U. after    1 cycles

 The electronic state is 1-A.
 Alpha  occ. eigenvalues -- -483.15011-101.72716-101.70247 -62.69859 -56.48999
 Alpha  occ. eigenvalues --  -56.48610 -56.48594 -19.23083 -14.49002 -10.45857
 Alpha  occ. eigenvalues --  -10.36888 -10.33745 -10.32107  -9.61276  -9.58765
 Alpha  occ. eigenvalues --   -8.83974  -7.35972  -7.35024  -7.35002  -7.33420
 Alpha  occ. eigenvalues --   -7.32543  -7.32524  -6.66202  -6.64962  -6.64913
 Alpha  occ. eigenvalues --   -2.76577  -2.76226  -2.76189  -2.75186  -2.75185
 Alpha  occ. eigenvalues --   -1.13701  -1.05304  -1.01313  -0.96850  -0.90539
 Alpha  occ. eigenvalues --   -0.84370  -0.79333  -0.73536  -0.64201  -0.63315
 Alpha  occ. eigenvalues --   -0.59958  -0.58364  -0.56587  -0.55230  -0.51342
 Alpha  occ. eigenvalues --   -0.50156  -0.49369  -0.48608  -0.47516  -0.43738
 Alpha  occ. eigenvalues --   -0.43016  -0.41473  -0.40815  -0.38112  -0.37660
 Alpha  occ. eigenvalues --   -0.34286  -0.29988
 Alpha virt. eigenvalues --    0.00307   0.03454   0.06392   0.10642   0.12163
 Alpha virt. eigenvalues --    0.13682   0.15128   0.15665   0.17930   0.18420
 Alpha virt. eigenvalues --    0.19993   0.21793   0.22341   0.23636   0.25656

 Mulliken charges:
               1
     1  C   -0.109343
     2  C    0.081536
     3  O   -0.446667
     4  C    0.127584
     5  C   -0.307151
     6  H    0.166631
     7  H    0.164794
     8  H    0.160899
     9  N   -0.376158
    10  H    0.291119
    11  H    0.298785
    12  Br  -0.015991
    13  Cl  -0.020503
    14  Cl  -0.121721
    15  H    0.106185
 Sum of Mulliken charges =  -0.00000

 Dipole moment (field-independent basis, Debye):
    X=             -6.2294    Y=              5.7933    Z=              5.0745  Tot=              9.9055
 Quadrupole moment (field-independent basis, Debye-Ang):
   XX=            -98.4700   YY=            -74.3611   ZZ=            -70.5131
   XY=              5.7164   XZ=              2.2416   YZ=              4.2240

  Exact polarizability: 183.564 -10.319 153.371 -15.381  -0.819 133.777
 Approx polarizability: 149.180  -7.536 130.942 -10.875  -4.166 115.601

 ******    1 imaginary frequencies (negative Signs) ******

                      1                      2                      3
                      A                      A                      A
 Frequencies --   -359.2015                51.6263                58.7736
 Red. masses --      5.7802                 1.9679                 8.2998
 Frc consts  --      0.4394                 0.0031                 0.0169
 IR Inten    --    776.8866                 0.4683                 0.7304

                      4                      5                      6
                      A                      A                      A
 Frequencies --    106.9160               135.7332               153.5492
 Red. masses --      3.0528                 2.9204                 3.7260
 Frc consts  --      0.0206                 0.0317                 0.0518
 IR Inten    --      8.1869                 1.3506                 1.7961

                      7                      8                      9
                      A                      A                      A
 Frequencies --    187.9968               216.1295               225.1270
 Red. masses --      3.2481                 6.1666                16.6873
 Frc consts  --      0.0676                 0.1697                 0.4983
 IR Inten    --      7.7463                14.0371                 7.9881

                     10                     11                     12
                      A                      A                      A
 Frequencies --    258.0152               271.2558               312.7361
 Red. masses --      3.5078                 5.0991                 6.2128
 Frc consts  --      0.1376                 0.2211                 0.3580
 IR Inten    --      6.0197                21.5461                 2.9152

                     13                     14                     15
                      A                      A                      A
 Frequencies --    341.8382               392.2666               528.2791
 Red. masses --      5.9773                 8.1354                 5.6004
 Frc consts  --      0.4115                 0.7376                 0.9209
 IR Inten    --      2.5330                 0.9096               115.6151

                     16                     17                     18
                      A                      A                      A
 Frequencies --    621.1278               670.0270               788.8407
 Red. masses --      1.4097                 7.5907                 7.6833
 Frc consts  --      0.3204                 2.0078                 2.8169
 IR Inten    --      7.4208               110.9211               178.7302

                     19                     20                     21
                      A                      A                      A
 Frequencies --    846.9937               988.5539              1010.2564
 Red. masses --      7.8641                 1.0838                 1.1237
 Frc consts  --      3.3240                 0.6240                 0.6757
 IR Inten    --    184.4202                59.5570                88.8370

                     22                     23                     24
                      A                      A                      A
 Frequencies --   1018.6307              1085.2754              1202.2837
 Red. masses --      1.6555                 4.7216                 1.4318
 Frc consts  --      1.0121                 3.2766                 1.2194
 IR Inten    --      6.5710                22.8092                 7.2146

                     25                     26                     27
                      A                      A                      A
 Frequencies --   1220.7981              1338.4827              1390.7748
 Red. masses --      5.5249                 1.3359                 2.7503
 Frc consts  --      4.8513                 1.4101                 3.1343
 IR Inten    --    433.6876                 1.4136               796.2800

                     28                     29                     30
                      A                      A                      A
 Frequencies --   1455.8390              1477.8174              1490.0116
 Red. masses --      1.2050                 1.8103                 1.0437
 Frc consts  --      1.5048                 2.3293                 1.3652
 IR Inten    --     39.3531               319.4729                19.9734

                     31                     32                     33
                      A                      A                      A
 Frequencies --   1502.0445              1644.3058              1701.2156
 Red. masses --      1.0357                 1.0905                 9.1922
 Frc consts  --      1.3767                 1.7372                15.6743
 IR Inten    --     19.2303                60.4103               911.7597

                     34                     35                     36
                      A                      A                      A
 Frequencies --   3017.6043              3068.0118              3143.3153
 Red. masses --      1.0836                 1.0331                 1.1044
 Frc consts  --      5.8137                 5.7294                 6.4293
 IR Inten    --     58.8184                22.5086                 8.6395

                     37                     38                     39
                      A                      A                      A
 Frequencies --   3165.2278              3524.4714              3611.2823
 Red. masses --      1.1052                 1.0501                 1.0973
 Frc consts  --      6.5240                 7.6853                 8.4313
 IR Inten    --     10.1208                79.4453                59.9953

 - Thermochemistry -
 -------------------
 Temperature   298.150 Kelvin.  Pressure   1.00000 Atm.
 Atom     1 has atomic number  6 and mass  12.00000

 Molecular mass:   232.90098 amu.
 Principal axes and moments of inertia in atomic units:
                           1         2         3
     Eigenvalues --  1922.034412748.461123340.70079
           X            0.99998  -0.00349  -0.00549
           Y            0.00403   0.99468   0.10293
           Z            0.00510  -0.10295   0.99467
 This molecule is an asymmetric top.
 Rotational symmetry number  1.
 Warning -- assumption of classical behavior for rotation
           may cause significant error
 Rotational temperatures (Kelvin)      0.04506     0.03151     0.02593
 Rotational constants (GHZ):           0.93897     0.65664     0.54023
    1 imaginary frequencies ignored.
 Zero-point vibrational energy     264514.9 (Joules/Mol)
                                   63.22057 (Kcal/Mol)
 Warning -- explicit consideration of  14 degrees of freedom as
           vibrations may cause significant error
 Vibrational temperatures:     74.28    84.56   153.83   195.29   220.92
          (Kelvin)            270.49   310.96   323.91   371.23   390.28
                              449.96   491.83   564.38   760.08   893.66
                              964.02  1134.97  1218.63  1422.31  1453.53
                             1465.58  1561.47  1729.82  1756.46  1925.78
                             2001.01  2094.63  2126.25  2143.79  2161.11
                             2365.79  2447.67  4341.66  4414.18  4522.53
                             4554.06  5070.93  5195.83

 Zero-point correction=                           0.100748 (Hartree/Particle)
 Thermal correction to Energy=                    0.111754
 Thermal correction to Enthalpy=                  0.112698
 Thermal correction to Gibbs Free Energy=         0.061966
 Sum of electronic and zero-point Energies=          -3780.505812
 Sum of electronic and thermal Energies=             -3780.494806
 Sum of electronic and thermal Enthalpies=           -3780.493862
 Sum of electronic and thermal Free Energies=        -3780.544594

                     E (Thermal)             CV                S
                      KCal/Mol        Cal/Mol-Kelvin    Cal/Mol-Kelvin
 Total                   70.127             36.102            106.776
 Electronic               0.000              0.000              0.000
 Translational            0.889              2.981             42.238
 Rotational               0.889              2.981             31.246
 Vibrational             68.349             30.141             33.292
 Vibration     1          0.596              1.977              4.754
 Vibration     2          0.596              1.974              4.498
 Vibration     3          0.606              1.944              3.324
 Vibration     4          0.614              1.918              2.863
 Vibration     5          0.619              1.899              2.628
 Vibration     6          0.633              1.856              2.247
 Vibration     7          0.645              1.816              1.991
 Vibration     8          0.650              1.803              1.917
 Vibration     9          0.667              1.749              1.675
 Vibration    10          0.675              1.726              1.588
 Vibration    11          0.701              1.649              1.348
 Vibration    12          0.721              1.592              1.204
 Vibration    13          0.760              1.487              0.992
 Vibration    14          0.883              1.187              0.591

 Optimization completed.
    -- Stationary point found.
 Normal termination of Gaussian 16 at Sun Feb 21 18:50:44 2021.
