 Gaussian 16, Revision A.03,
 Gaussian 16:  ES64L-G16RevA.03 25-Dec-2016

 ----------------------------------------------------------------------
 # wB97XD def2tzvp, opt=(ts, noeigen, calcfc, maxcycles=70, maxstep=8),
  freq=noraman, scrf=(iefpcm, solvent=water)
 ----------------------------------------------------------------------

 ------------------------
 1_iteration/TS-761-1.out
 ------------------------
 Symbolic Z-matrix:
 Charge =  0 Multiplicity = 1

 SCF Done:  E(RwB97XD) =  -3552.04872741     A.U. after   15 cycles
 SCF Done:  E(RwB97XD) =  -3552.04872630     A.U. after    8 cycles
 Optimization completed.
    -- Stationary point found.
 Normal termination of Gaussian 16 at Mon Feb 22 06:32:42 2021.

 ---------------------------------------------------------------------
 #N Geom=AllCheck Guess=TCheck SCRF=Check GenChk RwB97XD/def2TZVP Freq
 ---------------------------------------------------------------------

 Structure from the checkpoint file:  "/beegfs/scratch/user/q/tla25/Gau-27454.chk"
 ------------------------
 1_iteration/TS-761-1.out
 ------------------------
 Charge =  0 Multiplicity = 1

                         Standard orientation:
 ---------------------------------------------------------------------
 Center     Atomic      Atomic             Coordinates (Angstroms)
 Number     Number       Type             X           Y           Z
 ---------------------------------------------------------------------
      1          6           0       -0.027082    0.948235   -0.302158
      2          6           0       -0.125114    2.347421   -0.583908
      3          8           0        0.823281    3.120544   -0.690492
      4          6           0       -1.186655    0.186897   -0.186314
      5          6           0       -1.109446    0.481940    2.627250
      6          1           0       -1.618686    0.622242    3.580062
      7          1           0       -0.521031   -0.433501    2.661814
      8          1           0       -0.451635    1.329835    2.448514
      9          7           0       -2.062842    0.400214    1.530331
     10          1           0       -2.717928   -0.365833    1.646109
     11          1           0       -2.595930    1.258585    1.440855
     12         35           0       -0.990591   -1.732059   -0.136075
     13         17           0       -2.614979    0.631921   -1.142240
     14          6           0        1.338596    0.368235   -0.140030
     15          6           0        1.933318   -0.297088   -1.211467
     16          6           0        3.215547   -0.814353   -1.110350
     17          6           0        3.934470   -0.664464    0.067278
     18          6           0        3.363442    0.012220    1.134796
     19          6           0        2.078641    0.525963    1.028443
     20          1           0        1.377159   -0.412236   -2.134073
     21          1           0        3.655126   -1.332198   -1.953775
     22          1           0        4.935984   -1.067581    0.150032
     23          1           0        3.918982    0.142704    2.055170
     24          1           0        1.651223    1.060744    1.866065
     25          1           0       -1.148570    2.740788   -0.709684
 ---------------------------------------------------------------------

 SCF Done:  E(RwB97XD) =  -3552.04872630     A.U. after    1 cycles

 The electronic state is 1-A.
 Alpha  occ. eigenvalues -- -483.14622-101.71481 -62.69459 -56.48594 -56.48216
 Alpha  occ. eigenvalues --  -56.48199 -19.21865 -14.49902 -10.45395 -10.35490
 Alpha  occ. eigenvalues --  -10.32323 -10.30214 -10.28891 -10.28852 -10.28808
 Alpha  occ. eigenvalues --  -10.28763 -10.28718 -10.28218  -9.60066  -8.83562
 Alpha  occ. eigenvalues --   -7.34735  -7.33830  -7.33800  -6.65768  -6.64564
 Alpha  occ. eigenvalues --   -6.64512  -2.76147  -2.75808  -2.75767  -2.74793
 Alpha  occ. eigenvalues --   -2.74793  -1.12167  -1.05763  -0.99729  -0.96551
 Alpha  occ. eigenvalues --   -0.90951  -0.88157  -0.84923  -0.82900  -0.79759
 Alpha  occ. eigenvalues --   -0.71741  -0.70697  -0.70214  -0.64445  -0.64006
 Alpha  occ. eigenvalues --   -0.59852  -0.58553  -0.58446  -0.55735  -0.55198
 Alpha  occ. eigenvalues --   -0.54094  -0.53180  -0.50761  -0.49962  -0.49433
 Alpha  occ. eigenvalues --   -0.48675  -0.48330  -0.46505  -0.46079  -0.43298
 Alpha  occ. eigenvalues --   -0.42683  -0.42183  -0.40699  -0.38341  -0.38310
 Alpha  occ. eigenvalues --   -0.33574  -0.33260  -0.32807  -0.29325
 Alpha virt. eigenvalues --    0.01702   0.03507   0.05296   0.05586   0.08318
 Alpha virt. eigenvalues --    0.10317   0.12888   0.14019   0.14553   0.15289
 Alpha virt. eigenvalues --    0.16165   0.17155   0.17476   0.18397   0.19116

 Mulliken charges:
               1
     1  C   -0.185294
     2  C    0.101497
     3  O   -0.478075
     4  C    0.110276
     5  C   -0.313313
     6  H    0.172152
     7  H    0.167495
     8  H    0.157037
     9  N   -0.311626
    10  H    0.297160
    11  H    0.288282
    12  Br  -0.036265
    13  Cl  -0.055678
    14  C    0.227137
    15  C   -0.254272
    16  C   -0.138387
    17  C   -0.142255
    18  C   -0.157297
    19  C   -0.239430
    20  H    0.144935
    21  H    0.140833
    22  H    0.142951
    23  H    0.139887
    24  H    0.140649
    25  H    0.081602
 Sum of Mulliken charges =  -0.00000

 Dipole moment (field-independent basis, Debye):
    X=             -6.1626    Y=             -4.1213    Z=              6.4485  Tot=              9.8258
 Quadrupole moment (field-independent basis, Debye-Ang):
   XX=            -89.4216   YY=           -119.0706   ZZ=            -88.9978
   XY=            -13.4176   XZ=             -7.5811   YZ=              8.7268

  Exact polarizability: 260.388  -0.170 221.474  -2.575  -0.671 214.703
 Approx polarizability: 205.474  -0.903 185.267   0.035   1.997 182.775

 ******    1 imaginary frequencies (negative Signs) ******

                      1                      2                      3
                      A                      A                      A
 Frequencies --   -352.0673                26.7949                54.9151
 Red. masses --      5.9838                 4.2542                 6.5465
 Frc consts  --      0.4370                 0.0018                 0.0116
 IR Inten    --    859.1406                 0.4527                 4.2232

                      4                      5                      6
                      A                      A                      A
 Frequencies --     66.4832                72.0338               117.8770
 Red. masses --      3.5352                 4.7875                 4.4649
 Frc consts  --      0.0092                 0.0146                 0.0366
 IR Inten    --      2.3590                 1.4381                 3.8679

                      7                      8                      9
                      A                      A                      A
 Frequencies --    157.5232               163.8401               191.1141
 Red. masses --      6.6176                 2.4691                 3.5955
 Frc consts  --      0.0967                 0.0391                 0.0774
 IR Inten    --      6.4997                 3.3167                 8.7508

                     10                     11                     12
                      A                      A                      A
 Frequencies --    218.1651               225.9001               240.4232
 Red. masses --      2.5016                 4.0548                 2.6782
 Frc consts  --      0.0702                 0.1219                 0.0912
 IR Inten    --      4.5215                 8.2451                16.8814

                     13                     14                     15
                      A                      A                      A
 Frequencies --    242.7466               269.0070               323.1436
 Red. masses --      3.5060                 3.8965                 6.6030
 Frc consts  --      0.1217                 0.1661                 0.4062
 IR Inten    --      3.4204                16.8543                11.5463

                     16                     17                     18
                      A                      A                      A
 Frequencies --    350.7035               413.9424               423.8900
 Red. masses --      8.0610                 5.4045                 2.8774
 Frc consts  --      0.5841                 0.5456                 0.3046
 IR Inten    --     10.0261                31.0419                 0.3363

                     19                     20                     21
                      A                      A                      A
 Frequencies --    502.1867               562.2324               598.8253
 Red. masses --      4.3381                 5.1244                 4.2525
 Frc consts  --      0.6446                 0.9544                 0.8984
 IR Inten    --     13.1497                46.0513                77.8882

                     22                     23                     24
                      A                      A                      A
 Frequencies --    641.0216               668.1684               718.2301
 Red. masses --      4.7375                 1.8987                 3.8142
 Frc consts  --      1.1469                 0.4994                 1.1593
 IR Inten    --      1.0984                40.0182                34.8816

                     25                     26                     27
                      A                      A                      A
 Frequencies --    729.2429               776.6199               828.1732
 Red. masses --      1.4549                 4.4839                 3.2648
 Frc consts  --      0.4559                 1.5934                 1.3193
 IR Inten    --    219.9559                86.8569                85.7294

                     28                     29                     30
                      A                      A                      A
 Frequencies --    842.6835               875.9373               958.3189
 Red. masses --      4.0140                 1.2480                 1.4778
 Frc consts  --      1.6794                 0.5642                 0.7996
 IR Inten    --    145.1261                 0.5216                10.6159

                     31                     32                     33
                      A                      A                      A
 Frequencies --   1007.1527              1010.6870              1026.9818
 Red. masses --      1.1094                 1.3713                 5.9267
 Frc consts  --      0.6630                 0.8253                 3.6829
 IR Inten    --     17.4201                 1.3801                 1.2655

                     34                     35                     36
                      A                      A                      A
 Frequencies --   1027.9072              1033.0240              1048.2504
 Red. masses --      1.3089                 1.7151                 1.1286
 Frc consts  --      0.8148                 1.0784                 0.7307
 IR Inten    --      0.5771                 1.1640                74.0938

                     37                     38                     39
                      A                      A                      A
 Frequencies --   1060.4774              1088.5120              1112.5895
 Red. masses --      2.3901                 5.0689                 1.5632
 Frc consts  --      1.5837                 3.5386                 1.1401
 IR Inten    --      6.9992                46.0639                13.1964

                     40                     41                     42
                      A                      A                      A
 Frequencies --   1145.6651              1182.8032              1209.6748
 Red. masses --      3.2515                 1.1317                 1.1206
 Frc consts  --      2.5145                 0.9328                 0.9662
 IR Inten    --     67.4470                 0.1492                 0.2136

                     43                     44                     45
                      A                      A                      A
 Frequencies --   1231.8400              1296.0131              1310.1545
 Red. masses --      1.3909                 4.3116                 4.6830
 Frc consts  --      1.2435                 4.2669                 4.7361
 IR Inten    --     26.3879              1223.1556                25.0085

                     46                     47                     48
                      A                      A                      A
 Frequencies --   1345.8147              1358.8415              1405.1882
 Red. masses --      1.3319                 1.4266                 3.2448
 Frc consts  --      1.4213                 1.5520                 3.7749
 IR Inten    --      8.5885                 0.2150               189.7861

                     49                     50                     51
                      A                      A                      A
 Frequencies --   1452.7160              1468.4670              1487.4419
 Red. masses --      1.2203                 1.6547                 2.1712
 Frc consts  --      1.5173                 2.1023                 2.8303
 IR Inten    --     25.3991               143.7007                 8.5141

                     52                     53                     54
                      A                      A                      A
 Frequencies --   1496.1404              1500.8856              1547.8563
 Red. masses --      1.0367                 1.0520                 2.4791
 Frc consts  --      1.3672                 1.3963                 3.4995
 IR Inten    --     23.2818                45.0551                46.8494

                     55                     56                     57
                      A                      A                      A
 Frequencies --   1641.7950              1647.1952              1668.3865
 Red. masses --      1.0890                 5.7061                 6.7391
 Frc consts  --      1.7294                 9.1218                11.0521
 IR Inten    --     64.1557                 2.1688               281.1475

                     58                     59                     60
                      A                      A                      A
 Frequencies --   1682.8309              2966.0372              3075.8636
 Red. masses --      7.3747                 1.0828                 1.0328
 Frc consts  --     12.3049                 5.6123                 5.7571
 IR Inten    --    641.8061               120.8221                20.0357

                     61                     62                     63
                      A                      A                      A
 Frequencies --   3157.1841              3173.3580              3190.7193
 Red. masses --      1.1051                 1.1055                 1.0861
 Frc consts  --      6.4902                 6.5594                 6.5150
 IR Inten    --      9.9296                 8.5002                 3.6150

                     64                     65                     66
                      A                      A                      A
 Frequencies --   3197.2986              3206.6789              3216.9982
 Red. masses --      1.0884                 1.0929                 1.0957
 Frc consts  --      6.5554                 6.6212                 6.6809
 IR Inten    --      1.3346                27.1921                37.2321

                     67                     68                     69
                      A                      A                      A
 Frequencies --   3225.8213              3512.9562              3599.1948
 Red. masses --      1.0956                 1.0506                 1.0972
 Frc consts  --      6.7173                 7.6390                 8.3740
 IR Inten    --     13.9179                75.3299                58.2854

 - Thermochemistry -
 -------------------
 Temperature   298.150 Kelvin.  Pressure   1.00000 Atm.
 Atom     1 has atomic number  6 and mass  12.00000

 Molecular mass:   274.97125 amu.
 Principal axes and moments of inertia in atomic units:
                           1         2         3
     Eigenvalues --  2874.103554796.565145648.96015
           X            0.99848  -0.05003  -0.02329
           Y            0.05090   0.99796   0.03848
           Z            0.02132  -0.03960   0.99899
 This molecule is an asymmetric top.
 Rotational symmetry number  1.
 Warning -- assumption of classical behavior for rotation
           may cause significant error
 Rotational temperatures (Kelvin)      0.03014     0.01806     0.01533
 Rotational constants (GHZ):           0.62793     0.37626     0.31948
    1 imaginary frequencies ignored.
 Zero-point vibrational energy     504091.7 (Joules/Mol)
                                  120.48080 (Kcal/Mol)
 Warning -- explicit consideration of  20 degrees of freedom as
           vibrations may cause significant error
 Vibrational temperatures:     38.55    79.01    95.65   103.64   169.60
          (Kelvin)            226.64   235.73   274.97   313.89   325.02
                              345.92   349.26   387.04   464.93   504.58
                              595.57   609.88   722.53   808.93   861.58
                              922.29   961.35  1033.37  1049.22  1117.38
                             1191.56  1212.43  1260.28  1378.81  1449.07
                             1454.15  1477.60  1478.93  1486.29  1508.20
                             1525.79  1566.13  1600.77  1648.36  1701.79
                             1740.45  1772.34  1864.67  1885.02  1936.33
                             1955.07  2021.75  2090.13  2112.80  2140.10
                             2152.61  2159.44  2227.02  2362.18  2369.95
                             2400.44  2421.22  4267.47  4425.48  4542.48
                             4565.75  4590.73  4600.20  4613.70  4628.54
                             4641.24  5054.36  5178.44

 Zero-point correction=                           0.191998 (Hartree/Particle)
 Thermal correction to Energy=                    0.206302
 Thermal correction to Enthalpy=                  0.207246
 Thermal correction to Gibbs Free Energy=         0.148757
 Sum of electronic and zero-point Energies=          -3551.856728
 Sum of electronic and thermal Energies=             -3551.842424
 Sum of electronic and thermal Enthalpies=           -3551.841480
 Sum of electronic and thermal Free Energies=        -3551.899969

                     E (Thermal)             CV                S
                      KCal/Mol        Cal/Mol-Kelvin    Cal/Mol-Kelvin
 Total                  129.457             51.123            123.101
 Electronic               0.000              0.000              0.000
 Translational            0.889              2.981             42.733
 Rotational               0.889              2.981             32.721
 Vibrational            127.679             45.161             47.647
 Vibration     1          0.593              1.984              6.054
 Vibration     2          0.596              1.976              4.632
 Vibration     3          0.598              1.970              4.255
 Vibration     4          0.598              1.967              4.097
 Vibration     5          0.608              1.934              3.135
 Vibration     6          0.621              1.894              2.579
 Vibration     7          0.623              1.887              2.505
 Vibration     8          0.634              1.852              2.217
 Vibration     9          0.646              1.813              1.974
 Vibration    10          0.650              1.802              1.911
 Vibration    11          0.658              1.779              1.800
 Vibration    12          0.659              1.775              1.783
 Vibration    13          0.673              1.730              1.603
 Vibration    14          0.708              1.629              1.294
 Vibration    15          0.728              1.574              1.163
 Vibration    16          0.778              1.440              0.913
 Vibration    17          0.786              1.418              0.879
 Vibration    18          0.858              1.245              0.653
 Vibration    19          0.918              1.113              0.519
 Vibration    20          0.957              1.034              0.452

 Optimization completed.
    -- Stationary point found.
 Normal termination of Gaussian 16 at Mon Feb 22 07:19:23 2021.
