 Gaussian 16, Revision A.03,
 Gaussian 16:  ES64L-G16RevA.03 25-Dec-2016

 ----------------------------------------------------------------------
 # wB97XD def2tzvp, opt=(ts, noeigen, calcfc, maxcycles=70, maxstep=1),
  freq=noraman, scrf=(iefpcm, solvent=water)
 ----------------------------------------------------------------------

 ------------------------
 0_iteration/TS-705-0.out
 ------------------------
 Symbolic Z-matrix:
 Charge =  0 Multiplicity = 1

 SCF Done:  E(RwB97XD) =  -5474.32972295     A.U. after   15 cycles
 SCF Done:  E(RwB97XD) =  -5474.32958597     A.U. after   10 cycles
 SCF Done:  E(RwB97XD) =  -5474.32945368     A.U. after   10 cycles
 SCF Done:  E(RwB97XD) =  -5474.32932580     A.U. after   10 cycles
 SCF Done:  E(RwB97XD) =  -5474.32920243     A.U. after   10 cycles
 SCF Done:  E(RwB97XD) =  -5474.32908347     A.U. after   10 cycles
 SCF Done:  E(RwB97XD) =  -5474.32896891     A.U. after   10 cycles
 SCF Done:  E(RwB97XD) =  -5474.32885887     A.U. after   10 cycles
 SCF Done:  E(RwB97XD) =  -5474.32875336     A.U. after   10 cycles
 SCF Done:  E(RwB97XD) =  -5474.32865252     A.U. after   10 cycles
 SCF Done:  E(RwB97XD) =  -5474.33081179     A.U. after   10 cycles
 SCF Done:  E(RwB97XD) =  -5474.33086032     A.U. after   10 cycles
 SCF Done:  E(RwB97XD) =  -5474.33089016     A.U. after   10 cycles
 SCF Done:  E(RwB97XD) =  -5474.33090481     A.U. after   10 cycles
 SCF Done:  E(RwB97XD) =  -5474.33090920     A.U. after   10 cycles
 SCF Done:  E(RwB97XD) =  -5474.33090972     A.U. after    9 cycles
 SCF Done:  E(RwB97XD) =  -5474.33091001     A.U. after    7 cycles
 SCF Done:  E(RwB97XD) =  -5474.33091015     A.U. after    7 cycles
 SCF Done:  E(RwB97XD) =  -5474.33091020     A.U. after    6 cycles
 Optimization completed.
    -- Stationary point found.
 Normal termination of Gaussian 16 at Sun Feb 21 18:51:27 2021.

 ---------------------------------------------------------------------
 #N Geom=AllCheck Guess=TCheck SCRF=Check GenChk RwB97XD/def2TZVP Freq
 ---------------------------------------------------------------------

 Structure from the checkpoint file:  "/beegfs/scratch/user/q/tla25/Gau-23607.chk"
 ------------------------
 0_iteration/TS-705-0.out
 ------------------------
 Charge =  0 Multiplicity = 1

                         Standard orientation:
 ---------------------------------------------------------------------
 Center     Atomic      Atomic             Coordinates (Angstroms)
 Number     Number       Type             X           Y           Z
 ---------------------------------------------------------------------
      1          6           0        0.860877    0.558706   -0.311962
      2          6           0        1.702161    1.637274   -0.709106
      3          8           0        2.919969    1.697079   -0.590020
      4          6           0       -0.520333    0.595554   -0.434210
      5          6           0       -2.642166    1.224012    1.693118
      6          1           0       -3.003321    2.100145    1.158508
      7          1           0       -3.181231    0.345508    1.340692
      8          1           0       -2.840790    1.355249    2.758225
      9          7           0       -1.217275    1.047388    1.427406
     10          1           0       -0.828468    0.293697    1.982800
     11          1           0       -0.688542    1.885486    1.640841
     12         35           0       -1.452694   -1.087133   -0.638678
     13          6           0       -1.221314    1.690130   -1.192425
     14          1           0       -0.902005    2.674190   -0.855142
     15          1           0       -1.006283    1.591211   -2.256666
     16          1           0       -2.296934    1.612846   -1.057532
     17         35           0        1.728820   -0.897832    0.551100
     18          1           0        1.168972    2.473021   -1.190675
 ---------------------------------------------------------------------

 SCF Done:  E(RwB97XD) =  -5474.33091020     A.U. after    1 cycles

 The electronic state is 1-A.
 Alpha  occ. eigenvalues -- -483.13872-483.12739 -62.68722 -62.67575 -56.47840
 Alpha  occ. eigenvalues --  -56.47488 -56.47464 -56.46684 -56.46342 -56.46330
 Alpha  occ. eigenvalues --  -19.22365 -14.47971 -10.41334 -10.36248 -10.32124
 Alpha  occ. eigenvalues --  -10.31798 -10.30114  -8.82834  -8.81693  -6.64992
 Alpha  occ. eigenvalues --   -6.63874  -6.63827  -6.63797  -6.62726  -6.62691
 Alpha  occ. eigenvalues --   -2.75380  -2.75070  -2.75011  -2.74222  -2.74105
 Alpha  occ. eigenvalues --   -2.74104  -2.73901  -2.73873  -2.72983  -2.72982
 Alpha  occ. eigenvalues --   -1.12840  -1.03588  -0.96601  -0.89772  -0.85899
 Alpha  occ. eigenvalues --   -0.80397  -0.78830  -0.71580  -0.62881  -0.61725
 Alpha  occ. eigenvalues --   -0.59121  -0.56427  -0.55603  -0.54611  -0.51233
 Alpha  occ. eigenvalues --   -0.50323  -0.48455  -0.48059  -0.47204  -0.45797
 Alpha  occ. eigenvalues --   -0.43624  -0.39925  -0.38736  -0.37681  -0.35973
 Alpha  occ. eigenvalues --   -0.33682  -0.29076
 Alpha virt. eigenvalues --    0.01144   0.04206   0.09642   0.10101   0.13199
 Alpha virt. eigenvalues --    0.13563   0.14622   0.16392   0.18308   0.18621
 Alpha virt. eigenvalues --    0.18661   0.19506   0.19681   0.21770   0.22240

 Mulliken charges:
               1
     1  C   -0.065168
     2  C    0.076481
     3  O   -0.465292
     4  C    0.091272
     5  C   -0.285166
     6  H    0.159457
     7  H    0.149704
     8  H    0.156006
     9  N   -0.380486
    10  H    0.283230
    11  H    0.282286
    12  Br  -0.064712
    13  C   -0.424612
    14  H    0.162360
    15  H    0.180249
    16  H    0.170643
    17  Br  -0.123737
    18  H    0.097483
 Sum of Mulliken charges =  -0.00000

 Dipole moment (field-independent basis, Debye):
    X=             -9.9997    Y=              3.1099    Z=              3.2601  Tot=             10.9678
 Quadrupole moment (field-independent basis, Debye-Ang):
   XX=            -95.0210   YY=            -75.1143   ZZ=            -71.7289
   XY=            -13.5673   XZ=             -1.9605   YZ=              2.4733

  Exact polarizability: 210.601   9.675 158.687 -13.862  -6.489 138.325
 Approx polarizability: 160.386   7.408 133.452  -6.651  -4.825 117.207

 ******    1 imaginary frequencies (negative Signs) ******

                      1                      2                      3
                      A                      A                      A
 Frequencies --   -342.1362                56.8084                72.0920
 Red. masses --      6.1360                 5.3976                 2.3229
 Frc consts  --      0.4232                 0.0103                 0.0071
 IR Inten    --    830.8136                 2.0665                 3.6449

                      4                      5                      6
                      A                      A                      A
 Frequencies --     95.4072               129.6327               152.4014
 Red. masses --      4.6604                25.8254                 1.8504
 Frc consts  --      0.0250                 0.2557                 0.0253
 IR Inten    --      6.1903                 1.2218                 6.5022

                      7                      8                      9
                      A                      A                      A
 Frequencies --    193.3564               202.6575               240.1752
 Red. masses --      2.8062                 2.8220                 2.3605
 Frc consts  --      0.0618                 0.0683                 0.0802
 IR Inten    --     12.2248                 5.7049                 6.1081

                     10                     11                     12
                      A                      A                      A
 Frequencies --    265.4215               278.7619               303.5509
 Red. masses --      1.4594                 2.8260                 3.4727
 Frc consts  --      0.0606                 0.1294                 0.1885
 IR Inten    --      0.7344                 6.6687                 3.3707

                     13                     14                     15
                      A                      A                      A
 Frequencies --    338.5700               347.7744               443.0908
 Red. masses --      3.0838                 3.0474                 5.0222
 Frc consts  --      0.2083                 0.2172                 0.5809
 IR Inten    --      3.0570                 7.4584                10.3956

                     16                     17                     18
                      A                      A                      A
 Frequencies --    490.1922               614.7007               632.0966
 Red. masses --      4.8389                 2.2937                 2.0932
 Frc consts  --      0.6851                 0.5106                 0.4928
 IR Inten    --    172.9571                62.2609                25.3043

                     19                     20                     21
                      A                      A                      A
 Frequencies --    728.9514              1003.6037              1011.8253
 Red. masses --      3.4772                 1.2544                 1.6678
 Frc consts  --      1.0886                 0.7444                 1.0060
 IR Inten    --    166.9186                19.4114                 0.6095

                     22                     23                     24
                      A                      A                      A
 Frequencies --   1016.0186              1036.9171              1061.4581
 Red. masses --      1.3247                 1.6244                 1.7308
 Frc consts  --      0.8057                 1.0290                 1.1489
 IR Inten    --    238.7774                 8.9864                93.3349

                     25                     26                     27
                      A                      A                      A
 Frequencies --   1071.8771              1102.6518              1213.7182
 Red. masses --      3.2550                 1.9290                 1.4317
 Frc consts  --      2.2034                 1.3818                 1.2426
 IR Inten    --     69.2413                49.0474                45.5876

                     28                     29                     30
                      A                      A                      A
 Frequencies --   1231.6702              1345.7458              1396.8697
 Red. masses --      4.3494                 1.3153                 2.0386
 Frc consts  --      3.8875                 1.4035                 2.3436
 IR Inten    --    462.1749                 1.4687               556.4462

                     31                     32                     33
                      A                      A                      A
 Frequencies --   1419.0941              1454.9784              1472.5668
 Red. masses --      1.2290                 1.2154                 1.3678
 Frc consts  --      1.4583                 1.5159                 1.7475
 IR Inten    --     23.5774                66.5200               198.1588

                     34                     35                     36
                      A                      A                      A
 Frequencies --   1483.4261              1492.4120              1501.6176
 Red. masses --      1.0877                 1.0945                 1.2453
 Frc consts  --      1.4102                 1.4363                 1.6544
 IR Inten    --     67.7470                67.9808               136.6241

                     37                     38                     39
                      A                      A                      A
 Frequencies --   1510.6839              1645.4828              1685.9086
 Red. masses --      1.0988                 1.0892                 9.0057
 Frc consts  --      1.4775                 1.7376                15.0813
 IR Inten    --     93.7910                75.6411               989.8039

                     40                     41                     42
                      A                      A                      A
 Frequencies --   2990.8085              3063.2804              3080.6483
 Red. masses --      1.0820                 1.0357                 1.0369
 Frc consts  --      5.7025                 5.7263                 5.7981
 IR Inten    --     90.2804                52.0437                 6.6944

                     43                     44                     45
                      A                      A                      A
 Frequencies --   3138.6422              3159.4939              3166.5685
 Red. masses --      1.1017                 1.1022                 1.1054
 Frc consts  --      6.3943                 6.4827                 6.5308
 IR Inten    --     13.9157                 5.8139                16.1545

                     46                     47                     48
                      A                      A                      A
 Frequencies --   3176.5138              3521.1935              3603.0254
 Red. masses --      1.1026                 1.0509                 1.0961
 Frc consts  --      6.5552                 7.6772                 8.3840
 IR Inten    --      4.8796                21.1950                39.2480

 - Thermochemistry -
 -------------------
 Temperature   298.150 Kelvin.  Pressure   1.00000 Atm.
 Atom     1 has atomic number  6 and mass  12.00000

 Molecular mass:   256.90509 amu.
 Principal axes and moments of inertia in atomic units:
                           1         2         3
     Eigenvalues --  1820.511193293.438393861.68188
           X            0.99735  -0.04795  -0.05467
           Y            0.04789   0.99885  -0.00248
           Z            0.05473  -0.00015   0.99850
 This molecule is an asymmetric top.
 Rotational symmetry number  1.
 Warning -- assumption of classical behavior for rotation
           may cause significant error
 Rotational temperatures (Kelvin)      0.04758     0.02630     0.02243
 Rotational constants (GHZ):           0.99134     0.54798     0.46735
    1 imaginary frequencies ignored.
 Zero-point vibrational energy     362733.7 (Joules/Mol)
                                   86.69544 (Kcal/Mol)
 Warning -- explicit consideration of  16 degrees of freedom as
           vibrations may cause significant error
 Vibrational temperatures:     81.73   103.72   137.27   186.51   219.27
          (Kelvin)            278.20   291.58   345.56   381.88   401.08
                              436.74   487.13   500.37   637.51   705.28
                              884.42   909.45  1048.80  1443.96  1455.79
                             1461.82  1491.89  1527.20  1542.19  1586.47
                             1746.27  1772.10  1936.23  2009.78  2041.76
                             2093.39  2118.70  2134.32  2147.25  2160.49
                             2173.54  2367.48  2425.65  4303.11  4407.38
                             4432.37  4515.81  4545.81  4555.99  4570.29
                             5066.21  5183.95

 Zero-point correction=                           0.138158 (Hartree/Particle)
 Thermal correction to Energy=                    0.149565
 Thermal correction to Enthalpy=                  0.150509
 Thermal correction to Gibbs Free Energy=         0.099061
 Sum of electronic and zero-point Energies=          -5474.192752
 Sum of electronic and thermal Energies=             -5474.181345
 Sum of electronic and thermal Enthalpies=           -5474.180401
 Sum of electronic and thermal Free Energies=        -5474.231849

                     E (Thermal)             CV                S
                      KCal/Mol        Cal/Mol-Kelvin    Cal/Mol-Kelvin
 Total                   93.854             38.431            108.282
 Electronic               0.000              0.000              0.000
 Translational            0.889              2.981             42.531
 Rotational               0.889              2.981             31.516
 Vibrational             92.076             32.470             34.235
 Vibration     1          0.596              1.975              4.565
 Vibration     2          0.598              1.967              4.095
 Vibration     3          0.603              1.952              3.546
 Vibration     4          0.612              1.924              2.951
 Vibration     5          0.619              1.900              2.642
 Vibration     6          0.635              1.849              2.195
 Vibration     7          0.639              1.836              2.109
 Vibration     8          0.657              1.779              1.802
 Vibration     9          0.671              1.736              1.626
 Vibration    10          0.679              1.713              1.541
 Vibration    11          0.695              1.667              1.397
 Vibration    12          0.719              1.598              1.219
 Vibration    13          0.725              1.580              1.176
 Vibration    14          0.803              1.376              0.817
 Vibration    15          0.846              1.272              0.683
 Vibration    16          0.974              1.001              0.425

 Optimization completed.
    -- Stationary point found.
 Normal termination of Gaussian 16 at Sun Feb 21 19:01:48 2021.
