 Gaussian 16, Revision A.03,
 Gaussian 16:  ES64L-G16RevA.03 25-Dec-2016

 ----------------------------------------------------------------------
 # wB97XD def2tzvp, opt=(ts, noeigen, calcfc, maxcycles=70, maxstep=8),
  freq=noraman, scrf=(iefpcm, solvent=water)
 ----------------------------------------------------------------------

 ------------------------
 1_iteration/TS-710-1.out
 ------------------------
 Symbolic Z-matrix:
 Charge =  0 Multiplicity = 1

 SCF Done:  E(RwB97XD) =  -5608.31937580     A.U. after   15 cycles
 SCF Done:  E(RwB97XD) =  -5608.31939771     A.U. after   11 cycles
 SCF Done:  E(RwB97XD) =  -5608.31939831     A.U. after    9 cycles
 SCF Done:  E(RwB97XD) =  -5608.31939832     A.U. after    8 cycles
 SCF Done:  E(RwB97XD) =  -5608.31939803     A.U. after    8 cycles
 SCF Done:  E(RwB97XD) =  -5608.31939829     A.U. after    7 cycles
 Optimization completed.
    -- Stationary point found.
 Normal termination of Gaussian 16 at Mon Feb 22 06:24:34 2021.

 ---------------------------------------------------------------------
 #N Geom=AllCheck Guess=TCheck SCRF=Check GenChk RwB97XD/def2TZVP Freq
 ---------------------------------------------------------------------

 Structure from the checkpoint file:  "/beegfs/scratch/user/q/tla25/Gau-21416.chk"
 ------------------------
 1_iteration/TS-710-1.out
 ------------------------
 Charge =  0 Multiplicity = 1

                         Standard orientation:
 ---------------------------------------------------------------------
 Center     Atomic      Atomic             Coordinates (Angstroms)
 Number     Number       Type             X           Y           Z
 ---------------------------------------------------------------------
      1          6           0       -0.520729    0.311025    0.000431
      2          6           0       -1.938266    0.159957    0.367660
      3          8           0       -2.499685    0.919779    1.159739
      4          6           0        0.457117   -0.645145    0.202015
      5          6           0        2.427314   -1.078006    2.320454
      6          1           0        2.914277   -0.586854    3.162975
      7          1           0        2.006749   -2.022325    2.656132
      8          1           0        3.162681   -1.262432    1.540062
      9          7           0        1.360743   -0.231489    1.779984
     10          1           0        0.589244   -0.148125    2.434555
     11          1           0        1.698162    0.708815    1.598847
     12         35           0        2.051566   -0.569746   -1.023410
     13          6           0        0.099939   -2.088798    0.434021
     14          1           0       -0.680625   -2.174740    1.189085
     15          1           0       -0.250722   -2.542054   -0.489928
     16          1           0        0.972243   -2.650016    0.758878
     17         35           0        0.028796    2.140721   -0.162910
     18          7           0       -2.627336   -0.873498   -0.200196
     19          6           0       -2.338923   -1.419896   -1.510289
     20          6           0       -3.958554   -1.160151    0.292672
     21          1           0       -1.399247   -1.022890   -1.883753
     22          1           0       -2.282804   -2.510328   -1.474266
     23          1           0       -3.136791   -1.145783   -2.207757
     24          1           0       -4.007804   -0.972500    1.361803
     25          1           0       -4.715143   -0.543114   -0.203592
     26          1           0       -4.186662   -2.209013    0.099967
 ---------------------------------------------------------------------

 SCF Done:  E(RwB97XD) =  -5608.31939829     A.U. after    1 cycles

 The electronic state is 1-A.
 Alpha  occ. eigenvalues -- -483.12098-483.12093 -62.66949 -62.66927 -56.46043
 Alpha  occ. eigenvalues --  -56.46030 -56.45722 -56.45709 -56.45699 -56.45689
 Alpha  occ. eigenvalues --  -19.20598 -14.50077 -14.45941 -10.40545 -10.38518
 Alpha  occ. eigenvalues --  -10.32357 -10.30892 -10.30445 -10.30177 -10.29390
 Alpha  occ. eigenvalues --   -8.81052  -8.81038  -6.63142  -6.63130  -6.62119
 Alpha  occ. eigenvalues --   -6.62085  -6.62074  -6.62055  -2.73540  -2.73519
 Alpha  occ. eigenvalues --   -2.73246  -2.73234  -2.73211  -2.73208  -2.72392
 Alpha  occ. eigenvalues --   -2.72392  -2.72353  -2.72353  -1.13543  -1.05490
 Alpha  occ. eigenvalues --   -1.03258  -0.94660  -0.88541  -0.84659  -0.81842
 Alpha  occ. eigenvalues --   -0.80680  -0.80082  -0.76136  -0.68005  -0.64234
 Alpha  occ. eigenvalues --   -0.61919  -0.60210  -0.56901  -0.56865  -0.55884
 Alpha  occ. eigenvalues --   -0.55131  -0.53688  -0.50823  -0.50246  -0.48922
 Alpha  occ. eigenvalues --   -0.48521  -0.48332  -0.47429  -0.46093  -0.45462
 Alpha  occ. eigenvalues --   -0.44123  -0.43576  -0.39620  -0.38160  -0.37287
 Alpha  occ. eigenvalues --   -0.35618  -0.34272  -0.32027  -0.26656
 Alpha virt. eigenvalues --    0.02401   0.07004   0.09571   0.10663   0.12144
 Alpha virt. eigenvalues --    0.12909   0.13917   0.15086   0.15979   0.16717
 Alpha virt. eigenvalues --    0.17435   0.17919   0.18866   0.18976   0.19700

 Mulliken charges:
               1
     1  C   -0.171768
     2  C    0.260481
     3  O   -0.505799
     4  C    0.048992
     5  C   -0.301695
     6  H    0.164831
     7  H    0.166700
     8  H    0.157539
     9  N   -0.278226
    10  H    0.290563
    11  H    0.285501
    12  Br  -0.177521
    13  C   -0.395236
    14  H    0.167144
    15  H    0.157335
    16  H    0.165122
    17  Br  -0.172252
    18  N   -0.121733
    19  C   -0.335318
    20  C   -0.283472
    21  H    0.171195
    22  H    0.154563
    23  H    0.141299
    24  H    0.140891
    25  H    0.133585
    26  H    0.137280
 Sum of Mulliken charges =  -0.00000

 Dipole moment (field-independent basis, Debye):
    X=              3.3666    Y=             -7.1014    Z=              3.6876  Tot=              8.6812
 Quadrupole moment (field-independent basis, Debye-Ang):
   XX=            -96.4434   YY=            -99.1330   ZZ=            -89.8167
   XY=             10.4477   XZ=             18.3203   YZ=             -4.7444

  Exact polarizability: 237.581  -5.348 201.992   1.060   3.726 190.181
 Approx polarizability: 179.962  -2.921 167.478  -3.275   4.172 160.433

 ******    1 imaginary frequencies (negative Signs) ******

                      1                      2                      3
                      A                      A                      A
 Frequencies --   -363.3187                37.7584                58.5170
 Red. masses --      6.6202                 4.5017                 7.8311
 Frc consts  --      0.5149                 0.0038                 0.0158
 IR Inten    --    595.4081                 5.5095                 5.2505

                      4                      5                      6
                      A                      A                      A
 Frequencies --     79.6448                91.9179               108.9217
 Red. masses --      2.2339                 3.0388                 5.5451
 Frc consts  --      0.0083                 0.0151                 0.0388
 IR Inten    --      1.7600                 0.5715                11.7055

                      7                      8                      9
                      A                      A                      A
 Frequencies --    130.1776               142.9756               163.7848
 Red. masses --     11.6487                 1.3236                 2.1727
 Frc consts  --      0.1163                 0.0159                 0.0343
 IR Inten    --      0.6245                 3.0000                 6.4872

                     10                     11                     12
                      A                      A                      A
 Frequencies --    173.6832               208.2775               229.4314
 Red. masses --      2.1612                 1.5926                 2.1600
 Frc consts  --      0.0384                 0.0407                 0.0670
 IR Inten    --      3.9291                 2.5108                 5.0889

                     13                     14                     15
                      A                      A                      A
 Frequencies --    238.2239               257.8702               281.4205
 Red. masses --      5.0469                 3.4096                 3.1749
 Frc consts  --      0.1687                 0.1336                 0.1481
 IR Inten    --     12.0887                26.9418                30.3950

                     16                     17                     18
                      A                      A                      A
 Frequencies --    286.3836               310.8606               342.5480
 Red. masses --      1.4112                 2.0659                 2.3568
 Frc consts  --      0.0682                 0.1176                 0.1629
 IR Inten    --      3.9793                11.0502                 6.0027

                     19                     20                     21
                      A                      A                      A
 Frequencies --    380.3992               414.1639               439.5599
 Red. masses --      2.8918                 2.1782                 4.0143
 Frc consts  --      0.2465                 0.2201                 0.4570
 IR Inten    --     21.2168                 1.0058                49.8957

                     22                     23                     24
                      A                      A                      A
 Frequencies --    462.1586               533.9450               587.4517
 Red. masses --      2.4079                 4.7626                 5.3116
 Frc consts  --      0.3030                 0.8000                 1.0800
 IR Inten    --     37.2661               110.9700               168.6932

                     25                     26                     27
                      A                      A                      A
 Frequencies --    695.4095               727.1543               788.8320
 Red. masses --      3.9519                 1.5658                 5.7329
 Frc consts  --      1.1260                 0.4878                 2.1018
 IR Inten    --     68.6323                92.8216                31.0488

                     28                     29                     30
                      A                      A                      A
 Frequencies --    850.5770               988.7596              1032.3889
 Red. masses --      6.0341                 2.8620                 1.1937
 Frc consts  --      2.5721                 1.6485                 0.7496
 IR Inten    --     47.4158               139.9988                22.0209

                     31                     32                     33
                      A                      A                      A
 Frequencies --   1043.0689              1059.2429              1077.3841
 Red. masses --      2.4475                 1.5931                 1.3570
 Frc consts  --      1.5689                 1.0531                 0.9281
 IR Inten    --     84.7568                10.0012                85.7641

                     34                     35                     36
                      A                      A                      A
 Frequencies --   1080.2502              1099.3515              1118.8505
 Red. masses --      1.3955                 1.7192                 2.0546
 Frc consts  --      0.9595                 1.2242                 1.5154
 IR Inten    --     34.2793               186.8694               133.5182

                     37                     38                     39
                      A                      A                      A
 Frequencies --   1131.5474              1174.7213              1217.2216
 Red. masses --      1.2357                 1.3882                 3.6905
 Frc consts  --      0.9322                 1.1286                 3.2216
 IR Inten    --      2.3444                23.1275               275.1322

                     40                     41                     42
                      A                      A                      A
 Frequencies --   1262.2141              1308.4072              1347.7810
 Red. masses --      1.3472                 5.0905                 1.2818
 Frc consts  --      1.2646                 5.1345                 1.3718
 IR Inten    --     33.8424                69.2032                 4.1615

                     43                     44                     45
                      A                      A                      A
 Frequencies --   1410.3390              1423.6126              1438.3319
 Red. masses --      2.3287                 1.3525                 1.2866
 Frc consts  --      2.7291                 1.6150                 1.5683
 IR Inten    --    662.2421                13.5602               127.8930

                     46                     47                     48
                      A                      A                      A
 Frequencies --   1449.3057              1459.4729              1466.1116
 Red. masses --      1.7901                 1.4110                 1.2009
 Frc consts  --      2.2153                 1.7708                 1.5209
 IR Inten    --    229.8116               151.4473                88.3087

                     49                     50                     51
                      A                      A                      A
 Frequencies --   1477.7119              1481.5676              1495.3111
 Red. masses --      1.1381                 1.0772                 1.0483
 Frc consts  --      1.4642                 1.3931                 1.3810
 IR Inten    --     34.7032                16.3799                13.2512

                     52                     53                     54
                      A                      A                      A
 Frequencies --   1497.7150              1501.1035              1504.6595
 Red. masses --      1.0707                 1.0547                 1.0478
 Frc consts  --      1.4150                 1.4003                 1.3976
 IR Inten    --     23.1747                 8.2474                15.0881

                     55                     56                     57
                      A                      A                      A
 Frequencies --   1531.7168              1538.8958              1642.7705
 Red. masses --      1.3588                 1.0827                 1.1004
 Frc consts  --      1.8783                 1.5107                 1.7497
 IR Inten    --    112.5350                65.3617               127.1201

                     58                     59                     60
                      A                      A                      A
 Frequencies --   1648.9190              3030.3412              3033.3954
 Red. masses --      8.0747                 1.0414                 1.0455
 Frc consts  --     12.9353                 5.6344                 5.6681
 IR Inten    --    646.8708                47.0501               149.6017

                     61                     62                     63
                      A                      A                      A
 Frequencies --   3077.6168              3088.0652              3089.2364
 Red. masses --      1.0348                 1.0778                 1.0586
 Frc consts  --      5.7746                 6.0556                 5.9525
 IR Inten    --     33.4711                65.6235                 7.0556

                     64                     65                     66
                      A                      A                      A
 Frequencies --   3108.8237              3157.9875              3170.4187
 Red. masses --      1.0934                 1.1029                 1.1018
 Frc consts  --      6.2260                 6.4806                 6.5251
 IR Inten    --     33.6243                 8.3381                14.6097

                     67                     68                     69
                      A                      A                      A
 Frequencies --   3172.7007              3173.6736              3182.5134
 Red. masses --      1.1006                 1.0987                 1.1027
 Frc consts  --      6.5272                 6.5198                 6.5803
 IR Inten    --     11.4013                 9.0494                 4.7697

                     70                     71                     72
                      A                      A                      A
 Frequencies --   3185.2012              3506.2918              3582.2361
 Red. masses --      1.1041                 1.0517                 1.0959
 Frc consts  --      6.5999                 7.6180                 8.2853
 IR Inten    --      6.9416                32.6306                57.0916

 - Thermochemistry -
 -------------------
 Temperature   298.150 Kelvin.  Pressure   1.00000 Atm.
 Atom     1 has atomic number  6 and mass  12.00000

 Molecular mass:   299.94729 amu.
 Principal axes and moments of inertia in atomic units:
                           1         2         3
     Eigenvalues --  3023.947094715.690955689.82244
           X            0.99574   0.06642   0.06400
           Y           -0.06485   0.99755  -0.02627
           Z           -0.06559   0.02201   0.99760
 This molecule is an asymmetric top.
 Rotational symmetry number  1.
 Warning -- assumption of classical behavior for rotation
           may cause significant error
 Rotational temperatures (Kelvin)      0.02864     0.01837     0.01522
 Rotational constants (GHZ):           0.59682     0.38271     0.31719
    1 imaginary frequencies ignored.
 Zero-point vibrational energy     559190.1 (Joules/Mol)
                                  133.64964 (Kcal/Mol)
 Warning -- explicit consideration of  23 degrees of freedom as
           vibrations may cause significant error
 Vibrational temperatures:     54.33    84.19   114.59   132.25   156.71
          (Kelvin)            187.30   205.71   235.65   249.89   299.66
                              330.10   342.75   371.02   404.90   412.04
                              447.26   492.85   547.31   595.89   632.43
                              664.94   768.23   845.21  1000.54  1046.21
                             1134.95  1223.79  1422.60  1485.38  1500.74
                             1524.01  1550.12  1554.24  1581.72  1609.78
                             1628.04  1690.16  1751.31  1816.04  1882.51
                             1939.16  2029.16  2048.26  2069.44  2085.23
                             2099.86  2109.41  2126.10  2131.65  2151.42
                             2154.88  2159.75  2164.87  2203.80  2214.13
                             2363.58  2372.43  4359.99  4364.38  4428.00
                             4443.04  4444.72  4472.90  4543.64  4561.53
                             4564.81  4566.21  4578.93  4582.79  5044.77
                             5154.04

 Zero-point correction=                           0.212984 (Hartree/Particle)
 Thermal correction to Energy=                    0.228281
 Thermal correction to Enthalpy=                  0.229225
 Thermal correction to Gibbs Free Energy=         0.169061
 Sum of electronic and zero-point Energies=          -5608.106414
 Sum of electronic and thermal Energies=             -5608.091117
 Sum of electronic and thermal Enthalpies=           -5608.090173
 Sum of electronic and thermal Free Energies=        -5608.150338

                     E (Thermal)             CV                S
                      KCal/Mol        Cal/Mol-Kelvin    Cal/Mol-Kelvin
 Total                  143.249             52.806            126.627
 Electronic               0.000              0.000              0.000
 Translational            0.889              2.981             42.992
 Rotational               0.889              2.981             32.762
 Vibrational            141.471             46.844             50.873
 Vibration     1          0.594              1.982              5.373
 Vibration     2          0.596              1.974              4.507
 Vibration     3          0.600              1.963              3.900
 Vibration     4          0.602              1.955              3.619
 Vibration     5          0.606              1.942              3.288
 Vibration     6          0.612              1.923              2.943
 Vibration     7          0.616              1.910              2.764
 Vibration     8          0.623              1.887              2.506
 Vibration     9          0.627              1.875              2.395
 Vibration    10          0.642              1.828              2.059
 Vibration    11          0.652              1.796              1.883
 Vibration    12          0.656              1.782              1.816
 Vibration    13          0.667              1.749              1.676
 Vibration    14          0.681              1.708              1.525
 Vibration    15          0.684              1.699              1.495
 Vibration    16          0.700              1.653              1.358
 Vibration    17          0.722              1.590              1.200
 Vibration    18          0.750              1.512              1.038
 Vibration    19          0.778              1.439              0.912
 Vibration    20          0.800              1.384              0.828
 Vibration    21          0.820              1.334              0.760
 Vibration    22          0.889              1.175              0.578
 Vibration    23          0.945              1.059              0.472

 Optimization completed.
    -- Stationary point found.
 Normal termination of Gaussian 16 at Mon Feb 22 07:02:23 2021.
