 Gaussian 16, Revision A.03,
 Gaussian 16:  ES64L-G16RevA.03 25-Dec-2016

 ----------------------------------------------------------------------
 # wB97XD def2tzvp, opt=(ts, noeigen, calcfc, maxcycles=70, maxstep=8),
  freq=noraman, scrf=(iefpcm, solvent=water)
 ----------------------------------------------------------------------

 ------------------------
 1_iteration/TS-783-1.out
 ------------------------
 Symbolic Z-matrix:
 Charge =  0 Multiplicity = 1

 SCF Done:  E(RwB97XD) =  -3646.74199698     A.U. after   15 cycles
 SCF Done:  E(RwB97XD) =  -3646.74349857     A.U. after   14 cycles
 SCF Done:  E(RwB97XD) =  -3646.74481188     A.U. after   13 cycles
 SCF Done:  E(RwB97XD) =  -3646.74575501     A.U. after   12 cycles
 SCF Done:  E(RwB97XD) =  -3646.74650538     A.U. after   12 cycles
 SCF Done:  E(RwB97XD) =  -3646.74681785     A.U. after   12 cycles
 SCF Done:  E(RwB97XD) =  -3646.74697612     A.U. after   13 cycles
 SCF Done:  E(RwB97XD) =  -3646.74692687     A.U. after   12 cycles
 SCF Done:  E(RwB97XD) =  -3646.74715410     A.U. after   12 cycles
 SCF Done:  E(RwB97XD) =  -3646.74711819     A.U. after   12 cycles
 SCF Done:  E(RwB97XD) =  -3646.74690031     A.U. after   14 cycles
 SCF Done:  E(RwB97XD) =  -3646.74718766     A.U. after   12 cycles
 SCF Done:  E(RwB97XD) =  -3646.74714203     A.U. after   12 cycles
 SCF Done:  E(RwB97XD) =  -3646.74718172     A.U. after   11 cycles
 SCF Done:  E(RwB97XD) =  -3646.74720185     A.U. after   11 cycles
 SCF Done:  E(RwB97XD) =  -3646.74720169     A.U. after   11 cycles
 SCF Done:  E(RwB97XD) =  -3646.74720416     A.U. after   10 cycles
 SCF Done:  E(RwB97XD) =  -3646.74720361     A.U. after    8 cycles
 SCF Done:  E(RwB97XD) =  -3646.74720403     A.U. after    7 cycles
 Optimization completed.
    -- Stationary point found.
 Normal termination of Gaussian 16 at Mon Feb 22 10:22:47 2021.

 ---------------------------------------------------------------------
 #N Geom=AllCheck Guess=TCheck SCRF=Check GenChk RwB97XD/def2TZVP Freq
 ---------------------------------------------------------------------

 Structure from the checkpoint file:  "/beegfs/scratch/user/q/tla25/Gau-115946.chk"
 ------------------------
 1_iteration/TS-783-1.out
 ------------------------
 Charge =  0 Multiplicity = 1

                         Standard orientation:
 ---------------------------------------------------------------------
 Center     Atomic      Atomic             Coordinates (Angstroms)
 Number     Number       Type             X           Y           Z
 ---------------------------------------------------------------------
      1          6           0       -0.647102   -0.595347    0.082697
      2          6           0        0.620263    0.100607   -0.075355
      3          8           0        0.716261    1.325952   -0.212816
      4          6           0       -1.783230    0.104644   -0.279044
      5          6           0       -1.912410    1.335314    2.244141
      6          1           0       -2.888462    0.979470    2.566703
      7          1           0       -1.176935    0.538113    2.375733
      8          1           0       -1.617445    2.188381    2.855051
      9          7           0       -1.953539    1.676902    0.833869
     10          1           0       -1.089291    2.120190    0.528121
     11          1           0       -2.753319    2.241073    0.574334
     12         35           0       -3.497222   -0.725698   -0.024236
     13         17           0       -1.826072    1.021766   -1.824183
     14          6           0       -0.667157   -1.951316    0.748423
     15          1           0       -1.650932   -2.190671    1.142643
     16          1           0       -0.398986   -2.760234    0.059025
     17          1           0        0.028235   -1.988214    1.589966
     18          7           0        1.737436   -0.701677   -0.022530
     19          6           0        3.089718   -0.344275   -0.020136
     20          6           0        4.019599   -1.373105   -0.196720
     21          6           0        5.377045   -1.109694   -0.179018
     22          6           0        5.839331    0.185470    0.013242
     23          6           0        4.918699    1.206454    0.189828
     24          6           0        3.553363    0.957117    0.176228
     25          1           0        1.567920   -1.692388   -0.049294
     26          1           0        3.670234   -2.387938   -0.348811
     27          1           0        6.077106   -1.923988   -0.318170
     28          1           0        6.901217    0.393581    0.025138
     29          1           0        5.262049    2.222124    0.344123
     30          1           0        2.848544    1.760510    0.312262
 ---------------------------------------------------------------------

 SCF Done:  E(RwB97XD) =  -3646.74720403     A.U. after    1 cycles

 The electronic state is 1-A.
 Alpha  occ. eigenvalues -- -483.14243-101.69935 -62.69088 -56.48216 -56.47845
 Alpha  occ. eigenvalues --  -56.47830 -19.21317 -14.48256 -14.46665 -10.43956
 Alpha  occ. eigenvalues --  -10.38999 -10.33900 -10.31591 -10.29099 -10.28952
 Alpha  occ. eigenvalues --  -10.28917 -10.28334 -10.28323 -10.28161 -10.27666
 Alpha  occ. eigenvalues --   -9.58521  -8.83200  -7.33180  -7.32289  -7.32263
 Alpha  occ. eigenvalues --   -6.65391  -6.64206  -6.64164  -2.75774  -2.75435
 Alpha  occ. eigenvalues --   -2.75403  -2.74444  -2.74444  -1.14148  -1.04582
 Alpha  occ. eigenvalues --   -1.04026  -0.98053  -0.95633  -0.90348  -0.87917
 Alpha  occ. eigenvalues --   -0.85193  -0.84084  -0.78919  -0.77789  -0.74278
 Alpha  occ. eigenvalues --   -0.71517  -0.67757  -0.64746  -0.63106  -0.62433
 Alpha  occ. eigenvalues --   -0.58904  -0.57692  -0.57450  -0.55422  -0.54010
 Alpha  occ. eigenvalues --   -0.53540  -0.52723  -0.51910  -0.50988  -0.50190
 Alpha  occ. eigenvalues --   -0.49357  -0.48036  -0.47421  -0.47077  -0.46442
 Alpha  occ. eigenvalues --   -0.46005  -0.44749  -0.42958  -0.41633  -0.39744
 Alpha  occ. eigenvalues --   -0.39370  -0.37586  -0.37212  -0.34446  -0.33713
 Alpha  occ. eigenvalues --   -0.30580  -0.27289
 Alpha virt. eigenvalues --    0.02935   0.04215   0.05331   0.06922   0.09140
 Alpha virt. eigenvalues --    0.10501   0.12362   0.13572   0.14874   0.15786
 Alpha virt. eigenvalues --    0.15932   0.17001   0.17302   0.17971   0.18470

 Mulliken charges:
               1
     1  C   -0.396140
     2  C    0.440674
     3  O   -0.556668
     4  C    0.240664
     5  C   -0.295861
     6  H    0.156108
     7  H    0.153138
     8  H    0.158406
     9  N   -0.324484
    10  H    0.281533
    11  H    0.286810
    12  Br  -0.059270
    13  Cl  -0.097305
    14  C   -0.425994
    15  H    0.141608
    16  H    0.144272
    17  H    0.145991
    18  N   -0.273709
    19  C    0.300555
    20  C   -0.310611
    21  C   -0.097494
    22  C   -0.196775
    23  C   -0.104842
    24  C   -0.297345
    25  H    0.259285
    26  H    0.142173
    27  H    0.143655
    28  H    0.140938
    29  H    0.141789
    30  H    0.158899
 Sum of Mulliken charges =  -0.00000

 Dipole moment (field-independent basis, Debye):
    X=             -2.4082    Y=             -0.6505    Z=              4.4272  Tot=              5.0816
 Quadrupole moment (field-independent basis, Debye-Ang):
   XX=           -107.2444   YY=           -102.4068   ZZ=           -116.0364
   XY=            -11.7427   XZ=             -7.5574   YZ=              6.4162

  Exact polarizability: 358.989 -10.003 255.539  -4.676   4.995 190.401
 Approx polarizability: 254.679  -4.053 221.792  -3.260   2.392 165.202

 ******    1 imaginary frequencies (negative Signs) ******

                      1                      2                      3
                      A                      A                      A
 Frequencies --   -400.9674                27.6460                30.9682
 Red. masses --      5.8547                 3.8832                 6.0285
 Frc consts  --      0.5546                 0.0017                 0.0034
 IR Inten    --    879.0270                 0.7910                 0.9257

                      4                      5                      6
                      A                      A                      A
 Frequencies --     60.3856                93.2647               100.1289
 Red. masses --      4.6320                 3.2087                 4.4266
 Frc consts  --      0.0100                 0.0164                 0.0261
 IR Inten    --      0.7159                11.1248                 8.7592

                      7                      8                      9
                      A                      A                      A
 Frequencies --    101.0254               140.7104               162.8924
 Red. masses --      3.6932                 3.3053                 1.5929
 Frc consts  --      0.0222                 0.0386                 0.0249
 IR Inten    --     11.9778                 0.4984                 5.5529

                     10                     11                     12
                      A                      A                      A
 Frequencies --    171.0623               183.6084               190.4256
 Red. masses --      1.3240                 8.0494                 4.0061
 Frc consts  --      0.0228                 0.1599                 0.0856
 IR Inten    --      8.9591                 1.9218                 4.1883

                     13                     14                     15
                      A                      A                      A
 Frequencies --    226.0911               241.6344               242.8928
 Red. masses --      2.6743                 4.2256                 4.9499
 Frc consts  --      0.0805                 0.1454                 0.1721
 IR Inten    --      8.2439                 5.3232                24.7440

                     16                     17                     18
                      A                      A                      A
 Frequencies --    279.6104               311.8925               327.9952
 Red. masses --      5.6743                 3.4948                 4.2876
 Frc consts  --      0.2614                 0.2003                 0.2718
 IR Inten    --      5.8753                 5.2786                37.3670

                     19                     20                     21
                      A                      A                      A
 Frequencies --    370.4838               396.4058               424.6607
 Red. masses --      6.4060                 6.4081                 2.9818
 Frc consts  --      0.5181                 0.5933                 0.3168
 IR Inten    --     17.7464                22.5955                 0.2527

                     22                     23                     24
                      A                      A                      A
 Frequencies --    459.2678               528.7608               538.6304
 Red. masses --      5.2705                 2.8089                 4.3915
 Frc consts  --      0.6550                 0.4627                 0.7507
 IR Inten    --     83.0274                32.6165                43.4950

                     25                     26                     27
                      A                      A                      A
 Frequencies --    571.7346               599.5769               636.6701
 Red. masses --      1.1761                 4.1425                 6.0683
 Frc consts  --      0.2265                 0.8774                 1.4493
 IR Inten    --     85.3914                87.9434                 7.6179

                     28                     29                     30
                      A                      A                      A
 Frequencies --    660.0082               719.5281               731.3546
 Red. masses --      2.9275                 1.8930                 2.2987
 Frc consts  --      0.7514                 0.5774                 0.7244
 IR Inten    --     14.3029                59.6447               105.4958

                     31                     32                     33
                      A                      A                      A
 Frequencies --    765.8305               784.2724               801.0681
 Red. masses --      5.2570                 1.8145                 7.2120
 Frc consts  --      1.8166                 0.6576                 2.7267
 IR Inten    --    105.4227                70.9847               143.3054

                     34                     35                     36
                      A                      A                      A
 Frequencies --    861.5166               874.1094               932.5145
 Red. masses --      1.2730                 4.7365                 2.1219
 Frc consts  --      0.5567                 2.1323                 1.0872
 IR Inten    --      0.9392                 3.3798                17.0501

                     37                     38                     39
                      A                      A                      A
 Frequencies --    939.9963               993.0924              1002.4123
 Red. masses --      2.5294                 1.0976                 1.3476
 Frc consts  --      1.3168                 0.6378                 0.7978
 IR Inten    --     14.8525                94.3048                 0.1200

                     40                     41                     42
                      A                      A                      A
 Frequencies --   1018.7994              1021.0541              1029.1353
 Red. masses --      1.2879                 5.7824                 1.6287
 Frc consts  --      0.7876                 3.5519                 1.0163
 IR Inten    --      1.7910                16.3880               497.2446

                     43                     44                     45
                      A                      A                      A
 Frequencies --   1060.4501              1063.6197              1068.8105
 Red. masses --      1.4093                 1.7291                 1.2662
 Frc consts  --      0.9338                 1.1525                 0.8522
 IR Inten    --     51.3187                44.1338                46.6520

                     46                     47                     48
                      A                      A                      A
 Frequencies --   1093.7712              1119.6599              1177.6125
 Red. masses --      4.8199                 1.5382                 2.8812
 Frc consts  --      3.3974                 1.1362                 2.3541
 IR Inten    --     41.6679                13.4888                24.2775

                     49                     50                     51
                      A                      A                      A
 Frequencies --   1183.5528              1201.8256              1209.2833
 Red. masses --      1.2456                 1.4259                 1.1394
 Frc consts  --      1.0281                 1.2134                 0.9817
 IR Inten    --     10.6079                31.8755                20.3014

                     52                     53                     54
                      A                      A                      A
 Frequencies --   1273.8755              1298.5430              1344.5108
 Red. masses --      2.4908                 5.5239                 4.0450
 Frc consts  --      2.3815                 5.4880                 4.3083
 IR Inten    --    661.3976               212.4684               798.9694

                     55                     56                     57
                      A                      A                      A
 Frequencies --   1347.3364              1361.5133              1411.5586
 Red. masses --      1.3083                 1.5799                 1.7625
 Frc consts  --      1.3993                 1.7255                 2.0691
 IR Inten    --      3.9272                11.2861               287.5711

                     58                     59                     60
                      A                      A                      A
 Frequencies --   1441.8246              1463.2289              1479.8108
 Red. masses --      1.7702                 1.3867                 2.1042
 Frc consts  --      2.1682                 1.7493                 2.7148
 IR Inten    --    166.4139                43.1247               362.4192

                     61                     62                     63
                      A                      A                      A
 Frequencies --   1489.0665              1490.7908              1504.3438
 Red. masses --      1.0402                 1.0463                 1.0329
 Frc consts  --      1.3589                 1.3701                 1.3772
 IR Inten    --     19.6193                12.5565                20.5124

                     64                     65                     66
                      A                      A                      A
 Frequencies --   1507.5165              1546.4341              1572.4519
 Red. masses --      1.1070                 2.4116                 2.0652
 Frc consts  --      1.4823                 3.3980                 3.0087
 IR Inten    --    206.6333               177.8129               644.7396

                     67                     68                     69
                      A                      A                      A
 Frequencies --   1632.2251              1661.3430              1671.4695
 Red. masses --      1.2208                 5.0566                 3.8723
 Frc consts  --      1.9162                 8.2230                 6.3741
 IR Inten    --    167.5405               122.8386                18.3318

                     70                     71                     72
                      A                      A                      A
 Frequencies --   1684.7908              3019.9811              3058.1304
 Red. masses --      5.0081                 1.0506                 1.0351
 Frc consts  --      8.3755                 5.6455                 5.7035
 IR Inten    --    339.5059                89.5509                36.0533

                     73                     74                     75
                      A                      A                      A
 Frequencies --   3086.2669              3131.3861              3164.1499
 Red. masses --      1.0929                 1.1020                 1.0938
 Frc consts  --      6.1334                 6.3663                 6.4521
 IR Inten    --     35.9253                11.1964                12.0953

                     76                     77                     78
                      A                      A                      A
 Frequencies --   3165.8684              3187.6818              3197.0415
 Red. masses --      1.1049                 1.0880                 1.0884
 Frc consts  --      6.5246                 6.5139                 6.5545
 IR Inten    --     14.1854                13.7075                 2.4849

                     79                     80                     81
                      A                      A                      A
 Frequencies --   3206.9195              3222.3236              3275.0393
 Red. masses --      1.0931                 1.0979                 1.0918
 Frc consts  --      6.6236                 6.7167                 6.8996
 IR Inten    --     29.3266                23.3319                 2.4809

                     82                     83                     84
                      A                      A                      A
 Frequencies --   3473.6608              3599.3438              3658.7133
 Red. masses --      1.0556                 1.0927                 1.0764
 Frc consts  --      7.5045                 8.3407                 8.4894
 IR Inten    --     75.4856               127.0674                58.9300

 - Thermochemistry -
 -------------------
 Temperature   298.150 Kelvin.  Pressure   1.00000 Atm.
 Atom     1 has atomic number  6 and mass  12.00000

 Molecular mass:   303.99780 amu.
 Principal axes and moments of inertia in atomic units:
                           1         2         3
     Eigenvalues --  2019.42864********************
           X            0.99988  -0.01244  -0.00884
           Y            0.01321   0.99559   0.09285
           Z            0.00765  -0.09296   0.99564
 This molecule is an asymmetric top.
 Rotational symmetry number  1.
 Warning -- assumption of classical behavior for rotation
           may cause significant error
 Rotational temperatures (Kelvin)      0.04289     0.00767     0.00737
 Rotational constants (GHZ):           0.89369     0.15971     0.15366
    1 imaginary frequencies ignored.
 Zero-point vibrational energy     624216.5 (Joules/Mol)
                                  149.19132 (Kcal/Mol)
 Warning -- explicit consideration of  25 degrees of freedom as
           vibrations may cause significant error
 Vibrational temperatures:     39.78    44.56    86.88   134.19   144.06
          (Kelvin)            145.35   202.45   234.37   246.12   264.17
                              273.98   325.29   347.66   349.47   402.30
                              448.74   471.91   533.04   570.34   610.99
                              660.78   760.77   774.97   822.60   862.66
                              916.03   949.60  1035.24  1052.26  1101.86
                             1128.39  1152.56  1239.53  1257.65  1341.68
                             1352.44  1428.84  1442.25  1465.83  1469.07
                             1480.70  1525.75  1530.31  1537.78  1573.69
                             1610.94  1694.32  1702.87  1729.16  1739.89
                             1832.82  1868.31  1934.45  1938.52  1958.91
                             2030.92  2074.46  2105.26  2129.12  2142.43
                             2144.92  2164.42  2168.98  2224.97  2262.41
                             2348.41  2390.30  2404.87  2424.04  4345.08
                             4399.97  4440.45  4505.37  4552.51  4554.98
                             4586.36  4599.83  4614.04  4636.20  4712.05
                             4997.82  5178.65  5264.07

 Zero-point correction=                           0.237751 (Hartree/Particle)
 Thermal correction to Energy=                    0.254541
 Thermal correction to Enthalpy=                  0.255485
 Thermal correction to Gibbs Free Energy=         0.191291
 Sum of electronic and zero-point Energies=          -3646.509453
 Sum of electronic and thermal Energies=             -3646.492663
 Sum of electronic and thermal Enthalpies=           -3646.491719
 Sum of electronic and thermal Free Energies=        -3646.555913

                     E (Thermal)             CV                S
                      KCal/Mol        Cal/Mol-Kelvin    Cal/Mol-Kelvin
 Total                  159.727             60.959            135.108
 Electronic               0.000              0.000              0.000
 Translational            0.889              2.981             43.032
 Rotational               0.889              2.981             33.949
 Vibrational            157.949             54.998             58.127
 Vibration     1          0.593              1.984              5.992
 Vibration     2          0.594              1.984              5.766
 Vibration     3          0.597              1.973              4.445
 Vibration     4          0.602              1.954              3.590
 Vibration     5          0.604              1.949              3.452
 Vibration     6          0.604              1.948              3.434
 Vibration     7          0.615              1.913              2.794
 Vibration     8          0.623              1.888              2.516
 Vibration     9          0.626              1.878              2.424
 Vibration    10          0.631              1.862              2.291
 Vibration    11          0.634              1.853              2.224
 Vibration    12          0.650              1.801              1.910
 Vibration    13          0.658              1.777              1.791
 Vibration    14          0.659              1.775              1.782
 Vibration    15          0.680              1.711              1.536
 Vibration    16          0.700              1.651              1.352
 Vibration    17          0.711              1.620              1.270
 Vibration    18          0.742              1.533              1.078
 Vibration    19          0.763              1.478              0.976
 Vibration    20          0.787              1.417              0.876
 Vibration    21          0.817              1.340              0.768
 Vibration    22          0.884              1.186              0.590
 Vibration    23          0.894              1.165              0.568
 Vibration    24          0.928              1.092              0.501
 Vibration    25          0.958              1.033              0.450

 Optimization completed.
    -- Stationary point found.
 Normal termination of Gaussian 16 at Mon Feb 22 11:26:27 2021.
