 Gaussian 16, Revision A.03,
 Gaussian 16:  ES64L-G16RevA.03 25-Dec-2016

 ----------------------------------------------------------------------
 # wB97XD def2tzvp, opt=(ts, noeigen, calcfc, maxcycles=70, maxstep=8),
  freq=noraman, scrf=(iefpcm, solvent=water)
 ----------------------------------------------------------------------

 ------------------------
 1_iteration/TS-730-1.out
 ------------------------
 Symbolic Z-matrix:
 Charge =  0 Multiplicity = 1

 SCF Done:  E(RwB97XD) =  -5474.32152791     A.U. after   15 cycles
 SCF Done:  E(RwB97XD) =  -5474.32152788     A.U. after    6 cycles
 Optimization completed.
    -- Stationary point found.
 Normal termination of Gaussian 16 at Mon Feb 22 03:55:29 2021.

 ---------------------------------------------------------------------
 #N Geom=AllCheck Guess=TCheck SCRF=Check GenChk RwB97XD/def2TZVP Freq
 ---------------------------------------------------------------------

 Structure from the checkpoint file:  "/beegfs/scratch/user/q/tla25/Gau-120839.chk"
 ------------------------
 1_iteration/TS-730-1.out
 ------------------------
 Charge =  0 Multiplicity = 1

                         Standard orientation:
 ---------------------------------------------------------------------
 Center     Atomic      Atomic             Coordinates (Angstroms)
 Number     Number       Type             X           Y           Z
 ---------------------------------------------------------------------
      1          6           0        0.847929   -0.904005   -0.659081
      2          6           0        2.280947   -0.825385   -0.594603
      3          8           0        2.964070   -1.653336   -1.204127
      4          6           0       -0.122208   -0.116710   -0.068447
      5          6           0       -0.280848   -1.921836    2.046081
      6          1           0       -0.183810   -2.127470    3.110830
      7          1           0       -1.182690   -2.395244    1.664367
      8          1           0        0.585745   -2.321076    1.518215
      9          7           0       -0.346379   -0.488342    1.794931
     10          1           0       -1.220093   -0.077889    2.107394
     11          1           0        0.411220    0.002740    2.257009
     12         35           0       -1.920159   -0.524775   -0.657803
     13         35           0        0.088694    1.810138    0.109977
     14          1           0        0.483432   -1.777470   -1.183455
     15          6           0        2.999361    0.238697    0.206483
     16          1           0        2.540175    0.426507    1.176280
     17          1           0        4.029824   -0.079393    0.351377
     18          1           0        2.998455    1.182122   -0.342210
 ---------------------------------------------------------------------

 SCF Done:  E(RwB97XD) =  -5474.32152788     A.U. after    1 cycles

 The electronic state is 1-A.
 Alpha  occ. eigenvalues -- -483.14410-483.14298 -62.69255 -62.69150 -56.48388
 Alpha  occ. eigenvalues --  -56.48278 -56.48008 -56.47997 -56.47904 -56.47893
 Alpha  occ. eigenvalues --  -19.21050 -14.50362 -10.44509 -10.36253 -10.32224
 Alpha  occ. eigenvalues --  -10.27590 -10.26584  -8.83365  -8.83262  -6.65568
 Alpha  occ. eigenvalues --   -6.65452  -6.64359  -6.64328  -6.64264  -6.64228
 Alpha  occ. eigenvalues --   -2.75945  -2.75830  -2.75601  -2.75578  -2.75495
 Alpha  occ. eigenvalues --   -2.75467  -2.74599  -2.74599  -2.74507  -2.74506
 Alpha  occ. eigenvalues --   -1.11847  -1.05701  -0.96086  -0.88214  -0.85734
 Alpha  occ. eigenvalues --   -0.81544  -0.79732  -0.69923  -0.64714  -0.61184
 Alpha  occ. eigenvalues --   -0.58507  -0.56518  -0.55126  -0.54100  -0.51960
 Alpha  occ. eigenvalues --   -0.49467  -0.48778  -0.48093  -0.47260  -0.44572
 Alpha  occ. eigenvalues --   -0.43538  -0.40149  -0.38767  -0.37997  -0.36784
 Alpha  occ. eigenvalues --   -0.32745  -0.29236
 Alpha virt. eigenvalues --    0.01838   0.03357   0.06024   0.09773   0.13541
 Alpha virt. eigenvalues --    0.13995   0.14445   0.16175   0.17999   0.18583
 Alpha virt. eigenvalues --    0.18967   0.19474   0.21516   0.22461   0.23259

 Mulliken charges:
               1
     1  C   -0.473084
     2  C    0.270898
     3  O   -0.499803
     4  C    0.160799
     5  C   -0.282249
     6  H    0.166983
     7  H    0.160488
     8  H    0.158052
     9  N   -0.312466
    10  H    0.301527
    11  H    0.287856
    12  Br  -0.061290
    13  Br  -0.058490
    14  H    0.146910
    15  C   -0.361284
    16  H    0.114339
    17  H    0.130099
    18  H    0.150714
 Sum of Mulliken charges =  -0.00000

 Dipole moment (field-independent basis, Debye):
    X=             -4.8221    Y=              1.7003    Z=              8.6330  Tot=             10.0336
 Quadrupole moment (field-independent basis, Debye-Ang):
   XX=            -92.7411   YY=            -83.1891   ZZ=            -72.1685
   XY=             13.1449   XZ=              7.1892   YZ=             -8.5163

  Exact polarizability: 193.781  -8.135 161.837 -15.957   9.586 147.669
 Approx polarizability: 149.451  -6.058 135.080 -10.615   9.452 125.672

 ******    1 imaginary frequencies (negative Signs) ******

                      1                      2                      3
                      A                      A                      A
 Frequencies --   -368.1192                57.4859                76.0362
 Red. masses --      5.8016                 3.5415                 4.4689
 Frc consts  --      0.4632                 0.0069                 0.0152
 IR Inten    --    772.2075                 4.9767                 2.4412

                      4                      5                      6
                      A                      A                      A
 Frequencies --    107.5916               126.4275               156.1595
 Red. masses --      2.5149                 4.0145                 1.8534
 Frc consts  --      0.0172                 0.0378                 0.0266
 IR Inten    --      3.7565                 5.9518                 0.4688

                      7                      8                      9
                      A                      A                      A
 Frequencies --    168.1115               202.3241               233.5232
 Red. masses --      9.4740                 2.6378                 1.9317
 Frc consts  --      0.1578                 0.0636                 0.0621
 IR Inten    --      1.8050                 3.3265                 1.4975

                     10                     11                     12
                      A                      A                      A
 Frequencies --    252.8998               262.9112               289.4294
 Red. masses --      1.5337                 3.4122                 3.9866
 Frc consts  --      0.0578                 0.1390                 0.1968
 IR Inten    --      1.2425                11.3292                22.4321

                     13                     14                     15
                      A                      A                      A
 Frequencies --    327.4498               475.6235               526.7037
 Red. masses --      6.8391                 4.6251                 2.8972
 Frc consts  --      0.4321                 0.6164                 0.4735
 IR Inten    --      7.7099                64.1695                50.8216

                     16                     17                     18
                      A                      A                      A
 Frequencies --    573.0781               616.4431               665.3040
 Red. masses --      1.9872                 3.8430                 1.6684
 Frc consts  --      0.3845                 0.8604                 0.4351
 IR Inten    --      9.0960                69.4653                27.4608

                     19                     20                     21
                      A                      A                      A
 Frequencies --    753.5190               818.7319               839.4817
 Red. masses --      1.6269                 3.1017                 3.7719
 Frc consts  --      0.5442                 1.2250                 1.5661
 IR Inten    --    116.4276               177.5727                32.2329

                     22                     23                     24
                      A                      A                      A
 Frequencies --   1008.8278              1018.9934              1041.9320
 Red. masses --      1.0843                 1.5355                 1.8118
 Frc consts  --      0.6502                 0.9394                 1.1589
 IR Inten    --     11.9002               113.8176                 4.0671

                     25                     26                     27
                      A                      A                      A
 Frequencies --   1050.1596              1078.3542              1228.2093
 Red. masses --      1.1679                 5.1706                 1.3904
 Frc consts  --      0.7589                 3.5426                 1.2358
 IR Inten    --    128.1473                55.2068                45.7704

                     28                     29                     30
                      A                      A                      A
 Frequencies --   1258.3767              1307.3397              1337.2145
 Red. masses --      1.6786                 2.6763                 1.3231
 Frc consts  --      1.5661                 2.6950                 1.3939
 IR Inten    --    463.8323               337.7866                 0.1778

                     31                     32                     33
                      A                      A                      A
 Frequencies --   1396.1833              1441.6653              1462.4102
 Red. masses --      1.4085                 1.9655                 1.3781
 Frc consts  --      1.6176                 2.4069                 1.7365
 IR Inten    --     71.2091               804.1342               319.3795

                     34                     35                     36
                      A                      A                      A
 Frequencies --   1469.6104              1483.2829              1494.7073
 Red. masses --      1.1637                 1.0893                 1.0516
 Frc consts  --      1.4808                 1.4121                 1.3842
 IR Inten    --     37.5557                30.5588                20.9552

                     37                     38                     39
                      A                      A                      A
 Frequencies --   1497.9527              1639.0201              1654.0409
 Red. masses --      1.0355                 1.1021                 8.0987
 Frc consts  --      1.3690                 1.7444                13.0544
 IR Inten    --     12.4404               122.5957               755.9119

                     40                     41                     42
                      A                      A                      A
 Frequencies --   3071.3637              3073.9195              3146.3315
 Red. masses --      1.0363                 1.0329                 1.0991
 Frc consts  --      5.7596                 5.7505                 6.4104
 IR Inten    --      6.7381                25.2662                15.3900

                     43                     44                     45
                      A                      A                      A
 Frequencies --   3155.0401              3166.0204              3174.8330
 Red. masses --      1.1043                 1.1040                 1.1061
 Frc consts  --      6.4765                 6.5202                 6.5687
 IR Inten    --      3.2455                33.9764                 8.6954

                     46                     47                     48
                      A                      A                      A
 Frequencies --   3204.0215              3514.4303              3598.4062
 Red. masses --      1.0873                 1.0507                 1.0970
 Frc consts  --      6.5765                 7.6458                 8.3689
 IR Inten    --      0.3167                62.1100                66.1901

 - Thermochemistry -
 -------------------
 Temperature   298.150 Kelvin.  Pressure   1.00000 Atm.
 Atom     1 has atomic number  6 and mass  12.00000

 Molecular mass:   256.90509 amu.
 Principal axes and moments of inertia in atomic units:
                           1         2         3
     Eigenvalues --  2141.056222986.257373780.32425
           X            0.99925  -0.03244  -0.02125
           Y            0.03064   0.99630  -0.08032
           Z            0.02378   0.07961   0.99654
 This molecule is an asymmetric top.
 Rotational symmetry number  1.
 Warning -- assumption of classical behavior for rotation
           may cause significant error
 Rotational temperatures (Kelvin)      0.04045     0.02900     0.02291
 Rotational constants (GHZ):           0.84292     0.60435     0.47740
    1 imaginary frequencies ignored.
 Zero-point vibrational energy     361881.6 (Joules/Mol)
                                   86.49178 (Kcal/Mol)
 Warning -- explicit consideration of  16 degrees of freedom as
           vibrations may cause significant error
 Vibrational temperatures:     82.71   109.40   154.80   181.90   224.68
          (Kelvin)            241.87   291.10   335.99   363.87   378.27
                              416.42   471.13   684.32   757.81   824.53
                              886.92   957.22  1084.15  1177.97  1207.83
                             1451.48  1466.10  1499.11  1510.95  1551.51
                             1767.12  1810.52  1880.97  1923.95  2008.80
                             2074.23  2104.08  2114.44  2134.11  2150.55
                             2155.22  2358.18  2379.80  4419.01  4422.68
                             4526.87  4539.40  4555.20  4567.88  4609.87
                             5056.48  5177.30

 Zero-point correction=                           0.137833 (Hartree/Particle)
 Thermal correction to Energy=                    0.149145
 Thermal correction to Enthalpy=                  0.150089
 Thermal correction to Gibbs Free Energy=         0.098829
 Sum of electronic and zero-point Energies=          -5474.183694
 Sum of electronic and thermal Energies=             -5474.172383
 Sum of electronic and thermal Enthalpies=           -5474.171439
 Sum of electronic and thermal Free Energies=        -5474.222699

                     E (Thermal)             CV                S
                      KCal/Mol        Cal/Mol-Kelvin    Cal/Mol-Kelvin
 Total                   93.590             38.408            107.886
 Electronic               0.000              0.000              0.000
 Translational            0.889              2.981             42.531
 Rotational               0.889              2.981             31.558
 Vibrational             91.812             32.446             33.797
 Vibration     1          0.596              1.975              4.542
 Vibration     2          0.599              1.965              3.991
 Vibration     3          0.606              1.943              3.312
 Vibration     4          0.611              1.927              3.000
 Vibration     5          0.620              1.896              2.596
 Vibration     6          0.625              1.882              2.456
 Vibration     7          0.639              1.837              2.112
 Vibration     8          0.654              1.790              1.852
 Vibration     9          0.664              1.758              1.710
 Vibration    10          0.670              1.741              1.642
 Vibration    11          0.686              1.693              1.477
 Vibration    12          0.711              1.621              1.273
 Vibration    13          0.832              1.304              0.722
 Vibration    14          0.882              1.191              0.595
 Vibration    15          0.929              1.089              0.498
 Vibration    16          0.976              0.997              0.422

 Optimization completed.
    -- Stationary point found.
 Normal termination of Gaussian 16 at Mon Feb 22 04:07:08 2021.
