 Gaussian 16, Revision A.03,
 Gaussian 16:  ES64L-G16RevA.03 25-Dec-2016

 ----------------------------------------------------------------------
 # wB97XD def2tzvp, opt=(ts, noeigen, calcfc, maxcycles=70, maxstep=1),
  freq=noraman, scrf=(iefpcm, solvent=water)
 ----------------------------------------------------------------------

 ------------------------
 0_iteration/TS-797-0.out
 ------------------------
 Symbolic Z-matrix:
 Charge =  0 Multiplicity = 1

 SCF Done:  E(RwB97XD) =  -3875.29914391     A.U. after   15 cycles
 SCF Done:  E(RwB97XD) =  -3875.29908827     A.U. after   10 cycles
 SCF Done:  E(RwB97XD) =  -3875.29903394     A.U. after   10 cycles
 SCF Done:  E(RwB97XD) =  -3875.29898216     A.U. after   10 cycles
 SCF Done:  E(RwB97XD) =  -3875.29893342     A.U. after   10 cycles
 SCF Done:  E(RwB97XD) =  -3875.29888798     A.U. after   10 cycles
 SCF Done:  E(RwB97XD) =  -3875.29884579     A.U. after   10 cycles
 SCF Done:  E(RwB97XD) =  -3875.29880648     A.U. after   10 cycles
 SCF Done:  E(RwB97XD) =  -3875.29876944     A.U. after   10 cycles
 SCF Done:  E(RwB97XD) =  -3875.29873400     A.U. after   10 cycles
 SCF Done:  E(RwB97XD) =  -3875.29885065     A.U. after    9 cycles
 SCF Done:  E(RwB97XD) =  -3875.29886907     A.U. after    9 cycles
 SCF Done:  E(RwB97XD) =  -3875.29888041     A.U. after    9 cycles
 SCF Done:  E(RwB97XD) =  -3875.29888721     A.U. after    9 cycles
 SCF Done:  E(RwB97XD) =  -3875.29889010     A.U. after    9 cycles
 SCF Done:  E(RwB97XD) =  -3875.29889150     A.U. after    9 cycles
 SCF Done:  E(RwB97XD) =  -3875.29889193     A.U. after    9 cycles
 SCF Done:  E(RwB97XD) =  -3875.29889198     A.U. after    9 cycles
 SCF Done:  E(RwB97XD) =  -3875.29889206     A.U. after    7 cycles
 Optimization completed.
    -- Stationary point found.
 Normal termination of Gaussian 16 at Sun Feb 21 23:57:37 2021.

 ---------------------------------------------------------------------
 #N Geom=AllCheck Guess=TCheck SCRF=Check GenChk RwB97XD/def2TZVP Freq
 ---------------------------------------------------------------------

 Structure from the checkpoint file:  "/beegfs/scratch/user/q/tla25/Gau-103169.chk"
 ------------------------
 0_iteration/TS-797-0.out
 ------------------------
 Charge =  0 Multiplicity = 1

                         Standard orientation:
 ---------------------------------------------------------------------
 Center     Atomic      Atomic             Coordinates (Angstroms)
 Number     Number       Type             X           Y           Z
 ---------------------------------------------------------------------
      1          6           0       -0.589996    0.420724   -0.204363
      2          6           0       -1.903279   -0.213745   -0.099917
      3          8           0       -2.011180   -1.419612    0.164414
      4          6           0        0.556891   -0.348999   -0.243460
      5          6           0        0.579632   -0.577210    2.583288
      6          1           0        0.309056   -1.160836    3.463485
      7          1           0        1.536392   -0.088487    2.754877
      8          1           0       -0.186964    0.181942    2.418467
      9          7           0        0.659664   -1.409254    1.395064
     10          1           0        1.458217   -2.032328    1.391543
     11          1           0       -0.198640   -1.935300    1.245577
     12         35           0        2.252147    0.529215   -0.239588
     13         17           0        0.610396   -1.759605   -1.331006
     14         17           0       -0.507985    2.157624   -0.002020
     15          7           0       -2.994533    0.558466   -0.270185
     16          6           0       -4.330645    0.027300   -0.135771
     17          1           0       -2.876261    1.523413   -0.518622
     18          1           0       -4.555891   -0.697199   -0.921278
     19          1           0       -4.455564   -0.466165    0.829002
     20          1           0       -5.038552    0.850081   -0.204157
 ---------------------------------------------------------------------

 SCF Done:  E(RwB97XD) =  -3875.29889206     A.U. after    1 cycles

 The electronic state is 1-A.
 Alpha  occ. eigenvalues -- -483.14751-101.70682-101.70109 -62.69593 -56.48732
 Alpha  occ. eigenvalues --  -56.48347 -56.48329 -19.21289 -14.48362 -14.45491
 Alpha  occ. eigenvalues --  -10.44823 -10.39133 -10.32628 -10.31739 -10.31049
 Alpha  occ. eigenvalues --   -9.59257  -9.58625  -8.83708  -7.33937  -7.33279
 Alpha  occ. eigenvalues --   -7.33013  -7.32989  -7.32414  -7.32375  -6.65933
 Alpha  occ. eigenvalues --   -6.64701  -6.64647  -2.76312  -2.75960  -2.75919
 Alpha  occ. eigenvalues --   -2.74922  -2.74922  -1.14147  -1.04567  -1.02475
 Alpha  occ. eigenvalues --   -0.99614  -0.95747  -0.89947  -0.83703  -0.80344
 Alpha  occ. eigenvalues --   -0.78893  -0.69955  -0.66524  -0.63420  -0.60448
 Alpha  occ. eigenvalues --   -0.57835  -0.56852  -0.55735  -0.54179  -0.53007
 Alpha  occ. eigenvalues --   -0.52373  -0.49060  -0.48249  -0.47689  -0.47574
 Alpha  occ. eigenvalues --   -0.46834  -0.43210  -0.42651  -0.41650  -0.39605
 Alpha  occ. eigenvalues --   -0.37928  -0.37441  -0.34779  -0.34143  -0.28120
 Alpha virt. eigenvalues --    0.02704   0.03910   0.06961   0.10922   0.13036
 Alpha virt. eigenvalues --    0.13377   0.15059   0.15374   0.16939   0.17288
 Alpha virt. eigenvalues --    0.17985   0.20040   0.20532   0.20647   0.21799

 Mulliken charges:
               1
     1  C   -0.346737
     2  C    0.411229
     3  O   -0.552134
     4  C    0.216018
     5  C   -0.295821
     6  H    0.157973
     7  H    0.156473
     8  H    0.155423
     9  N   -0.339439
    10  H    0.288646
    11  H    0.282997
    12  Br  -0.025748
    13  Cl  -0.070753
    14  Cl  -0.136215
    15  N   -0.318443
    16  C   -0.245774
    17  H    0.255946
    18  H    0.130884
    19  H    0.131313
    20  H    0.144163
 Sum of Mulliken charges =  -0.00000

 Dipole moment (field-independent basis, Debye):
    X=              0.4851    Y=              0.0445    Z=              3.9438  Tot=              3.9737
 Quadrupole moment (field-independent basis, Debye-Ang):
   XX=            -80.7933   YY=            -92.2457   ZZ=            -85.4906
   XY=            -10.7918   XZ=              5.4879   YZ=             -5.9208

  Exact polarizability: 208.383  -9.300 180.856   9.166  -3.453 150.593
 Approx polarizability: 158.628  -4.387 159.913   5.815  -2.281 128.947

 ******    1 imaginary frequencies (negative Signs) ******

                      1                      2                      3
                      A                      A                      A
 Frequencies --   -376.4769                50.3475                78.7915
 Red. masses --      5.9378                 4.5996                 4.5310
 Frc consts  --      0.4959                 0.0069                 0.0166
 IR Inten    --    701.9477                 5.4184                10.7159

                      4                      5                      6
                      A                      A                      A
 Frequencies --     90.4515                96.5949               123.5207
 Red. masses --      1.3657                 3.5392                 5.1649
 Frc consts  --      0.0066                 0.0195                 0.0464
 IR Inten    --      1.2752                12.4573                 4.5361

                      7                      8                      9
                      A                      A                      A
 Frequencies --    130.0600               155.2975               164.5978
 Red. masses --      2.4884                 1.4347                 3.7627
 Frc consts  --      0.0248                 0.0204                 0.0601
 IR Inten    --      0.6652                 6.4795                16.5963

                     10                     11                     12
                      A                      A                      A
 Frequencies --    188.4221               196.4641               233.9221
 Red. masses --      4.9224                 3.8609                11.6539
 Frc consts  --      0.1030                 0.0878                 0.3757
 IR Inten    --     12.1152                 9.9227                 8.9267

                     13                     14                     15
                      A                      A                      A
 Frequencies --    247.9945               265.1317               296.1208
 Red. masses --      3.8161                10.2256                 3.7692
 Frc consts  --      0.1383                 0.4235                 0.1947
 IR Inten    --      3.3253                 3.6318                 4.2440

                     16                     17                     18
                      A                      A                      A
 Frequencies --    321.9090               372.4255               425.2941
 Red. masses --      4.9272                 7.9907                 1.3155
 Frc consts  --      0.3008                 0.6530                 0.1402
 IR Inten    --     51.2270                45.8972                62.2088

                     19                     20                     21
                      A                      A                      A
 Frequencies --    441.5821               507.7540               629.0159
 Red. masses --      7.4467                 6.1048                 2.1214
 Frc consts  --      0.8555                 0.9273                 0.4945
 IR Inten    --     32.9791               128.6444                 3.8091

                     22                     23                     24
                      A                      A                      A
 Frequencies --    729.7081               763.7063               787.1490
 Red. masses --      2.4527                 9.8221                 8.1370
 Frc consts  --      0.7695                 3.3752                 2.9705
 IR Inten    --    100.5195               204.0532               103.9241

                     25                     26                     27
                      A                      A                      A
 Frequencies --    853.8789               990.6900              1022.9418
 Red. masses --      4.0157                 1.0905                 3.0225
 Frc consts  --      1.7251                 0.6306                 1.8634
 IR Inten    --     30.1701                70.9209                34.2341

                     28                     29                     30
                      A                      A                      A
 Frequencies --   1064.8142              1091.4154              1150.9954
 Red. masses --      1.2642                 4.9362                 4.5178
 Frc consts  --      0.8445                 3.4644                 3.5264
 IR Inten    --     68.8451                45.7552                 7.6519

                     31                     32                     33
                      A                      A                      A
 Frequencies --   1157.3566              1192.5116              1201.8082
 Red. masses --      1.3695                 1.7262                 1.4106
 Frc consts  --      1.0808                 1.4463                 1.2004
 IR Inten    --      3.8777                12.4825                30.7939

                     34                     35                     36
                      A                      A                      A
 Frequencies --   1303.9899              1348.5508              1410.8387
 Red. masses --      2.2037                 1.3179                 5.3937
 Frc consts  --      2.2077                 1.4121                 6.3254
 IR Inten    --    452.8817                12.5982               739.3457

                     37                     38                     39
                      A                      A                      A
 Frequencies --   1459.3893              1460.1401              1476.9993
 Red. masses --      1.2042                 1.2744                 1.0513
 Frc consts  --      1.5111                 1.6008                 1.3513
 IR Inten    --     39.1142                18.3671                15.3726

                     40                     41                     42
                      A                      A                      A
 Frequencies --   1488.5714              1501.9380              1506.3096
 Red. masses --      1.0416                 1.0332                 1.0687
 Frc consts  --      1.3599                 1.3732                 1.4287
 IR Inten    --     20.3096                 5.8943                12.3091

                     43                     44                     45
                      A                      A                      A
 Frequencies --   1567.9237              1629.7649              1662.8896
 Red. masses --      2.0852                 1.3669                 3.3252
 Frc consts  --      3.0203                 2.1391                 5.4174
 IR Inten    --    698.8981               273.3541               222.2518

                     46                     47                     48
                      A                      A                      A
 Frequencies --   3053.1980              3063.3666              3113.7905
 Red. masses --      1.0368                 1.0336                 1.1031
 Frc consts  --      5.6944                 5.7146                 6.3016
 IR Inten    --     72.1900                32.3236                37.4436

                     49                     50                     51
                      A                      A                      A
 Frequencies --   3135.6503              3165.5285              3166.3180
 Red. masses --      1.1041                 1.1049                 1.1019
 Frc consts  --      6.3960                 6.5233                 6.5087
 IR Inten    --     11.9238                13.8410                19.9506

                     52                     53                     54
                      A                      A                      A
 Frequencies --   3480.7480              3598.9888              3686.0086
 Red. masses --      1.0548                 1.0935                 1.0780
 Frc consts  --      7.5293                 8.3449                 8.6294
 IR Inten    --     68.1332               115.1941                95.0855

 - Thermochemistry -
 -------------------
 Temperature   298.150 Kelvin.  Pressure   1.00000 Atm.
 Atom     1 has atomic number  6 and mass  12.00000

 Molecular mass:   261.92753 amu.
 Principal axes and moments of inertia in atomic units:
                           1         2         3
     Eigenvalues --  2089.386704217.075654834.48212
           X            0.99959  -0.02164   0.01857
           Y            0.02283   0.99750  -0.06682
           Z           -0.01708   0.06722   0.99759
 This molecule is an asymmetric top.
 Rotational symmetry number  1.
 Warning -- assumption of classical behavior for rotation
           may cause significant error
 Rotational temperatures (Kelvin)      0.04145     0.02054     0.01792
 Rotational constants (GHZ):           0.86377     0.42796     0.37331
    1 imaginary frequencies ignored.
 Zero-point vibrational energy     384620.8 (Joules/Mol)
                                   91.92658 (Kcal/Mol)
 Warning -- explicit consideration of  19 degrees of freedom as
           vibrations may cause significant error
 Vibrational temperatures:     72.44   113.36   130.14   138.98   177.72
          (Kelvin)            187.13   223.44   236.82   271.10   282.67
                              336.56   356.81   381.47   426.05   463.16
                              535.84   611.90   635.34   730.54   905.01
                             1049.89  1098.80  1132.53  1228.54  1425.38
                             1471.79  1532.03  1570.30  1656.03  1665.18
                             1715.76  1729.13  1876.15  1940.26  2029.88
                             2099.74  2100.82  2125.07  2141.72  2160.95
                             2167.24  2255.89  2344.87  2392.53  4392.87
                             4407.50  4480.05  4511.50  4554.49  4555.63
                             5008.02  5178.14  5303.34

 Zero-point correction=                           0.146494 (Hartree/Particle)
 Thermal correction to Energy=                    0.160344
 Thermal correction to Enthalpy=                  0.161288
 Thermal correction to Gibbs Free Energy=         0.104539
 Sum of electronic and zero-point Energies=          -3875.152398
 Sum of electronic and thermal Energies=             -3875.138548
 Sum of electronic and thermal Enthalpies=           -3875.137604
 Sum of electronic and thermal Free Energies=        -3875.194353

                     E (Thermal)             CV                S
                      KCal/Mol        Cal/Mol-Kelvin    Cal/Mol-Kelvin
 Total                  100.617             46.230            119.439
 Electronic               0.000              0.000              0.000
 Translational            0.889              2.981             42.588
 Rotational               0.889              2.981             32.121
 Vibrational             98.840             40.268             44.729
 Vibration     1          0.595              1.977              4.804
 Vibration     2          0.600              1.963              3.921
 Vibration     3          0.602              1.956              3.650
 Vibration     4          0.603              1.952              3.522
 Vibration     5          0.610              1.929              3.045
 Vibration     6          0.612              1.923              2.945
 Vibration     7          0.620              1.897              2.606
 Vibration     8          0.623              1.886              2.496
 Vibration     9          0.633              1.856              2.243
 Vibration    10          0.636              1.845              2.166
 Vibration    11          0.654              1.789              1.849
 Vibration    12          0.662              1.766              1.745
 Vibration    13          0.671              1.737              1.628
 Vibration    14          0.690              1.681              1.439
 Vibration    15          0.707              1.632              1.300
 Vibration    16          0.744              1.529              1.070
 Vibration    17          0.787              1.415              0.874
 Vibration    18          0.801              1.379              0.822
 Vibration    19          0.863              1.233              0.639

 Optimization completed.
    -- Stationary point found.
 Normal termination of Gaussian 16 at Mon Feb 22 00:18:25 2021.
