 Gaussian 16, Revision A.03,
 Gaussian 16:  ES64L-G16RevA.03 25-Dec-2016

 ----------------------------------------------------------------------
 # wB97XD def2tzvp, opt=(ts, noeigen, calcfc, maxcycles=70, maxstep=5),
  freq=noraman, scrf=(iefpcm, solvent=water)
 ----------------------------------------------------------------------

 ------------------------
 2_iteration/TS-792-2.out
 ------------------------
 Symbolic Z-matrix:
 Charge =  0 Multiplicity = 1

 SCF Done:  E(RwB97XD) =  -6125.65840858     A.U. after   15 cycles
 Optimization completed.
    -- Stationary point found.
 Normal termination of Gaussian 16 at Mon Feb 22 16:24:04 2021.

 ---------------------------------------------------------------------
 #N Geom=AllCheck Guess=TCheck SCRF=Check GenChk RwB97XD/def2TZVP Freq
 ---------------------------------------------------------------------

 Structure from the checkpoint file:  "/beegfs/scratch/user/q/tla25/Gau-28309.chk"
 ------------------------
 2_iteration/TS-792-2.out
 ------------------------
 Charge =  0 Multiplicity = 1

                         Standard orientation:
 ---------------------------------------------------------------------
 Center     Atomic      Atomic             Coordinates (Angstroms)
 Number     Number       Type             X           Y           Z
 ---------------------------------------------------------------------
      1          6           0        0.368751    0.690397   -0.147471
      2          6           0       -0.896217    1.380531   -0.323731
      3          8           0       -0.956304    2.576511   -0.580371
      4          6           0        0.602248   -0.679093   -0.217081
      5          6           0        0.870628   -0.762554    2.615539
      6          1           0        0.579907   -1.173973    3.581759
      7          1           0        1.955868   -0.714526    2.553629
      8          1           0        0.466540    0.245567    2.520679
      9          7           0        0.362696   -1.575032    1.518809
     10          1           0        0.809124   -2.484764    1.474639
     11          1           0       -0.639035   -1.720060    1.589879
     12         35           0        2.400536   -1.295687   -0.552301
     13         17           0       -0.524004   -1.693230   -1.110081
     14         35           0        1.831074    1.876364    0.161409
     15          6           0       -2.194139    0.650424   -0.129531
     16          6           0       -3.122519    0.601596   -1.163201
     17          6           0       -4.344450   -0.020521   -0.969831
     18          6           0       -4.659982   -0.571550    0.266099
     19          6           0       -3.751892   -0.489283    1.310639
     20          6           0       -2.520030    0.117574    1.111249
     21          1           0       -2.875708    1.034485   -2.124511
     22          1           0       -5.055661   -0.074390   -1.784231
     23          1           0       -5.617033   -1.054498    0.416039
     24          1           0       -4.000943   -0.894322    2.283049
     25          1           0       -1.824180    0.205733    1.936929
 ---------------------------------------------------------------------

 SCF Done:  E(RwB97XD) =  -6125.65840858     A.U. after    1 cycles

 The electronic state is 1-A.
 Alpha  occ. eigenvalues -- -483.14937-483.12921-101.72022 -62.69780 -62.67746
 Alpha  occ. eigenvalues --  -56.48924 -56.48531 -56.48512 -56.46873 -56.46505
 Alpha  occ. eigenvalues --  -56.46496 -19.23194 -14.49670 -10.46176 -10.38294
 Alpha  occ. eigenvalues --  -10.33305 -10.32371 -10.30711 -10.30037 -10.29720
 Alpha  occ. eigenvalues --  -10.29719 -10.29614 -10.29549  -9.60604  -8.83890
 Alpha  occ. eigenvalues --   -8.81856  -7.35299  -7.34353  -7.34323  -6.66128
 Alpha  occ. eigenvalues --   -6.64878  -6.64819  -6.64037  -6.62859  -6.62833
 Alpha  occ. eigenvalues --   -2.76499  -2.76151  -2.76105  -2.75094  -2.75093
 Alpha  occ. eigenvalues --   -2.74421  -2.74079  -2.74059  -2.73106  -2.73106
 Alpha  occ. eigenvalues --   -1.14339  -1.05688  -1.00557  -0.97385  -0.92770
 Alpha  occ. eigenvalues --   -0.89645  -0.87259  -0.85912  -0.82267  -0.79716
 Alpha  occ. eigenvalues --   -0.74556  -0.71362  -0.69731  -0.64643  -0.63920
 Alpha  occ. eigenvalues --   -0.60657  -0.58693  -0.58032  -0.56113  -0.55744
 Alpha  occ. eigenvalues --   -0.55175  -0.53650  -0.51776  -0.51419  -0.49738
 Alpha  occ. eigenvalues --   -0.49051  -0.48670  -0.46854  -0.46664  -0.44823
 Alpha  occ. eigenvalues --   -0.43450  -0.42868  -0.41441  -0.39887  -0.39437
 Alpha  occ. eigenvalues --   -0.38362  -0.36051  -0.35252  -0.34519  -0.32797
 Alpha  occ. eigenvalues --   -0.29473
 Alpha virt. eigenvalues --    0.00400   0.01895   0.04300   0.04759   0.05522
 Alpha virt. eigenvalues --    0.10195   0.12046   0.13264   0.13751   0.14121
 Alpha virt. eigenvalues --    0.15083   0.16199   0.17109   0.18079   0.18322

 Mulliken charges:
               1
     1  C   -0.289917
     2  C    0.255435
     3  O   -0.429135
     4  C    0.186648
     5  C   -0.308955
     6  H    0.171157
     7  H    0.167316
     8  H    0.160822
     9  N   -0.340550
    10  H    0.295849
    11  H    0.284685
    12  Br  -0.019852
    13  Cl  -0.029245
    14  Br  -0.101320
    15  C    0.141271
    16  C   -0.213004
    17  C   -0.135862
    18  C   -0.143928
    19  C   -0.134780
    20  C   -0.292297
    21  H    0.144598
    22  H    0.147348
    23  H    0.148250
    24  H    0.146200
    25  H    0.189265
 Sum of Mulliken charges =   0.00000

 Dipole moment (field-independent basis, Debye):
    X=             -1.1802    Y=             -9.2872    Z=              5.7740  Tot=             10.9993
 Quadrupole moment (field-independent basis, Debye-Ang):
   XX=           -110.2673   YY=           -129.9464   ZZ=           -105.6665
   XY=              4.4467   XZ=              2.4756   YZ=             -6.0914

  Exact polarizability: 294.593  11.705 256.054  12.645 -22.144 230.505
 Approx polarizability: 229.654  12.199 216.120   9.757 -17.361 200.999

 ******    1 imaginary frequencies (negative Signs) ******

                      1                      2                      3
                      A                      A                      A
 Frequencies --   -363.4253                30.5189                43.1158
 Red. masses --      5.9804                 6.8322                 7.8267
 Frc consts  --      0.4654                 0.0037                 0.0086
 IR Inten    --    826.2593                 2.3022                 3.2687

                      4                      5                      6
                      A                      A                      A
 Frequencies --     64.5441                77.8804                89.3966
 Red. masses --      7.2635                 4.6627                 3.1720
 Frc consts  --      0.0178                 0.0167                 0.0149
 IR Inten    --      0.4982                 3.0697                 0.4615

                      7                      8                      9
                      A                      A                      A
 Frequencies --    127.0203               145.1639               164.2162
 Red. masses --      5.1132                15.2648                 6.9017
 Frc consts  --      0.0486                 0.1895                 0.1097
 IR Inten    --      3.6155                 0.9474                 3.0730

                     10                     11                     12
                      A                      A                      A
 Frequencies --    190.3412               198.3674               212.6069
 Red. masses --      1.4352                 4.9956                 9.0512
 Frc consts  --      0.0306                 0.1158                 0.2411
 IR Inten    --      3.4863                 5.9263                 0.8411

                     13                     14                     15
                      A                      A                      A
 Frequencies --    226.8544               240.4619               259.7383
 Red. masses --      2.9030                 9.3102                 3.8805
 Frc consts  --      0.0880                 0.3172                 0.1542
 IR Inten    --      2.0710                14.4772                 1.5163

                     16                     17                     18
                      A                      A                      A
 Frequencies --    285.2205               333.2721               373.7993
 Red. masses --      4.6866                 7.6114                 9.7150
 Frc consts  --      0.2246                 0.4981                 0.7998
 IR Inten    --      9.8696                15.4240                15.5969

                     19                     20                     21
                      A                      A                      A
 Frequencies --    390.6667               423.2977               496.9567
 Red. masses --      6.4239                 2.9994                 7.0065
 Frc consts  --      0.5776                 0.3166                 1.0195
 IR Inten    --     12.8479                 2.4526               123.3944

                     22                     23                     24
                      A                      A                      A
 Frequencies --    556.1798               630.1078               635.5147
 Red. masses --      4.2189                 2.0215                 5.7483
 Frc consts  --      0.7689                 0.4729                 1.3679
 IR Inten    --      5.9597                 6.3275                 0.1533

                     25                     26                     27
                      A                      A                      A
 Frequencies --    663.7475               732.1110               750.3924
 Red. masses --      2.9771                 1.7954                 7.8563
 Frc consts  --      0.7728                 0.5670                 2.6064
 IR Inten    --    139.6010                82.2898               120.6150

                     28                     29                     30
                      A                      A                      A
 Frequencies --    761.8792               803.5205               818.9883
 Red. masses --      3.5722                 4.2491                 3.8899
 Frc consts  --      1.2217                 1.6164                 1.5373
 IR Inten    --     45.4320               129.1239               116.8024

                     31                     32                     33
                      A                      A                      A
 Frequencies --    870.5258               887.4999               968.5216
 Red. masses --      4.8787                 1.2992                 1.4172
 Frc consts  --      2.1783                 0.6029                 0.7832
 IR Inten    --     28.3605                 2.4459                18.7295

                     34                     35                     36
                      A                      A                      A
 Frequencies --   1000.0235              1018.2150              1028.2205
 Red. masses --      1.1124                 1.6169                 2.8098
 Frc consts  --      0.6555                 0.9877                 1.7502
 IR Inten    --     22.4086                 4.7797                 3.7984

                     37                     38                     39
                      A                      A                      A
 Frequencies --   1034.9799              1036.2929              1057.5862
 Red. masses --      1.3083                 1.1975                 2.3068
 Frc consts  --      0.8257                 0.7577                 1.5202
 IR Inten    --     21.9978                64.1365                15.9817

                     40                     41                     42
                      A                      A                      A
 Frequencies --   1081.3432              1110.4566              1138.6031
 Red. masses --      5.0355                 1.5651                 4.0090
 Frc consts  --      3.4691                 1.1371                 3.0622
 IR Inten    --     36.9184                30.0413               117.4060

                     43                     44                     45
                      A                      A                      A
 Frequencies --   1184.3720              1204.2166              1220.2285
 Red. masses --      1.1402                 1.1220                 1.4043
 Frc consts  --      0.9423                 0.9586                 1.2320
 IR Inten    --      0.2802                 5.8324                20.2593

                     46                     47                     48
                      A                      A                      A
 Frequencies --   1306.5151              1326.8281              1339.9247
 Red. masses --      4.7840                 5.0163                 1.3393
 Frc consts  --      4.8114                 5.2032                 1.4167
 IR Inten    --    469.6973                89.2022                15.1363

                     49                     50                     51
                      A                      A                      A
 Frequencies --   1356.9804              1368.4917              1462.2750
 Red. masses --      1.4864                 8.5998                 1.2018
 Frc consts  --      1.6126                 9.4890                 1.5141
 IR Inten    --      4.4485              1205.5981                12.6052

                     52                     53                     54
                      A                      A                      A
 Frequencies --   1489.9962              1492.1883              1501.3570
 Red. masses --      2.2132                 1.0429                 1.0325
 Frc consts  --      2.8950                 1.3681                 1.3712
 IR Inten    --     14.0752                22.9431                17.2266

                     55                     56                     57
                      A                      A                      A
 Frequencies --   1539.8470              1646.9855              1650.5776
 Red. masses --      2.3238                 1.0953                 5.7334
 Frc consts  --      3.2464                 1.7506                 9.2030
 IR Inten    --      4.3191                58.7583                22.8098

                     58                     59                     60
                      A                      A                      A
 Frequencies --   1673.5459              1675.7729              3070.1266
 Red. masses --      5.9064                12.6526                 1.0330
 Frc consts  --      9.7465                20.9345                 5.7366
 IR Inten    --      2.7884               612.0236                21.7760

                     61                     62                     63
                      A                      A                      A
 Frequencies --   3148.0780              3168.8443              3196.1715
 Red. masses --      1.1050                 1.1055                 1.0863
 Frc consts  --      6.4522                 6.5407                 6.5379
 IR Inten    --     10.2732                 9.9461                 3.8605

                     64                     65                     66
                      A                      A                      A
 Frequencies --   3200.4879              3208.5239              3216.4954
 Red. masses --      1.0879                 1.0914                 1.0953
 Frc consts  --      6.5657                 6.6196                 6.6765
 IR Inten    --      0.6774                 8.3616                30.9155

                     67                     68                     69
                      A                      A                      A
 Frequencies --   3225.5956              3510.2563              3595.0013
 Red. masses --      1.0989                 1.0507                 1.0969
 Frc consts  --      6.7366                 7.6279                 8.3524
 IR Inten    --     15.5536                65.8324                83.8551

 - Thermochemistry -
 -------------------
 Temperature   298.150 Kelvin.  Pressure   1.00000 Atm.
 Atom     1 has atomic number  6 and mass  12.00000

 Molecular mass:   352.88176 amu.
 Principal axes and moments of inertia in atomic units:
                           1         2         3
     Eigenvalues --  3659.192397356.727248873.29707
           X            0.99995   0.00223   0.00989
           Y           -0.00159   0.99794  -0.06419
           Z           -0.01001   0.06417   0.99789
 This molecule is an asymmetric top.
 Rotational symmetry number  1.
 Warning -- assumption of classical behavior for rotation
           may cause significant error
 Rotational temperatures (Kelvin)      0.02367     0.01177     0.00976
 Rotational constants (GHZ):           0.49321     0.24532     0.20339
    1 imaginary frequencies ignored.
 Zero-point vibrational energy     478134.4 (Joules/Mol)
                                  114.27687 (Kcal/Mol)
 Warning -- explicit consideration of  21 degrees of freedom as
           vibrations may cause significant error
 Vibrational temperatures:     43.91    62.03    92.86   112.05   128.62
          (Kelvin)            182.75   208.86   236.27   273.86   285.41
                              305.89   326.39   345.97   373.71   410.37
                              479.50   537.81   562.08   609.03   715.01
                              800.22   906.58   914.36   954.98  1053.34
                             1079.65  1096.17  1156.09  1178.34  1252.49
                             1276.91  1393.49  1438.81  1464.98  1479.38
                             1489.11  1490.99  1521.63  1555.81  1597.70
                             1638.20  1704.05  1732.60  1755.64  1879.78
                             1909.01  1927.85  1952.39  1968.95  2103.89
                             2143.77  2146.93  2160.12  2215.50  2369.64
                             2374.81  2407.86  2411.06  4417.23  4529.38
                             4559.26  4598.58  4604.79  4616.35  4627.82
                             4640.91  5050.48  5172.41

 Zero-point correction=                           0.182112 (Hartree/Particle)
 Thermal correction to Energy=                    0.197719
 Thermal correction to Enthalpy=                  0.198663
 Thermal correction to Gibbs Free Energy=         0.136546
 Sum of electronic and zero-point Energies=          -6125.476297
 Sum of electronic and thermal Energies=             -6125.460690
 Sum of electronic and thermal Enthalpies=           -6125.459746
 Sum of electronic and thermal Free Energies=        -6125.521863

                     E (Thermal)             CV                S
                      KCal/Mol        Cal/Mol-Kelvin    Cal/Mol-Kelvin
 Total                  124.070             54.997            130.737
 Electronic               0.000              0.000              0.000
 Translational            0.889              2.981             43.477
 Rotational               0.889              2.981             33.834
 Vibrational            122.293             49.035             53.426
 Vibration     1          0.594              1.984              5.795
 Vibration     2          0.595              1.980              5.111
 Vibration     3          0.597              1.971              4.313
 Vibration     4          0.599              1.964              3.944
 Vibration     5          0.602              1.957              3.673
 Vibration     6          0.611              1.926              2.991
 Vibration     7          0.617              1.908              2.735
 Vibration     8          0.623              1.886              2.501
 Vibration     9          0.634              1.853              2.225
 Vibration    10          0.637              1.842              2.148
 Vibration    11          0.644              1.822              2.021
 Vibration    12          0.651              1.800              1.904
 Vibration    13          0.658              1.778              1.799
 Vibration    14          0.668              1.746              1.664
 Vibration    15          0.683              1.701              1.502
 Vibration    16          0.715              1.609              1.244
 Vibration    17          0.745              1.526              1.064
 Vibration    18          0.758              1.490              0.998
 Vibration    19          0.785              1.420              0.881
 Vibration    20          0.852              1.257              0.666
 Vibration    21          0.912              1.126              0.532

 Optimization completed.
    -- Stationary point found.
 Normal termination of Gaussian 16 at Mon Feb 22 17:21:48 2021.
