 Gaussian 16, Revision A.03,
 Gaussian 16:  ES64L-G16RevA.03 25-Dec-2016

 ----------------------------------------------------------------------
 # wB97XD def2tzvp, opt=(ts, noeigen, calcfc, maxcycles=70, maxstep=8),
  freq=noraman, scrf=(iefpcm, solvent=water)
 ----------------------------------------------------------------------

 ------------------------
 1_iteration/TS-757-1.out
 ------------------------
 Symbolic Z-matrix:
 Charge =  0 Multiplicity = 1

 SCF Done:  E(RwB97XD) =  -5989.29947257     A.U. after   15 cycles
 SCF Done:  E(RwB97XD) =  -5989.29952153     A.U. after   12 cycles
 SCF Done:  E(RwB97XD) =  -5989.29963394     A.U. after   12 cycles
 SCF Done:  E(RwB97XD) =  -5989.29975550     A.U. after   12 cycles
 SCF Done:  E(RwB97XD) =  -5989.29987145     A.U. after   12 cycles
 SCF Done:  E(RwB97XD) =  -5989.29996091     A.U. after   12 cycles
 SCF Done:  E(RwB97XD) =  -5989.29998292     A.U. after   12 cycles
 SCF Done:  E(RwB97XD) =  -5989.29998354     A.U. after    9 cycles
 SCF Done:  E(RwB97XD) =  -5989.29998350     A.U. after    9 cycles
 SCF Done:  E(RwB97XD) =  -5989.29998368     A.U. after    8 cycles
 SCF Done:  E(RwB97XD) =  -5989.29986939     A.U. after   11 cycles
 SCF Done:  E(RwB97XD) =  -5989.29997520     A.U. after   12 cycles
 SCF Done:  E(RwB97XD) =  -5989.29998135     A.U. after   10 cycles
 SCF Done:  E(RwB97XD) =  -5989.29998372     A.U. after   10 cycles
 SCF Done:  E(RwB97XD) =  -5989.29998373     A.U. after    8 cycles
 SCF Done:  E(RwB97XD) =  -5989.29998372     A.U. after    7 cycles
 SCF Done:  E(RwB97XD) =  -5989.29998373     A.U. after    6 cycles
 Optimization completed.
    -- Stationary point found.
 Normal termination of Gaussian 16 at Mon Feb 22 08:59:05 2021.

 ---------------------------------------------------------------------
 #N Geom=AllCheck Guess=TCheck SCRF=Check GenChk RwB97XD/def2TZVP Freq
 ---------------------------------------------------------------------

 Structure from the checkpoint file:  "/beegfs/scratch/user/q/tla25/Gau-41504.chk"
 ------------------------
 1_iteration/TS-757-1.out
 ------------------------
 Charge =  0 Multiplicity = 1

                         Standard orientation:
 ---------------------------------------------------------------------
 Center     Atomic      Atomic             Coordinates (Angstroms)
 Number     Number       Type             X           Y           Z
 ---------------------------------------------------------------------
      1          6           0       -0.859470    0.609279   -0.059318
      2          6           0       -2.037902   -0.230506    0.148521
      3          8           0       -1.930942   -1.389241    0.575716
      4          6           0        0.411685    0.069733   -0.008345
      5          6           0        1.874022   -1.364782    2.191287
      6          1           0        1.811341   -1.663516    3.239002
      7          1           0        1.985600   -2.254168    1.575437
      8          1           0        2.743272   -0.723291    2.055650
      9          7           0        0.674192   -0.644671    1.780406
     10          1           0       -0.167019   -1.219722    1.799060
     11          1           0        0.513252    0.179886    2.347892
     12         35           0        1.910728    1.239086   -0.169595
     13         35           0        0.757761   -1.579621   -0.999974
     14         17           0       -1.097616    2.344703   -0.039688
     15          7           0       -3.247622    0.300899   -0.115948
     16          6           0       -4.468787   -0.435009    0.112681
     17          1           0       -3.300827    1.229956   -0.491314
     18          1           0       -4.527121   -0.780107    1.146097
     19          1           0       -5.311285    0.223326   -0.085664
     20          1           0       -4.540571   -1.305549   -0.542452
 ---------------------------------------------------------------------

 SCF Done:  E(RwB97XD) =  -5989.29998373     A.U. after    1 cycles

 The electronic state is 1-A.
 Alpha  occ. eigenvalues -- -483.14811-483.13678-101.70042 -62.69653 -62.68514
 Alpha  occ. eigenvalues --  -56.48792 -56.48406 -56.48388 -56.47652 -56.47266
 Alpha  occ. eigenvalues --  -56.47255 -19.21295 -14.48666 -14.45482 -10.44422
 Alpha  occ. eigenvalues --  -10.39099 -10.32507 -10.31840 -10.31050  -9.58559
 Alpha  occ. eigenvalues --   -8.83767  -8.82614  -7.33211  -7.32349  -7.32311
 Alpha  occ. eigenvalues --   -6.65992  -6.64827  -6.64760  -6.64704  -6.63605
 Alpha  occ. eigenvalues --   -6.63567  -2.76371  -2.76020  -2.75977  -2.75197
 Alpha  occ. eigenvalues --   -2.74981  -2.74980  -2.74857  -2.74827  -2.73839
 Alpha  occ. eigenvalues --   -2.73839  -1.14129  -1.04256  -1.02465  -0.98516
 Alpha  occ. eigenvalues --   -0.93580  -0.87934  -0.83446  -0.80667  -0.78430
 Alpha  occ. eigenvalues --   -0.69779  -0.66410  -0.63374  -0.60024  -0.56972
 Alpha  occ. eigenvalues --   -0.56294  -0.55977  -0.54031  -0.52502  -0.51938
 Alpha  occ. eigenvalues --   -0.48996  -0.48291  -0.47630  -0.46899  -0.46321
 Alpha  occ. eigenvalues --   -0.42753  -0.42244  -0.39776  -0.38387  -0.37640
 Alpha  occ. eigenvalues --   -0.36793  -0.34440  -0.34062  -0.27792
 Alpha virt. eigenvalues --    0.01658   0.03689   0.05498   0.10800   0.12927
 Alpha virt. eigenvalues --    0.13219   0.15123   0.15243   0.16569   0.17510
 Alpha virt. eigenvalues --    0.18336   0.18669   0.19948   0.20360   0.21414

 Mulliken charges:
               1
     1  C   -0.257484
     2  C    0.413033
     3  O   -0.553524
     4  C    0.118661
     5  C   -0.269993
     6  H    0.155913
     7  H    0.151371
     8  H    0.149457
     9  N   -0.336775
    10  H    0.283148
    11  H    0.284584
    12  Br  -0.016106
    13  Br  -0.078004
    14  Cl  -0.140093
    15  N   -0.320449
    16  C   -0.246198
    17  H    0.256351
    18  H    0.131019
    19  H    0.144168
    20  H    0.130921
 Sum of Mulliken charges =   0.00000

 Dipole moment (field-independent basis, Debye):
    X=              0.5616    Y=              0.7208    Z=              4.0904  Tot=              4.1912
 Quadrupole moment (field-independent basis, Debye-Ang):
   XX=            -83.3307   YY=           -101.9186   ZZ=            -88.6051
   XY=             -7.2734   XZ=              7.6220   YZ=             -2.2184

  Exact polarizability: 226.739 -10.812 198.308  13.968  -4.676 159.923
 Approx polarizability: 169.052  -5.822 170.102   8.251  -3.644 138.096

 ******    1 imaginary frequencies (negative Signs) ******

                      1                      2                      3
                      A                      A                      A
 Frequencies --   -366.3012                50.9799                66.0291
 Red. masses --      7.0937                 5.6365                 4.4231
 Frc consts  --      0.5608                 0.0086                 0.0114
 IR Inten    --    746.0268                 4.9806                13.2351

                      4                      5                      6
                      A                      A                      A
 Frequencies --     87.7113                89.0651               105.7524
 Red. masses --      2.3854                 1.2711                 4.0796
 Frc consts  --      0.0108                 0.0059                 0.0269
 IR Inten    --      1.1472                 1.2080                 9.8515

                      7                      8                      9
                      A                      A                      A
 Frequencies --    126.1599               133.6140               149.9413
 Red. masses --      2.6501                 2.6524                 2.3494
 Frc consts  --      0.0249                 0.0279                 0.0311
 IR Inten    --      4.1705                 6.6548                 4.5233

                     10                     11                     12
                      A                      A                      A
 Frequencies --    174.2219               186.3696               204.1246
 Red. masses --     16.5972                 5.8263                 7.7864
 Frc consts  --      0.2968                 0.1192                 0.1912
 IR Inten    --      7.8274                22.9733                 5.2929

                     13                     14                     15
                      A                      A                      A
 Frequencies --    230.7840               255.4659               274.6099
 Red. masses --      2.6598                 8.6959                 6.1841
 Frc consts  --      0.0835                 0.3344                 0.2748
 IR Inten    --      3.1858                14.8806                19.3993

                     16                     17                     18
                      A                      A                      A
 Frequencies --    321.3359               340.6548               413.8442
 Red. masses --      5.2586                 3.9803                 2.1960
 Frc consts  --      0.3199                 0.2721                 0.2216
 IR Inten    --     49.1466                12.1161                48.9290

                     19                     20                     21
                      A                      A                      A
 Frequencies --    431.6526               490.7792               656.8856
 Red. masses --      2.1235                 6.9313                 1.9790
 Frc consts  --      0.2331                 0.9836                 0.5031
 IR Inten    --     98.7759               141.4855                49.9844

                     22                     23                     24
                      A                      A                      A
 Frequencies --    675.6298               768.9065               779.9929
 Red. masses --      7.1854                 2.8133                 7.1048
 Frc consts  --      1.9325                 0.9800                 2.5467
 IR Inten    --     68.6867               169.0727                94.5243

                     25                     26                     27
                      A                      A                      A
 Frequencies --    848.0219              1016.7539              1035.3497
 Red. masses --      3.9419                 2.4370                 1.2106
 Frc consts  --      1.6702                 1.4844                 0.7646
 IR Inten    --     32.9094                13.2302                32.0429

                     28                     29                     30
                      A                      A                      A
 Frequencies --   1049.6261              1085.9251              1149.8375
 Red. masses --      1.5737                 2.9044                 4.5426
 Frc consts  --      1.0215                 2.0179                 3.5385
 IR Inten    --     27.4868               257.1881                 1.0053

                     31                     32                     33
                      A                      A                      A
 Frequencies --   1158.5241              1193.5935              1212.6960
 Red. masses --      1.3533                 1.7374                 1.3873
 Frc consts  --      1.0702                 1.4583                 1.2021
 IR Inten    --      0.9800                12.8251                31.4283

                     34                     35                     36
                      A                      A                      A
 Frequencies --   1307.5029              1343.1600              1406.6808
 Red. masses --      2.2350                 1.3097                 6.7148
 Frc consts  --      2.2512                 1.3922                 7.8284
 IR Inten    --    488.6785                 2.7698               786.1952

                     37                     38                     39
                      A                      A                      A
 Frequencies --   1456.7711              1460.1673              1477.1751
 Red. masses --      1.1957                 1.2187                 1.0484
 Frc consts  --      1.4950                 1.5309                 1.3478
 IR Inten    --     15.5795                18.4419                15.4247

                     40                     41                     42
                      A                      A                      A
 Frequencies --   1490.1372              1497.2722              1506.2319
 Red. masses --      1.0431                 1.0300                 1.0676
 Frc consts  --      1.3647                 1.3605                 1.4271
 IR Inten    --     21.4024                19.5555                10.7055

                     43                     44                     45
                      A                      A                      A
 Frequencies --   1571.0113              1649.9635              1655.8894
 Red. masses --      2.0482                 1.3393                 3.4163
 Frc consts  --      2.9784                 2.1483                 5.5191
 IR Inten    --    725.5381               168.8356               305.0462

                     46                     47                     48
                      A                      A                      A
 Frequencies --   3053.8740              3065.7431              3113.3314
 Red. masses --      1.0360                 1.0363                 1.1041
 Frc consts  --      5.6925                 5.7384                 6.3054
 IR Inten    --     72.5296                46.6095                38.3658

                     49                     50                     51
                      A                      A                      A
 Frequencies --   3143.5642              3165.4473              3174.5014
 Red. masses --      1.1013                 1.1018                 1.1053
 Frc consts  --      6.4121                 6.5049                 6.5626
 IR Inten    --     12.0331                21.1926                 9.9338

                     52                     53                     54
                      A                      A                      A
 Frequencies --   3458.6034              3577.1422              3685.6142
 Red. masses --      1.0584                 1.0909                 1.0781
 Frc consts  --      7.4594                 8.2248                 8.6281
 IR Inten    --     89.1445                75.4743                97.2328

 - Thermochemistry -
 -------------------
 Temperature   298.150 Kelvin.  Pressure   1.00000 Atm.
 Atom     1 has atomic number  6 and mass  12.00000

 Molecular mass:   305.87701 amu.
 Principal axes and moments of inertia in atomic units:
                           1         2         3
     Eigenvalues --  2880.586104422.407215779.09004
           X            0.99930  -0.02485   0.02812
           Y            0.02671   0.99734  -0.06788
           Z           -0.02636   0.06858   0.99730
 This molecule is an asymmetric top.
 Rotational symmetry number  1.
 Warning -- assumption of classical behavior for rotation
           may cause significant error
 Rotational temperatures (Kelvin)      0.03007     0.01959     0.01499
 Rotational constants (GHZ):           0.62652     0.40809     0.31229
    1 imaginary frequencies ignored.
 Zero-point vibrational energy     382952.3 (Joules/Mol)
                                   91.52779 (Kcal/Mol)
 Warning -- explicit consideration of  19 degrees of freedom as
           vibrations may cause significant error
 Vibrational temperatures:     73.35    95.00   126.20   128.14   152.15
          (Kelvin)            181.52   192.24   215.73   250.67   268.14
                              293.69   332.05   367.56   395.10   462.33
                              490.13   595.43   621.05   706.12   945.11
                              972.08  1106.29  1122.24  1220.11  1462.88
                             1489.64  1510.18  1562.40  1654.36  1666.86
                             1717.31  1744.80  1881.21  1932.51  2023.90
                             2095.97  2100.86  2125.33  2143.98  2154.24
                             2167.13  2260.33  2373.93  2382.46  4393.84
                             4410.92  4479.39  4522.89  4554.37  4567.40
                             4976.16  5146.71  5302.78

 Zero-point correction=                           0.145859 (Hartree/Particle)
 Thermal correction to Energy=                    0.160080
 Thermal correction to Enthalpy=                  0.161024
 Thermal correction to Gibbs Free Energy=         0.102632
 Sum of electronic and zero-point Energies=          -5989.154125
 Sum of electronic and thermal Energies=             -5989.139904
 Sum of electronic and thermal Enthalpies=           -5989.138960
 Sum of electronic and thermal Free Energies=        -5989.197351

                     E (Thermal)             CV                S
                      KCal/Mol        Cal/Mol-Kelvin    Cal/Mol-Kelvin
 Total                  100.452             46.644            122.896
 Electronic               0.000              0.000              0.000
 Translational            0.889              2.981             43.051
 Rotational               0.889              2.981             32.665
 Vibrational             98.674             40.683             47.180
 Vibration     1          0.595              1.977              4.779
 Vibration     2          0.597              1.970              4.268
 Vibration     3          0.601              1.958              3.710
 Vibration     4          0.602              1.957              3.680
 Vibration     5          0.605              1.945              3.345
 Vibration     6          0.611              1.927              3.004
 Vibration     7          0.613              1.920              2.893
 Vibration     8          0.618              1.903              2.673
 Vibration     9          0.627              1.874              2.389
 Vibration    10          0.632              1.859              2.264
 Vibration    11          0.640              1.834              2.096
 Vibration    12          0.652              1.794              1.873
 Vibration    13          0.666              1.754              1.693
 Vibration    14          0.677              1.720              1.567
 Vibration    15          0.707              1.633              1.303
 Vibration    16          0.720              1.594              1.209
 Vibration    17          0.777              1.440              0.913
 Vibration    18          0.793              1.401              0.853
 Vibration    19          0.847              1.270              0.682

 Optimization completed.
    -- Stationary point found.
 Normal termination of Gaussian 16 at Mon Feb 22 09:20:56 2021.
