 Gaussian 16, Revision A.03,
 Gaussian 16:  ES64L-G16RevA.03 25-Dec-2016

 ----------------------------------------------------------------------
 # wB97XD def2tzvp, opt=(ts, noeigen, calcfc, maxcycles=70, maxstep=3),
  freq=noraman, scrf=(iefpcm, solvent=water)
 ----------------------------------------------------------------------

 ------------------------
 0_iteration/TS-714-0.out
 ------------------------
 Symbolic Z-matrix:
 Charge =  0 Multiplicity = 1

 SCF Done:  E(RwB97XD) =  -3399.62100979     A.U. after   16 cycles
 SCF Done:  E(RwB97XD) =  -3399.62062518     A.U. after   12 cycles
 SCF Done:  E(RwB97XD) =  -3399.62029693     A.U. after   12 cycles
 SCF Done:  E(RwB97XD) =  -3399.62004164     A.U. after   12 cycles
 SCF Done:  E(RwB97XD) =  -3399.61987661     A.U. after   13 cycles
 SCF Done:  E(RwB97XD) =  -3399.61983486     A.U. after   13 cycles
 SCF Done:  E(RwB97XD) =  -3399.62001016     A.U. after   13 cycles
 SCF Done:  E(RwB97XD) =  -3399.62047827     A.U. after   13 cycles
 SCF Done:  E(RwB97XD) =  -3399.62115909     A.U. after   14 cycles
 SCF Done:  E(RwB97XD) =  -3399.62230499     A.U. after   14 cycles
 SCF Done:  E(RwB97XD) =  -3399.64534416     A.U. after   11 cycles
 SCF Done:  E(RwB97XD) =  -3399.64537703     A.U. after   11 cycles
 SCF Done:  E(RwB97XD) =  -3399.64539281     A.U. after   11 cycles
 SCF Done:  E(RwB97XD) =  -3399.64539213     A.U. after   10 cycles
 SCF Done:  E(RwB97XD) =  -3399.64539297     A.U. after    9 cycles
 SCF Done:  E(RwB97XD) =  -3399.64533588     A.U. after   11 cycles
 SCF Done:  E(RwB97XD) =  -3399.64539299     A.U. after   11 cycles
 SCF Done:  E(RwB97XD) =  -3399.64539310     A.U. after    8 cycles
 SCF Done:  E(RwB97XD) =  -3399.64539309     A.U. after    7 cycles
 Optimization completed.
    -- Stationary point found.
 Normal termination of Gaussian 16 at Thu Apr  8 10:51:38 2021.

 ---------------------------------------------------------------------
 #N Geom=AllCheck Guess=TCheck SCRF=Check GenChk RwB97XD/def2TZVP Freq
 ---------------------------------------------------------------------

 Structure from the checkpoint file:  "/beegfs/scratch/user/q/tla25/Gau-153153.chk"
 ------------------------
 0_iteration/TS-714-0.out
 ------------------------
 Charge =  0 Multiplicity = 1

                         Standard orientation:
 ---------------------------------------------------------------------
 Center     Atomic      Atomic             Coordinates (Angstroms)
 Number     Number       Type             X           Y           Z
 ---------------------------------------------------------------------
      1          6           0       -1.038710   -0.124063    0.031180
      2          6           0       -2.283489    0.540816    0.319358
      3          8           0       -2.348315    1.621840    0.909107
      4          6           0        0.223375    0.386397    0.326269
      5          6           0        2.170459    1.881568   -1.421742
      6          1           0        2.411501    2.185979   -2.441340
      7          1           0        2.133621    2.765689   -0.789074
      8          1           0        2.950258    1.214354   -1.057812
      9          7           0        0.884946    1.189813   -1.360635
     10          1           0        0.116015    1.808085   -1.593849
     11          1           0        0.853606    0.407611   -2.004849
     12         35           0        1.655391   -0.913872    0.573853
     13          6           0        0.421286    1.559358    1.240269
     14          1           0       -0.155856    2.411565    0.894157
     15          1           0        0.065516    1.299824    2.237518
     16          1           0        1.475861    1.817444    1.303155
     17         17           0       -1.120593   -1.588073   -0.945140
     18          6           0       -3.571515   -0.133488   -0.106643
     19          1           0       -3.630479   -0.204906   -1.194104
     20          1           0       -3.639615   -1.148882    0.285791
     21          1           0       -4.405607    0.459079    0.262396
 ---------------------------------------------------------------------

 SCF Done:  E(RwB97XD) =  -3399.64539309     A.U. after    1 cycles

 The electronic state is 1-A.
 Alpha  occ. eigenvalues -- -483.13280-101.69117 -62.68135 -56.47248 -56.46903
 Alpha  occ. eigenvalues --  -56.46880 -19.21250 -14.48454 -10.40717 -10.36640
 Alpha  occ. eigenvalues --  -10.31881 -10.31766 -10.28936 -10.27374  -9.57666
 Alpha  occ. eigenvalues --   -8.82248  -7.32291  -7.31455  -7.31441  -6.64391
 Alpha  occ. eigenvalues --   -6.63295  -6.63222  -2.74779  -2.74478  -2.74421
 Alpha  occ. eigenvalues --   -2.73533  -2.73532  -1.12280  -1.04017  -0.97700
 Alpha  occ. eigenvalues --   -0.92184  -0.85024  -0.83520  -0.79725  -0.78152
 Alpha  occ. eigenvalues --   -0.69241  -0.63189  -0.60117  -0.57031  -0.56334
 Alpha  occ. eigenvalues --   -0.55889  -0.54364  -0.52192  -0.50821  -0.49767
 Alpha  occ. eigenvalues --   -0.48575  -0.47743  -0.46623  -0.45649  -0.45071
 Alpha  occ. eigenvalues --   -0.43237  -0.41365  -0.40654  -0.37505  -0.36638
 Alpha  occ. eigenvalues --   -0.32548  -0.28121
 Alpha virt. eigenvalues --    0.02572   0.04844   0.09961   0.12478   0.13236
 Alpha virt. eigenvalues --    0.13478   0.14627   0.15356   0.17012   0.18686
 Alpha virt. eigenvalues --    0.18814   0.19536   0.19840   0.20534   0.21848

 Mulliken charges:
               1
     1  C   -0.115067
     2  C    0.259961
     3  O   -0.499084
     4  C    0.082935
     5  C   -0.286603
     6  H    0.157023
     7  H    0.161768
     8  H    0.150841
     9  N   -0.358809
    10  H    0.286629
    11  H    0.283085
    12  Br  -0.095650
    13  C   -0.370064
    14  H    0.154829
    15  H    0.157043
    16  H    0.157604
    17  Cl  -0.162005
    18  C   -0.370876
    19  H    0.140707
    20  H    0.140589
    21  H    0.125142
 Sum of Mulliken charges =  -0.00000

 Dipole moment (field-independent basis, Debye):
    X=              4.7267    Y=              2.7012    Z=             -4.5390  Tot=              7.0881
 Quadrupole moment (field-independent basis, Debye-Ang):
   XX=            -82.2809   YY=            -81.6113   ZZ=            -75.3956
   XY=             11.1213   XZ=              0.2193   YZ=             -7.9700

  Exact polarizability: 209.958  -0.226 164.204 -10.214   4.433 141.589
 Approx polarizability: 154.062  -4.373 140.810  -6.306   5.777 123.007

 ******    1 imaginary frequencies (negative Signs) ******

                      1                      2                      3
                      A                      A                      A
 Frequencies --   -352.8475                47.5964                63.7091
 Red. masses --      6.2586                 7.6351                 3.4046
 Frc consts  --      0.4591                 0.0102                 0.0081
 IR Inten    --    797.5592                 3.2201                 6.2390

                      4                      5                      6
                      A                      A                      A
 Frequencies --     82.1049               111.7483               158.4221
 Red. masses --      1.9211                 4.5234                 2.2645
 Frc consts  --      0.0076                 0.0333                 0.0335
 IR Inten    --      2.0629                 6.3263                10.2852

                      7                      8                      9
                      A                      A                      A
 Frequencies --    165.0720               178.2742               214.8232
 Red. masses --      3.0814                 1.0898                 3.0969
 Frc consts  --      0.0495                 0.0204                 0.0842
 IR Inten    --      1.8616                 1.2472                 3.9578

                     10                     11                     12
                      A                      A                      A
 Frequencies --    219.0949               258.0881               279.4422
 Red. masses --      3.0057                 2.9923                 1.6064
 Frc consts  --      0.0850                 0.1174                 0.0739
 IR Inten    --     21.5256                 5.1343                 1.6242

                     13                     14                     15
                      A                      A                      A
 Frequencies --    303.7502               335.7312               376.2321
 Red. masses --      4.6655                 3.0619                 1.9757
 Frc consts  --      0.2536                 0.2033                 0.1648
 IR Inten    --     10.2021                 4.9849                 3.8146

                     16                     17                     18
                      A                      A                      A
 Frequencies --    445.7510               456.6621               489.5582
 Red. masses --      5.4013                 4.3228                 5.3995
 Frc consts  --      0.6323                 0.5311                 0.7625
 IR Inten    --      7.3384                96.9564                24.7986

                     19                     20                     21
                      A                      A                      A
 Frequencies --    552.5513               626.5251               654.3776
 Red. masses --      3.5713                 2.8595                 1.4474
 Frc consts  --      0.6424                 0.6613                 0.3652
 IR Inten    --     71.0667                49.4458                38.1788

                     22                     23                     24
                      A                      A                      A
 Frequencies --    736.4324               966.1561               985.4892
 Red. masses --      3.1214                 3.2380                 2.2443
 Frc consts  --      0.9974                 1.7808                 1.2842
 IR Inten    --     64.7887                55.4014                27.6509

                     25                     26                     27
                      A                      A                      A
 Frequencies --   1014.4343              1021.5136              1040.4900
 Red. masses --      1.1533                 1.4383                 1.6408
 Frc consts  --      0.6992                 0.8843                 1.0466
 IR Inten    --      5.9896               335.2512                 4.8278

                     28                     29                     30
                      A                      A                      A
 Frequencies --   1046.9989              1062.6298              1083.5685
 Red. masses --      1.6434                 1.5117                 3.1231
 Frc consts  --      1.0614                 1.0057                 2.1605
 IR Inten    --     20.2188                67.9275                54.9982

                     31                     32                     33
                      A                      A                      A
 Frequencies --   1125.3274              1221.9774              1303.6609
 Red. masses --      2.5489                 1.3928                 4.2477
 Frc consts  --      1.9018                 1.2254                 4.2534
 IR Inten    --     72.0261                18.6614               233.0727

                     34                     35                     36
                      A                      A                      A
 Frequencies --   1345.5615              1381.8214              1402.4868
 Red. masses --      1.3125                 1.7410                 1.9583
 Frc consts  --      1.4001                 1.9586                 2.2694
 IR Inten    --      3.7657               330.3401               943.7056

                     37                     38                     39
                      A                      A                      A
 Frequencies --   1426.5223              1457.6338              1460.2178
 Red. masses --      1.4707                 1.0966                 1.2036
 Frc consts  --      1.7633                 1.3727                 1.5121
 IR Inten    --    221.2579                36.6013                78.5988

                     40                     41                     42
                      A                      A                      A
 Frequencies --   1469.2572              1469.9996              1481.2158
 Red. masses --      1.0506                 1.0470                 1.0809
 Frc consts  --      1.3363                 1.3330                 1.3972
 IR Inten    --      8.8654                14.0288                55.8573

                     43                     44                     45
                      A                      A                      A
 Frequencies --   1495.2206              1508.1805              1642.4019
 Red. masses --      1.0439                 1.0362                 1.0949
 Frc consts  --      1.3750                 1.3886                 1.7401
 IR Inten    --      9.6757                19.8251                52.5281

                     46                     47                     48
                      A                      A                      A
 Frequencies --   1667.6484              3064.5012              3066.5096
 Red. masses --      8.7077                 1.0361                 1.0354
 Frc consts  --     14.2681                 5.7330                 5.7367
 IR Inten    --    440.3801                 8.5018                45.2861

                     49                     50                     51
                      A                      A                      A
 Frequencies --   3083.7155              3136.1425              3143.2490
 Red. masses --      1.0369                 1.1001                 1.1024
 Frc consts  --      5.8092                 6.3747                 6.4170
 IR Inten    --      8.2844                10.8235                12.6757

                     52                     53                     54
                      A                      A                      A
 Frequencies --   3159.0513              3166.9116              3170.9636
 Red. masses --      1.1013                 1.1044                 1.1053
 Frc consts  --      6.4752                 6.5262                 6.5478
 IR Inten    --     10.8788                26.1603                12.7752

                     55                     56                     57
                      A                      A                      A
 Frequencies --   3190.0055              3521.7259              3602.9074
 Red. masses --      1.1029                 1.0509                 1.0963
 Frc consts  --      6.6128                 7.6795                 8.3848
 IR Inten    --      2.0412                24.8779                44.9122

 - Thermochemistry -
 -------------------
 Temperature   298.150 Kelvin.  Pressure   1.00000 Atm.
 Atom     1 has atomic number  6 and mass  12.00000

 Molecular mass:   226.97125 amu.
 Principal axes and moments of inertia in atomic units:
                           1         2         3
     Eigenvalues --  1725.224093148.794843700.37168
           X            0.99656   0.07608  -0.03286
           Y           -0.07685   0.99678  -0.02288
           Z            0.03102   0.02532   0.99920
 This molecule is an asymmetric top.
 Rotational symmetry number  1.
 Warning -- assumption of classical behavior for rotation
           may cause significant error
 Rotational temperatures (Kelvin)      0.05020     0.02751     0.02341
 Rotational constants (GHZ):           1.04609     0.57315     0.48772
    1 imaginary frequencies ignored.
 Zero-point vibrational energy     437486.6 (Joules/Mol)
                                  104.56180 (Kcal/Mol)
 Warning -- explicit consideration of  18 degrees of freedom as
           vibrations may cause significant error
 Vibrational temperatures:     68.48    91.66   118.13   160.78   227.93
          (Kelvin)            237.50   256.50   309.08   315.23   371.33
                              402.05   437.03   483.04   541.31   641.34
                              657.03   704.37   795.00   901.43   941.50
                             1059.56  1390.08  1417.90  1459.54  1469.73
                             1497.03  1506.40  1528.89  1559.01  1619.10
                             1758.15  1875.68  1935.96  1988.13  2017.87
                             2052.45  2097.21  2100.93  2113.93  2115.00
                             2131.14  2151.29  2169.94  2363.05  2399.37
                             4409.13  4412.02  4436.78  4512.21  4522.43
                             4545.17  4556.48  4562.31  4589.71  5066.98
                             5183.78

 Zero-point correction=                           0.166630 (Hartree/Particle)
 Thermal correction to Energy=                    0.179263
 Thermal correction to Enthalpy=                  0.180207
 Thermal correction to Gibbs Free Energy=         0.126537
 Sum of electronic and zero-point Energies=          -3399.478763
 Sum of electronic and thermal Energies=             -3399.466130
 Sum of electronic and thermal Enthalpies=           -3399.465186
 Sum of electronic and thermal Free Energies=        -3399.518856

                     E (Thermal)             CV                S
                      KCal/Mol        Cal/Mol-Kelvin    Cal/Mol-Kelvin
 Total                  112.489             43.613            112.959
 Electronic               0.000              0.000              0.000
 Translational            0.889              2.981             42.161
 Rotational               0.889              2.981             31.375
 Vibrational            110.712             37.651             39.423
 Vibration     1          0.595              1.978              4.915
 Vibration     2          0.597              1.972              4.339
 Vibration     3          0.600              1.961              3.840
 Vibration     4          0.607              1.940              3.238
 Vibration     5          0.621              1.893              2.569
 Vibration     6          0.623              1.885              2.491
 Vibration     7          0.629              1.869              2.346
 Vibration     8          0.645              1.818              2.002
 Vibration     9          0.647              1.812              1.967
 Vibration    10          0.667              1.749              1.675
 Vibration    11          0.680              1.712              1.537
 Vibration    12          0.695              1.667              1.396
 Vibration    13          0.717              1.604              1.232
 Vibration    14          0.747              1.521              1.054
 Vibration    15          0.805              1.370              0.809
 Vibration    16          0.815              1.346              0.776
 Vibration    17          0.845              1.273              0.685
 Vibration    18          0.908              1.134              0.539

 Optimization completed.
    -- Stationary point found.
 Normal termination of Gaussian 16 at Thu Apr  8 10:58:41 2021.
