 Gaussian 16, Revision A.03,
 Gaussian 16:  ES64L-G16RevA.03 25-Dec-2016

 ----------------------------------------------------------------------
 # wB97XD def2tzvp, opt=(ts, noeigen, calcfc, maxcycles=70, maxstep=1),
  freq=noraman, scrf=(iefpcm, solvent=water)
 ----------------------------------------------------------------------

 ------------------------
 0_iteration/TS-785-0.out
 ------------------------
 Symbolic Z-matrix:
 Charge =  0 Multiplicity = 1

 SCF Done:  E(RwB97XD) =  -5894.61131985     A.U. after   15 cycles
 SCF Done:  E(RwB97XD) =  -5894.61120553     A.U. after   10 cycles
 SCF Done:  E(RwB97XD) =  -5894.61109507     A.U. after   10 cycles
 SCF Done:  E(RwB97XD) =  -5894.61098866     A.U. after   10 cycles
 SCF Done:  E(RwB97XD) =  -5894.61088640     A.U. after   10 cycles
 SCF Done:  E(RwB97XD) =  -5894.61078830     A.U. after   10 cycles
 SCF Done:  E(RwB97XD) =  -5894.61069440     A.U. after   10 cycles
 SCF Done:  E(RwB97XD) =  -5894.61060472     A.U. after   10 cycles
 SCF Done:  E(RwB97XD) =  -5894.61051925     A.U. after   10 cycles
 SCF Done:  E(RwB97XD) =  -5894.61043792     A.U. after   10 cycles
 SCF Done:  E(RwB97XD) =  -5894.61139719     A.U. after   10 cycles
 SCF Done:  E(RwB97XD) =  -5894.61142453     A.U. after   10 cycles
 SCF Done:  E(RwB97XD) =  -5894.61144476     A.U. after   10 cycles
 SCF Done:  E(RwB97XD) =  -5894.61145975     A.U. after   10 cycles
 SCF Done:  E(RwB97XD) =  -5894.61146924     A.U. after   10 cycles
 SCF Done:  E(RwB97XD) =  -5894.61147354     A.U. after   10 cycles
 SCF Done:  E(RwB97XD) =  -5894.61147422     A.U. after    9 cycles
 SCF Done:  E(RwB97XD) =  -5894.61147438     A.U. after    8 cycles
 SCF Done:  E(RwB97XD) =  -5894.61147444     A.U. after    6 cycles
 Optimization completed.
    -- Stationary point found.
 Normal termination of Gaussian 16 at Sun Feb 21 19:17:18 2021.

 ---------------------------------------------------------------------
 #N Geom=AllCheck Guess=TCheck SCRF=Check GenChk RwB97XD/def2TZVP Freq
 ---------------------------------------------------------------------

 Structure from the checkpoint file:  "/beegfs/scratch/user/q/tla25/Gau-38507.chk"
 ------------------------
 0_iteration/TS-785-0.out
 ------------------------
 Charge =  0 Multiplicity = 1

                         Standard orientation:
 ---------------------------------------------------------------------
 Center     Atomic      Atomic             Coordinates (Angstroms)
 Number     Number       Type             X           Y           Z
 ---------------------------------------------------------------------
      1          6           0        0.737999    0.385099   -0.421032
      2          6           0        1.475733    1.491022   -0.959079
      3          8           0        2.690106    1.549420   -1.068659
      4          6           0       -0.629369    0.375939   -0.227194
      5          6           0       -0.213886    1.998627    2.099896
      6          1           0       -0.584290    2.873683    1.568733
      7          1           0       -0.266115    2.182645    3.173107
      8          1           0        0.827644    1.828958    1.824044
      9          7           0       -0.994898    0.835609    1.714905
     10          1           0       -0.725472    0.009671    2.236713
     11          1           0       -1.991777    0.977084    1.829189
     12         35           0       -1.600167   -1.284466   -0.232130
     13         17           0       -1.574675    1.650052   -0.954164
     14         35           0        1.768128   -1.058391    0.245949
     15          1           0        0.851446    2.328343   -1.305282
 ---------------------------------------------------------------------

 SCF Done:  E(RwB97XD) =  -5894.61147444     A.U. after    1 cycles

 The electronic state is 1-A.
 Alpha  occ. eigenvalues -- -483.15063-483.13513-101.72675 -62.69910 -62.68341
 Alpha  occ. eigenvalues --  -56.49050 -56.48661 -56.48645 -56.47462 -56.47104
 Alpha  occ. eigenvalues --  -56.47092 -19.23227 -14.48817 -10.45940 -10.37042
 Alpha  occ. eigenvalues --  -10.33417 -10.32058  -9.61235  -8.84024  -8.82455
 Alpha  occ. eigenvalues --   -7.35930  -7.34985  -7.34960  -6.66254  -6.65011
 Alpha  occ. eigenvalues --   -6.64962  -6.64621  -6.63471  -6.63435  -2.76628
 Alpha  occ. eigenvalues --   -2.76277  -2.76239  -2.75234  -2.75234  -2.75012
 Alpha  occ. eigenvalues --   -2.74675  -2.74647  -2.73717  -2.73717  -1.13825
 Alpha  occ. eigenvalues --   -1.05077  -1.00999  -0.93295  -0.90023  -0.83308
 Alpha  occ. eigenvalues --   -0.79255  -0.73439  -0.64011  -0.62909  -0.59722
 Alpha  occ. eigenvalues --   -0.58223  -0.56283  -0.55035  -0.51329  -0.49501
 Alpha  occ. eigenvalues --   -0.48549  -0.47795  -0.47375  -0.43405  -0.42019
 Alpha  occ. eigenvalues --   -0.40021  -0.39632  -0.38034  -0.36510  -0.34306
 Alpha  occ. eigenvalues --   -0.30070
 Alpha virt. eigenvalues --    0.00118   0.03279   0.04971   0.10554   0.11752
 Alpha virt. eigenvalues --    0.12505   0.14733   0.15443   0.17719   0.18060
 Alpha virt. eigenvalues --    0.19799   0.21408   0.22098   0.23428   0.24838

 Mulliken charges:
               1
     1  C   -0.176343
     2  C    0.092403
     3  O   -0.442663
     4  C    0.149163
     5  C   -0.306166
     6  H    0.160722
     7  H    0.166166
     8  H    0.163286
     9  N   -0.381722
    10  H    0.290646
    11  H    0.297907
    12  Br  -0.012116
    13  Cl  -0.021945
    14  Br  -0.088622
    15  H    0.109284
 Sum of Mulliken charges =  -0.00000

 Dipole moment (field-independent basis, Debye):
    X=             -7.5042    Y=              1.4309    Z=              6.0667  Tot=              9.7553
 Quadrupole moment (field-independent basis, Debye-Ang):
   XX=            -98.7287   YY=            -81.3723   ZZ=            -76.2480
   XY=             -8.4337   XZ=              0.8133   YZ=              5.6899

  Exact polarizability: 195.276   2.306 165.694 -15.255  -8.018 143.666
 Approx polarizability: 158.672   1.237 140.079  -9.734  -8.712 122.899

 ******    1 imaginary frequencies (negative Signs) ******

                      1                      2                      3
                      A                      A                      A
 Frequencies --   -353.0023                47.0496                56.9632
 Red. masses --      5.7491                 3.3741                 2.8394
 Frc consts  --      0.4221                 0.0044                 0.0054
 IR Inten    --    757.1042                 1.7544                 0.2604

                      4                      5                      6
                      A                      A                      A
 Frequencies --    100.9379               125.1840               136.5426
 Red. masses --      2.9722                21.2971                 2.1340
 Frc consts  --      0.0178                 0.1966                 0.0234
 IR Inten    --      6.2192                 0.6083                 0.4374

                      7                      8                      9
                      A                      A                      A
 Frequencies --    172.6881               194.6564               216.9398
 Red. masses --      2.5805                12.2012                 8.1281
 Frc consts  --      0.0453                 0.2724                 0.2254
 IR Inten    --      5.7737                15.0741                 8.3781

                     10                     11                     12
                      A                      A                      A
 Frequencies --    241.5774               265.3741               301.5138
 Red. masses --      4.4029                 4.5325                 6.9932
 Frc consts  --      0.1514                 0.1881                 0.3746
 IR Inten    --      8.4214                17.7110                 2.7463

                     13                     14                     15
                      A                      A                      A
 Frequencies --    309.4185               370.7664               519.8543
 Red. masses --      4.8106                 6.9824                 5.8518
 Frc consts  --      0.2714                 0.5655                 0.9318
 IR Inten    --      3.7315                 1.1234               122.1170

                     16                     17                     18
                      A                      A                      A
 Frequencies --    607.1439               624.0385               773.4539
 Red. masses --      4.2580                 1.6152                 7.3274
 Frc consts  --      0.9248                 0.3706                 2.5827
 IR Inten    --     68.8535                17.6984               204.3585

                     19                     20                     21
                      A                      A                      A
 Frequencies --    834.9691               988.6267              1008.5887
 Red. masses --      7.9859                 1.0832                 1.1296
 Frc consts  --      3.2803                 0.6238                 0.6770
 IR Inten    --    151.0106                61.7681                87.0928

                     22                     23                     24
                      A                      A                      A
 Frequencies --   1016.3202              1085.6101              1199.2364
 Red. masses --      1.6506                 4.6296                 2.3377
 Frc consts  --      1.0045                 3.2147                 1.9808
 IR Inten    --      8.5309                21.0367               174.4167

                     25                     26                     27
                      A                      A                      A
 Frequencies --   1203.2917              1339.5291              1380.0972
 Red. masses --      2.1907                 1.3366                 2.2735
 Frc consts  --      1.8688                 1.4131                 2.5513
 IR Inten    --    224.0823                 1.9392               702.6808

                     28                     29                     30
                      A                      A                      A
 Frequencies --   1448.3653              1467.5906              1490.0586
 Red. masses --      1.4932                 1.5754                 1.0424
 Frc consts  --      1.8456                 1.9992                 1.3636
 IR Inten    --    285.5457               235.1673                22.3652

                     31                     32                     33
                      A                      A                      A
 Frequencies --   1501.9473              1640.8661              1701.0513
 Red. masses --      1.0324                 1.0920                 9.8464
 Frc consts  --      1.3722                 1.7324                16.7866
 IR Inten    --     16.3582                59.6063               871.5044

                     34                     35                     36
                      A                      A                      A
 Frequencies --   3012.6538              3065.4440              3140.3800
 Red. masses --      1.0839                 1.0331                 1.1044
 Frc consts  --      5.7961                 5.7200                 6.4170
 IR Inten    --     59.1957                23.3606                 9.7394

                     37                     38                     39
                      A                      A                      A
 Frequencies --   3161.8777              3526.1494              3613.2100
 Red. masses --      1.1053                 1.0501                 1.0972
 Frc consts  --      6.5107                 7.6928                 8.4400
 IR Inten    --     10.5169                74.3903                56.8110

 - Thermochemistry -
 -------------------
 Temperature   298.150 Kelvin.  Pressure   1.00000 Atm.
 Atom     1 has atomic number  6 and mass  12.00000

 Molecular mass:   276.85046 amu.
 Principal axes and moments of inertia in atomic units:
                           1         2         3
     Eigenvalues --  2328.973923218.536564180.57008
           X            0.99956   0.00356  -0.02947
           Y           -0.00184   0.99830   0.05826
           Z            0.02963  -0.05818   0.99787
 This molecule is an asymmetric top.
 Rotational symmetry number  1.
 Warning -- assumption of classical behavior for rotation
           may cause significant error
 Rotational temperatures (Kelvin)      0.03719     0.02691     0.02072
 Rotational constants (GHZ):           0.77491     0.56073     0.43170
    1 imaginary frequencies ignored.
 Zero-point vibrational energy     262520.3 (Joules/Mol)
                                   62.74386 (Kcal/Mol)
 Warning -- explicit consideration of  15 degrees of freedom as
           vibrations may cause significant error
 Vibrational temperatures:     67.69    81.96   145.23   180.11   196.45
          (Kelvin)            248.46   280.07   312.13   347.58   381.81
                              433.81   445.18   533.45   747.95   873.54
                              897.85  1112.83  1201.33  1422.41  1451.13
                             1462.26  1561.95  1725.43  1731.27  1927.28
                             1985.65  2083.87  2111.54  2143.86  2160.97
                             2360.84  2447.43  4334.54  4410.49  4518.31
                             4549.24  5073.34  5198.60

 Zero-point correction=                           0.099989 (Hartree/Particle)
 Thermal correction to Energy=                    0.111289
 Thermal correction to Enthalpy=                  0.112233
 Thermal correction to Gibbs Free Energy=         0.060152
 Sum of electronic and zero-point Energies=          -5894.511486
 Sum of electronic and thermal Energies=             -5894.500185
 Sum of electronic and thermal Enthalpies=           -5894.499241
 Sum of electronic and thermal Free Energies=        -5894.551323

                     E (Thermal)             CV                S
                      KCal/Mol        Cal/Mol-Kelvin    Cal/Mol-Kelvin
 Total                   69.835             36.582            109.614
 Electronic               0.000              0.000              0.000
 Translational            0.889              2.981             42.753
 Rotational               0.889              2.981             31.816
 Vibrational             68.057             30.620             35.045
 Vibration     1          0.595              1.979              4.938
 Vibration     2          0.596              1.975              4.560
 Vibration     3          0.604              1.948              3.436
 Vibration     4          0.610              1.928              3.019
 Vibration     5          0.614              1.917              2.852
 Vibration     6          0.626              1.876              2.406
 Vibration     7          0.635              1.847              2.183
 Vibration     8          0.646              1.815              1.984
 Vibration     9          0.658              1.777              1.791
 Vibration    10          0.671              1.737              1.626
 Vibration    11          0.694              1.671              1.408
 Vibration    12          0.699              1.656              1.365
 Vibration    13          0.743              1.532              1.077
 Vibration    14          0.875              1.206              0.610
 Vibration    15          0.966              1.017              0.438

 Optimization completed.
    -- Stationary point found.
 Normal termination of Gaussian 16 at Sun Feb 21 19:27:56 2021.
