 Gaussian 16, Revision A.03,
 Gaussian 16:  ES64L-G16RevA.03 25-Dec-2016

 ----------------------------------------------------------------------
 # wB97XD def2tzvp, opt=(ts, noeigen, calcfc, maxcycles=70, maxstep=1),
  freq=noraman, scrf=(iefpcm, solvent=water)
 ----------------------------------------------------------------------

 ------------------------
 0_iteration/TS-729-0.out
 ------------------------
 Symbolic Z-matrix:
 Charge =  0 Multiplicity = 1

 SCF Done:  E(RwB97XD) =  -5435.00022828     A.U. after   15 cycles
 SCF Done:  E(RwB97XD) =  -5435.00020409     A.U. after   10 cycles
 SCF Done:  E(RwB97XD) =  -5435.00018284     A.U. after   10 cycles
 SCF Done:  E(RwB97XD) =  -5435.00016456     A.U. after   10 cycles
 SCF Done:  E(RwB97XD) =  -5435.00014931     A.U. after   10 cycles
 SCF Done:  E(RwB97XD) =  -5435.00013719     A.U. after   10 cycles
 SCF Done:  E(RwB97XD) =  -5435.00012856     A.U. after   10 cycles
 SCF Done:  E(RwB97XD) =  -5435.00012470     A.U. after   10 cycles
 SCF Done:  E(RwB97XD) =  -5435.00013202     A.U. after   10 cycles
 SCF Done:  E(RwB97XD) =  -5435.00016639     A.U. after   10 cycles
 SCF Done:  E(RwB97XD) =  -5435.00267153     A.U. after   10 cycles
 SCF Done:  E(RwB97XD) =  -5435.00270122     A.U. after   10 cycles
 SCF Done:  E(RwB97XD) =  -5435.00272476     A.U. after   10 cycles
 SCF Done:  E(RwB97XD) =  -5435.00274025     A.U. after   10 cycles
 SCF Done:  E(RwB97XD) =  -5435.00274602     A.U. after   10 cycles
 SCF Done:  E(RwB97XD) =  -5435.00274492     A.U. after   10 cycles
 SCF Done:  E(RwB97XD) =  -5435.00274183     A.U. after   10 cycles
 SCF Done:  E(RwB97XD) =  -5435.00273609     A.U. after   10 cycles
 SCF Done:  E(RwB97XD) =  -5435.00274302     A.U. after   10 cycles
 Optimization completed.
    -- Stationary point found.
 Normal termination of Gaussian 16 at Sun Feb 21 17:58:48 2021.

 ---------------------------------------------------------------------
 #N Geom=AllCheck Guess=TCheck SCRF=Check GenChk RwB97XD/def2TZVP Freq
 ---------------------------------------------------------------------

 Structure from the checkpoint file:  "/beegfs/scratch/user/q/tla25/Gau-11316.chk"
 ------------------------
 0_iteration/TS-729-0.out
 ------------------------
 Charge =  0 Multiplicity = 1

                         Standard orientation:
 ---------------------------------------------------------------------
 Center     Atomic      Atomic             Coordinates (Angstroms)
 Number     Number       Type             X           Y           Z
 ---------------------------------------------------------------------
      1          6           0        0.883117   -1.230666   -0.300080
      2          6           0        2.247566   -1.005457   -0.635910
      3          8           0        3.072777   -1.892439   -0.840520
      4          6           0       -0.036521   -0.248287   -0.006949
      5          6           0        1.259160    0.303454    2.454134
      6          1           0        1.645751    1.259980    2.108148
      7          1           0        1.266697    0.284155    3.543473
      8          1           0        1.896970   -0.499205    2.081814
      9          7           0       -0.082576    0.105703    1.928994
     10          1           0       -0.509418   -0.732890    2.306714
     11          1           0       -0.695797    0.890336    2.121043
     12         35           0       -1.894911   -0.745267   -0.177396
     13         35           0        0.270761    1.559305   -0.596353
     14          1           0        0.557779   -2.258959   -0.199669
     15          1           0        2.559138    0.050592   -0.726284
 ---------------------------------------------------------------------

 SCF Done:  E(RwB97XD) =  -5435.00274302     A.U. after    1 cycles

 The electronic state is 1-A.
 Alpha  occ. eigenvalues -- -483.14788-483.14561 -62.69629 -62.69414 -56.48763
 Alpha  occ. eigenvalues --  -56.48544 -56.48381 -56.48372 -56.48166 -56.48156
 Alpha  occ. eigenvalues --  -19.21854 -14.49462 -10.44535 -10.35651 -10.32100
 Alpha  occ. eigenvalues --  -10.27322  -8.83739  -8.83530  -6.65946  -6.65729
 Alpha  occ. eigenvalues --   -6.64728  -6.64700  -6.64526  -6.64493  -2.76324
 Alpha  occ. eigenvalues --   -2.76108  -2.75974  -2.75953  -2.75765  -2.75740
 Alpha  occ. eigenvalues --   -2.74968  -2.74968  -2.74767  -2.74766  -1.12133
 Alpha  occ. eigenvalues --   -1.04953  -0.96630  -0.88575  -0.85334  -0.79430
 Alpha  occ. eigenvalues --   -0.71621  -0.64524  -0.63815  -0.58162  -0.57013
 Alpha  occ. eigenvalues --   -0.55096  -0.54222  -0.49667  -0.48827  -0.47788
 Alpha  occ. eigenvalues --   -0.46372  -0.46112  -0.40861  -0.39072  -0.37766
 Alpha  occ. eigenvalues --   -0.37329  -0.32998  -0.29954
 Alpha virt. eigenvalues --    0.01323   0.03070   0.06657   0.10549   0.12967
 Alpha virt. eigenvalues --    0.14281   0.15306   0.17412   0.17640   0.18605
 Alpha virt. eigenvalues --    0.19945   0.22157   0.22594   0.24159   0.24811

 Mulliken charges:
               1
     1  C   -0.369320
     2  C    0.136499
     3  O   -0.481001
     4  C    0.130372
     5  C   -0.305179
     6  H    0.160433
     7  H    0.167507
     8  H    0.160325
     9  N   -0.335353
    10  H    0.289274
    11  H    0.298281
    12  Br  -0.046743
    13  Br  -0.045199
    14  H    0.152480
    15  H    0.087624
 Sum of Mulliken charges =  -0.00000

 Dipole moment (field-independent basis, Debye):
    X=             -4.8661    Y=              4.1933    Z=              7.4076  Tot=              9.8049
 Quadrupole moment (field-independent basis, Debye-Ang):
   XX=            -89.9967   YY=            -78.8385   ZZ=            -62.0819
   XY=             14.0058   XZ=              5.3881   YZ=             -3.5151

  Exact polarizability: 174.417 -13.326 148.358 -15.838  10.144 133.876
 Approx polarizability: 138.857  -8.749 124.973 -11.686   6.165 110.641

 ******    1 imaginary frequencies (negative Signs) ******

                      1                      2                      3
                      A                      A                      A
 Frequencies --   -354.2798                58.9283                92.1128
 Red. masses --      5.9168                 2.1608                 4.2374
 Frc consts  --      0.4376                 0.0044                 0.0212
 IR Inten    --    758.9937                 0.1366                 3.1439

                      4                      5                      6
                      A                      A                      A
 Frequencies --    127.2030               151.6400               165.5214
 Red. masses --      6.3096                 2.5701                16.1570
 Frc consts  --      0.0602                 0.0348                 0.2608
 IR Inten    --      9.8355                 0.4332                 2.8181

                      7                      8                      9
                      A                      A                      A
 Frequencies --    189.5283               199.7556               243.4285
 Red. masses --      1.9093                 1.9912                 3.1875
 Frc consts  --      0.0404                 0.0468                 0.1113
 IR Inten    --      0.7743                13.4857                 6.6137

                     10                     11                     12
                      A                      A                      A
 Frequencies --    285.1136               311.2238               377.5830
 Red. masses --      3.5271                 8.8482                 6.6358
 Frc consts  --      0.1689                 0.5050                 0.5574
 IR Inten    --     16.5751                 5.8567                27.3078

                     13                     14                     15
                      A                      A                      A
 Frequencies --    479.8779               601.6640               703.3496
 Red. masses --      4.1004                 2.5336                 1.5667
 Frc consts  --      0.5563                 0.5404                 0.4566
 IR Inten    --     50.7418                12.3478               102.3922

                     16                     17                     18
                      A                      A                      A
 Frequencies --    771.2332               791.3084               995.3268
 Red. masses --      1.8124                 3.6781                 1.0708
 Frc consts  --      0.6351                 1.3569                 0.6250
 IR Inten    --    158.2079               209.0067                30.2177

                     19                     20                     21
                      A                      A                      A
 Frequencies --   1029.4455              1036.1075              1081.6249
 Red. masses --      1.1465                 1.6051                 4.8506
 Frc consts  --      0.7158                 1.0152                 3.3435
 IR Inten    --     93.7135                13.8863                28.0100

                     22                     23                     24
                      A                      A                      A
 Frequencies --   1200.1402              1215.5761              1244.8688
 Red. masses --      2.8896                 1.4111                 1.6307
 Frc consts  --      2.4522                 1.2285                 1.4890
 IR Inten    --    350.5098                18.6986               276.0591

                     25                     26                     27
                      A                      A                      A
 Frequencies --   1340.4000              1388.4478              1454.6422
 Red. masses --      1.3274                 1.6889                 1.1937
 Frc consts  --      1.4051                 1.9182                 1.4882
 IR Inten    --      0.0658               644.5182                22.6863

                     28                     29                     30
                      A                      A                      A
 Frequencies --   1491.0588              1496.4462              1502.9362
 Red. masses --      1.0401                 2.0030                 1.1278
 Frc consts  --      1.3625                 2.6427                 1.5009
 IR Inten    --     29.7945               371.7890                70.7699

                     31                     32                     33
                      A                      A                      A
 Frequencies --   1638.8693              1681.5272              2956.7491
 Red. masses --      1.0910                 7.3652                 1.0824
 Frc consts  --      1.7265                12.2700                 5.5751
 IR Inten    --     69.0032              1109.6981                97.3900

                     34                     35                     36
                      A                      A                      A
 Frequencies --   3067.3254              3144.5528              3165.8213
 Red. masses --      1.0330                 1.1041                 1.1057
 Frc consts  --      5.7264                 6.4324                 6.5292
 IR Inten    --     22.4995                 6.0457                 9.8447

                     37                     38                     39
                      A                      A                      A
 Frequencies --   3198.1288              3516.4633              3604.2832
 Red. masses --      1.0886                 1.0504                 1.0975
 Frc consts  --      6.5598                 7.6525                 8.4004
 IR Inten    --      0.3646                70.0051                57.2983

 - Thermochemistry -
 -------------------
 Temperature   298.150 Kelvin.  Pressure   1.00000 Atm.
 Atom     1 has atomic number  6 and mass  12.00000

 Molecular mass:   242.88944 amu.
 Principal axes and moments of inertia in atomic units:
                           1         2         3
     Eigenvalues --  1909.378972666.200693133.09057
           X            0.99642  -0.08274   0.01758
           Y            0.08129   0.99413   0.07144
           Z           -0.02339  -0.06976   0.99729
 This molecule is an asymmetric top.
 Rotational symmetry number  1.
 Warning -- assumption of classical behavior for rotation
           may cause significant error
 Rotational temperatures (Kelvin)      0.04536     0.03249     0.02764
 Rotational constants (GHZ):           0.94520     0.67690     0.57603
    1 imaginary frequencies ignored.
 Zero-point vibrational energy     287105.0 (Joules/Mol)
                                   68.61975 (Kcal/Mol)
 Warning -- explicit consideration of  13 degrees of freedom as
           vibrations may cause significant error
 Vibrational temperatures:     84.78   132.53   183.02   218.18   238.15
          (Kelvin)            272.69   287.40   350.24   410.21   447.78
                              543.26   690.44   865.66  1011.96  1109.63
                             1138.52  1432.05  1481.14  1490.73  1556.22
                             1726.73  1748.94  1791.09  1928.54  1997.67
                             2092.91  2145.30  2153.05  2162.39  2357.97
                             2419.34  4254.10  4413.20  4524.31  4554.91
                             4601.39  5059.41  5185.76

 Zero-point correction=                           0.109353 (Hartree/Particle)
 Thermal correction to Energy=                    0.119401
 Thermal correction to Enthalpy=                  0.120345
 Thermal correction to Gibbs Free Energy=         0.071765
 Sum of electronic and zero-point Energies=          -5434.893390
 Sum of electronic and thermal Energies=             -5434.883343
 Sum of electronic and thermal Enthalpies=           -5434.882398
 Sum of electronic and thermal Free Energies=        -5434.930978

                     E (Thermal)             CV                S
                      KCal/Mol        Cal/Mol-Kelvin    Cal/Mol-Kelvin
 Total                   74.925             33.033            102.245
 Electronic               0.000              0.000              0.000
 Translational            0.889              2.981             42.363
 Rotational               0.889              2.981             31.145
 Vibrational             73.148             27.071             28.736
 Vibration     1          0.596              1.974              4.493
 Vibration     2          0.602              1.955              3.615
 Vibration     3          0.611              1.926              2.988
 Vibration     4          0.619              1.901              2.652
 Vibration     5          0.624              1.885              2.486
 Vibration     6          0.633              1.854              2.232
 Vibration     7          0.638              1.840              2.135
 Vibration     8          0.659              1.774              1.778
 Vibration     9          0.683              1.701              1.503
 Vibration    10          0.700              1.652              1.356
 Vibration    11          0.748              1.518              1.049
 Vibration    12          0.836              1.295              0.710
 Vibration    13          0.960              1.028              0.447

 Optimization completed.
    -- Stationary point found.
 Normal termination of Gaussian 16 at Sun Feb 21 18:07:04 2021.
