 Gaussian 16, Revision A.03,
 Gaussian 16:  ES64L-G16RevA.03 25-Dec-2016

 ----------------------------------------------------------------------
 # wB97XD def2tzvp, opt=(ts, noeigen, calcfc, maxcycles=70, maxstep=5),
  freq=noraman, scrf=(iefpcm, solvent=water)
 ----------------------------------------------------------------------

 -----------------------
 2_iteration/TS-74-2.out
 -----------------------
 Symbolic Z-matrix:
 Charge =  0 Multiplicity = 1

 SCF Done:  E(RwB97XD) =  -1017.77594468     A.U. after   15 cycles
 SCF Done:  E(RwB97XD) =  -1017.77594467     A.U. after    6 cycles
 Optimization completed.
    -- Stationary point found.
 Normal termination of Gaussian 16 at Sun Jan 31 11:13:17 2021.

 ---------------------------------------------------------------------
 #N Geom=AllCheck Guess=TCheck SCRF=Check GenChk RwB97XD/def2TZVP Freq
 ---------------------------------------------------------------------

 Structure from the checkpoint file:  "/beegfs/scratch/user/q/tla25/Gau-43133.chk"
 -----------------------
 2_iteration/TS-74-2.out
 -----------------------
 Charge =  0 Multiplicity = 1

                         Standard orientation:
 ---------------------------------------------------------------------
 Center     Atomic      Atomic             Coordinates (Angstroms)
 Number     Number       Type             X           Y           Z
 ---------------------------------------------------------------------
      1          6           0       -1.406360   -0.335155    0.147811
      2          6           0       -2.691558    0.149259    0.539857
      3          8           0       -2.831351    1.303983    0.972289
      4          6           0       -0.284061    0.472965    0.320297
      5          6           0        0.747257    2.878006   -0.932796
      6          1           0        0.619957    3.681519   -1.659525
      7          1           0        0.688790    3.296112    0.071755
      8          1           0        1.729503    2.427807   -1.066002
      9          7           0       -0.273246    1.845395   -1.074689
     10          1           0       -1.209947    2.215758   -0.963637
     11          1           0       -0.221576    1.372992   -1.968681
     12          6           0        1.123070    0.003872    0.279411
     13          6           0        1.688613   -0.607516   -0.837737
     14          6           0        3.013440   -1.011869   -0.822175
     15          6           0        3.791060   -0.818781    0.311779
     16          6           0        3.239148   -0.206301    1.426482
     17          6           0        1.916872    0.211478    1.404519
     18          1           0        1.095403   -0.761808   -1.729078
     19          1           0        3.440936   -1.479502   -1.699948
     20          1           0        4.825364   -1.138209    0.322288
     21          1           0        3.839805   -0.043109    2.312150
     22          1           0        1.493487    0.703176    2.272203
     23          1           0       -0.460890    1.231260    1.075407
     24         17           0       -1.300282   -1.873032   -0.699501
     25          6           0       -3.898960   -0.751139    0.418135
     26          1           0       -4.133059   -0.928346   -0.633977
     27          1           0       -3.720829   -1.725534    0.874585
     28          1           0       -4.749743   -0.269137    0.894984
 ---------------------------------------------------------------------

 SCF Done:  E(RwB97XD) =  -1017.77594467     A.U. after    1 cycles

 The electronic state is 1-A.
 Alpha  occ. eigenvalues -- -101.68654 -19.20804 -14.47721 -10.35686 -10.34415
 Alpha  occ. eigenvalues --  -10.31629 -10.30844 -10.30623 -10.29607 -10.29541
 Alpha  occ. eigenvalues --  -10.29418 -10.29367 -10.29330 -10.27242  -9.57193
 Alpha  occ. eigenvalues --   -7.31810  -7.30987  -7.30978  -1.11484  -1.03314
 Alpha  occ. eigenvalues --   -0.97794  -0.95745  -0.88798  -0.85623  -0.83745
 Alpha  occ. eigenvalues --   -0.82431  -0.78460  -0.73690  -0.71110  -0.68012
 Alpha  occ. eigenvalues --   -0.63280  -0.61850  -0.59857  -0.56933  -0.56196
 Alpha  occ. eigenvalues --   -0.55534  -0.54678  -0.53681  -0.52422  -0.51672
 Alpha  occ. eigenvalues --   -0.51404  -0.49504  -0.48143  -0.47622  -0.46734
 Alpha  occ. eigenvalues --   -0.46091  -0.45313  -0.43677  -0.43215  -0.42171
 Alpha  occ. eigenvalues --   -0.40673  -0.39633  -0.34268  -0.33771  -0.32529
 Alpha  occ. eigenvalues --   -0.27087
 Alpha virt. eigenvalues --    0.01840   0.04889   0.07213   0.10041   0.12183
 Alpha virt. eigenvalues --    0.13231   0.13491   0.13984   0.14861   0.15648
 Alpha virt. eigenvalues --    0.16807   0.17453   0.18358   0.18678   0.19198

 Mulliken charges:
               1
     1  C   -0.138962
     2  C    0.260930
     3  O   -0.534507
     4  C   -0.091195
     5  C   -0.278063
     6  H    0.153880
     7  H    0.150201
     8  H    0.154530
     9  N   -0.349477
    10  H    0.282287
    11  H    0.277753
    12  C    0.274246
    13  C   -0.292334
    14  C   -0.130364
    15  C   -0.145825
    16  C   -0.142349
    17  C   -0.214395
    18  H    0.156712
    19  H    0.145942
    20  H    0.147092
    21  H    0.145529
    22  H    0.144922
    23  H    0.162138
    24  Cl  -0.165920
    25  C   -0.376166
    26  H    0.139631
    27  H    0.139031
    28  H    0.124735
 Sum of Mulliken charges =  -0.00000

 Dipole moment (field-independent basis, Debye):
    X=              5.2930    Y=              3.1567    Z=             -3.8320  Tot=              7.2571
 Quadrupole moment (field-independent basis, Debye-Ang):
   XX=            -92.7384   YY=            -88.7698   ZZ=            -83.9074
   XY=              4.8458   XZ=              6.5016   YZ=             -6.4138

  Exact polarizability: 273.689  -0.761 196.648  -9.066  15.205 190.601
 Approx polarizability: 198.584  -6.402 164.555  -4.389  16.254 167.626

 ******    1 imaginary frequencies (negative Signs) ******

                      1                      2                      3
                      A                      A                      A
 Frequencies --   -348.1754                42.4324                47.5413
 Red. masses --      6.1950                 7.1161                 3.9837
 Frc consts  --      0.4425                 0.0075                 0.0053
 IR Inten    --    819.3969                 2.9567                 1.4223

                      4                      5                      6
                      A                      A                      A
 Frequencies --     67.4178                86.0472                93.8496
 Red. masses --      2.7893                 3.3692                 3.7457
 Frc consts  --      0.0075                 0.0147                 0.0194
 IR Inten    --      0.4061                 7.6446                 1.4204

                      7                      8                      9
                      A                      A                      A
 Frequencies --    114.4595               139.0463               152.2864
 Red. masses --      3.1008                 2.3878                 1.0824
 Frc consts  --      0.0239                 0.0272                 0.0148
 IR Inten    --     23.6822                 3.3384                 0.8381

                     10                     11                     12
                      A                      A                      A
 Frequencies --    189.6358               212.8269               232.2915
 Red. masses --      1.5477                 5.5059                 3.7054
 Frc consts  --      0.0328                 0.1469                 0.1178
 IR Inten    --      2.5292                31.4389                 3.0496

                     13                     14                     15
                      A                      A                      A
 Frequencies --    247.7288               303.4210               338.6968
 Red. masses --      4.8657                 3.8451                 4.6024
 Frc consts  --      0.1759                 0.2086                 0.3111
 IR Inten    --      2.8318                 2.3902                 2.2368

                     16                     17                     18
                      A                      A                      A
 Frequencies --    411.3038               423.5555               465.4727
 Red. masses --      3.9032                 2.9849                 9.6561
 Frc consts  --      0.3890                 0.3155                 1.2326
 IR Inten    --     73.2414                11.5975                13.9812

                     19                     20                     21
                      A                      A                      A
 Frequencies --    545.6017               552.0832               608.0346
 Red. masses --      2.7281                 3.8152                 1.9694
 Frc consts  --      0.4785                 0.6851                 0.4290
 IR Inten    --     50.2136                83.9812                50.3500

                     22                     23                     24
                      A                      A                      A
 Frequencies --    624.2823               636.5862               667.0284
 Red. masses --      2.8774                 5.8178                 3.3122
 Frc consts  --      0.6607                 1.3891                 0.8683
 IR Inten    --     79.3706                 1.0032                23.2642

                     25                     26                     27
                      A                      A                      A
 Frequencies --    722.0458               729.4838               798.6834
 Red. masses --      2.1762                 2.2118                 2.0923
 Frc consts  --      0.6685                 0.6935                 0.7864
 IR Inten    --     38.6618               102.4117                13.2345

                     28                     29                     30
                      A                      A                      A
 Frequencies --    850.8753               878.5823               960.1754
 Red. masses --      4.3257                 1.2465                 1.4988
 Frc consts  --      1.8452                 0.5669                 0.8141
 IR Inten    --     10.8183                 0.5978                 4.6123

                     31                     32                     33
                      A                      A                      A
 Frequencies --    977.9857              1004.3427              1014.7836
 Red. masses --      2.2123                 1.1173                 1.3856
 Frc consts  --      1.2467                 0.6640                 0.8407
 IR Inten    --     59.0219                19.4034                 1.4239

                     34                     35                     36
                      A                      A                      A
 Frequencies --   1022.4650              1026.9133              1027.6676
 Red. masses --      1.8886                 1.8370                 2.1084
 Frc consts  --      1.1633                 1.1414                 1.3119
 IR Inten    --    101.7256                31.8684                30.1340

                     37                     38                     39
                      A                      A                      A
 Frequencies --   1033.7638              1044.1858              1063.9872
 Red. masses --      1.3358                 1.8079                 2.1847
 Frc consts  --      0.8411                 1.1614                 1.4572
 IR Inten    --      3.0014                 4.9187                20.6487

                     40                     41                     42
                      A                      A                      A
 Frequencies --   1077.6029              1118.5997              1170.5667
 Red. masses --      4.2746                 1.5884                 1.1862
 Frc consts  --      2.9246                 1.1710                 0.9576
 IR Inten    --    131.7474                12.4796               155.9006

                     43                     44                     45
                      A                      A                      A
 Frequencies --   1185.8211              1206.8378              1214.6654
 Red. masses --      1.1289                 1.3959                 1.2817
 Frc consts  --      0.9353                 1.1979                 1.1142
 IR Inten    --      4.0359                25.1969                 9.4625

                     46                     47                     48
                      A                      A                      A
 Frequencies --   1219.8319              1262.4682              1331.2942
 Red. masses --      2.4681                 1.4504                 3.5630
 Frc consts  --      2.1638                 1.3620                 3.7207
 IR Inten    --     35.5832                85.0278                20.9346

                     49                     50                     51
                      A                      A                      A
 Frequencies --   1335.3625              1345.9549              1368.2793
 Red. masses --      3.3945                 1.3476                 1.3974
 Frc consts  --      3.5663                 1.4384                 1.5414
 IR Inten    --    279.0907                 2.4738                47.4600

                     52                     53                     54
                      A                      A                      A
 Frequencies --   1396.0865              1450.5839              1460.2583
 Red. masses --      1.5860                 1.6135                 1.1689
 Frc consts  --      1.8212                 2.0004                 1.4685
 IR Inten    --    103.7681               488.1774                62.9916

                     55                     56                     57
                      A                      A                      A
 Frequencies --   1469.0948              1471.9841              1490.8295
 Red. masses --      1.1344                 1.4828                 1.0417
 Frc consts  --      1.4425                 1.8930                 1.3641
 IR Inten    --     55.6174               315.1005                19.6145

                     58                     59                     60
                      A                      A                      A
 Frequencies --   1502.6669              1506.6892              1551.4225
 Red. masses --      1.8310                 1.1831                 2.5140
 Frc consts  --      2.4359                 1.5824                 3.5652
 IR Inten    --    123.5431                31.7491                14.4846

                     61                     62                     63
                      A                      A                      A
 Frequencies --   1634.0406              1647.6740              1655.8635
 Red. masses --      5.2275                 1.2001                 5.4384
 Frc consts  --      8.2237                 1.9196                 8.7856
 IR Inten    --    350.7244                77.5201                18.9748

                     64                     65                     66
                      A                      A                      A
 Frequencies --   1678.5852              3060.4279              3062.7406
 Red. masses --      5.8669                 1.0370                 1.0340
 Frc consts  --      9.7398                 5.7227                 5.7149
 IR Inten    --      0.4560                10.6153                53.1257

                     67                     68                     69
                      A                      A                      A
 Frequencies --   3129.8864              3138.8106              3160.3342
 Red. masses --      1.0991                 1.1045                 1.1050
 Frc consts  --      6.3440                 6.4115                 6.5024
 IR Inten    --     12.8318                20.6384                15.3121

                     70                     71                     72
                      A                      A                      A
 Frequencies --   3164.6496              3176.1153              3194.5763
 Red. masses --      1.1040                 1.0883                 1.0870
 Frc consts  --      6.5145                 6.4682                 6.5357
 IR Inten    --     27.9830                 2.6962                 3.9206

                     73                     74                     75
                      A                      A                      A
 Frequencies --   3200.9125              3209.9316              3218.8215
 Red. masses --      1.0883                 1.0919                 1.0949
 Frc consts  --      6.5700                 6.6287                 6.6837
 IR Inten    --      0.4306                20.1936                29.8368

                     76                     77                     78
                      A                      A                      A
 Frequencies --   3225.9416              3530.8683              3616.1056
 Red. masses --      1.0983                 1.0507                 1.0965
 Frc consts  --      6.7341                 7.7175                 8.4481
 IR Inten    --      9.0908                20.8842                47.1508

 - Thermochemistry -
 -------------------
 Temperature   298.150 Kelvin.  Pressure   1.00000 Atm.
 Atom     1 has atomic number  6 and mass  12.00000

 Molecular mass:   211.07639 amu.
 Principal axes and moments of inertia in atomic units:
                           1         2         3
     Eigenvalues --  1935.387144513.446145300.48060
           X            0.99998   0.00544  -0.00170
           Y           -0.00551   0.99907  -0.04283
           Z            0.00147   0.04284   0.99908
 This molecule is an asymmetric top.
 Rotational symmetry number  1.
 Warning -- assumption of classical behavior for rotation
           may cause significant error
 Rotational temperatures (Kelvin)      0.04475     0.01919     0.01634
 Rotational constants (GHZ):           0.93250     0.39986     0.34049
    1 imaginary frequencies ignored.
 Zero-point vibrational energy     605314.9 (Joules/Mol)
                                  144.67374 (Kcal/Mol)
 Warning -- explicit consideration of  20 degrees of freedom as
           vibrations may cause significant error
 Vibrational temperatures:     61.05    68.40    97.00   123.80   135.03
          (Kelvin)            164.68   200.06   219.11   272.84   306.21
                              334.22   356.43   436.56   487.31   591.77
                              609.40   669.71   785.00   794.32   874.83
                              898.20   915.91   959.71  1038.86  1049.56
                             1149.13  1224.22  1264.08  1381.48  1407.10
                             1445.03  1460.05  1471.10  1477.50  1478.58
                             1487.36  1502.35  1530.84  1550.43  1609.42
                             1684.18  1706.13  1736.37  1747.63  1755.07
                             1816.41  1915.44  1921.29  1936.53  1968.65
                             2008.66  2087.07  2100.99  2113.70  2117.86
                             2144.97  2162.00  2167.79  2232.15  2351.02
                             2370.64  2382.42  2415.11  4403.27  4406.60
                             4503.21  4516.05  4547.02  4553.22  4569.72
                             4596.28  4605.40  4618.38  4631.17  4641.41
                             5080.13  5202.77

 Zero-point correction=                           0.230552 (Hartree/Particle)
 Thermal correction to Energy=                    0.245087
 Thermal correction to Enthalpy=                  0.246032
 Thermal correction to Gibbs Free Energy=         0.187743
 Sum of electronic and zero-point Energies=          -1017.545392
 Sum of electronic and thermal Energies=             -1017.530857
 Sum of electronic and thermal Enthalpies=           -1017.529913
 Sum of electronic and thermal Free Energies=        -1017.588202

                     E (Thermal)             CV                S
                      KCal/Mol        Cal/Mol-Kelvin    Cal/Mol-Kelvin
 Total                  153.795             52.461            122.679
 Electronic               0.000              0.000              0.000
 Translational            0.889              2.981             41.945
 Rotational               0.889              2.981             32.204
 Vibrational            152.017             46.500             48.530
 Vibration     1          0.595              1.980              5.142
 Vibration     2          0.595              1.979              4.917
 Vibration     3          0.598              1.970              4.227
 Vibration     4          0.601              1.959              3.748
 Vibration     5          0.603              1.954              3.578
 Vibration     6          0.607              1.937              3.192
 Vibration     7          0.615              1.914              2.817
 Vibration     8          0.619              1.900              2.643
 Vibration     9          0.633              1.854              2.231
 Vibration    10          0.644              1.821              2.019
 Vibration    11          0.653              1.792              1.861
 Vibration    12          0.661              1.767              1.747
 Vibration    13          0.695              1.667              1.398
 Vibration    14          0.719              1.598              1.218
 Vibration    15          0.775              1.446              0.922
 Vibration    16          0.786              1.419              0.880
 Vibration    17          0.823              1.327              0.750
 Vibration    18          0.901              1.149              0.553
 Vibration    19          0.907              1.135              0.540
 Vibration    20          0.967              1.015              0.436

 Optimization completed.
    -- Stationary point found.
 Normal termination of Gaussian 16 at Sun Jan 31 11:58:28 2021.
