 Gaussian 16, Revision A.03,
 Gaussian 16:  ES64L-G16RevA.03 25-Dec-2016

 ----------------------------------------------------------------------
 # wB97XD def2tzvp, opt=(ts, noeigen, calcfc, maxcycles=70, maxstep=8),
  freq=noraman, scrf=(iefpcm, solvent=water)
 ----------------------------------------------------------------------

 -----------------------
 1_iteration/TS-77-1.out
 -----------------------
 Symbolic Z-matrix:
 Charge =  0 Multiplicity = 1

 SCF Done:  E(RwB97XD) =  -1073.14586869     A.U. after   14 cycles
 SCF Done:  E(RwB97XD) =  -1073.14588799     A.U. after   10 cycles
 SCF Done:  E(RwB97XD) =  -1073.14589748     A.U. after   10 cycles
 SCF Done:  E(RwB97XD) =  -1073.14589411     A.U. after   10 cycles
 SCF Done:  E(RwB97XD) =  -1073.14589029     A.U. after   10 cycles
 SCF Done:  E(RwB97XD) =  -1073.14589580     A.U. after   10 cycles
 SCF Done:  E(RwB97XD) =  -1073.14589543     A.U. after    7 cycles
 SCF Done:  E(RwB97XD) =  -1073.14589560     A.U. after    7 cycles
 SCF Done:  E(RwB97XD) =  -1073.14589555     A.U. after    6 cycles
 Optimization completed.
    -- Stationary point found.
 Normal termination of Gaussian 16 at Sun Jan 31 09:59:15 2021.

 ---------------------------------------------------------------------
 #N Geom=AllCheck Guess=TCheck SCRF=Check GenChk RwB97XD/def2TZVP Freq
 ---------------------------------------------------------------------

 Structure from the checkpoint file:  "/beegfs/scratch/user/q/tla25/Gau-111341.chk"
 -----------------------
 1_iteration/TS-77-1.out
 -----------------------
 Charge =  0 Multiplicity = 1

                         Standard orientation:
 ---------------------------------------------------------------------
 Center     Atomic      Atomic             Coordinates (Angstroms)
 Number     Number       Type             X           Y           Z
 ---------------------------------------------------------------------
      1          6           0        0.941207   -0.332169   -0.168676
      2          6           0        2.269601    0.096479   -0.483578
      3          8           0        2.475044    1.236592   -0.959602
      4          6           0       -0.123476    0.550144   -0.450765
      5          6           0        0.169035    1.812059    2.019954
      6          1           0        0.607797    2.676714    2.516464
      7          1           0       -0.806182    1.606127    2.453861
      8          1           0        0.821952    0.950315    2.162339
      9          7           0        0.029938    2.043516    0.585354
     10          1           0       -0.710377    2.701890    0.369284
     11          1           0        0.903789    2.384710    0.188850
     12          6           0       -1.560712    0.159504   -0.368083
     13          6           0       -2.153192   -0.337329    0.791569
     14          6           0       -3.499611   -0.665911    0.809873
     15          6           0       -4.274307   -0.512712   -0.331312
     16          6           0       -3.695478   -0.019000   -1.490698
     17          6           0       -2.351568    0.322033   -1.503426
     18          1           0       -1.563116   -0.475323    1.686273
     19          1           0       -3.944526   -1.046455    1.720570
     20          1           0       -5.324741   -0.774140   -0.315207
     21          1           0       -4.290899    0.108227   -2.385840
     22          1           0       -1.907810    0.718321   -2.409110
     23          1           0        0.077233    1.114939   -1.356127
     24         17           0        0.726968   -1.796959    0.790379
     25          7           0        3.318690   -0.734108   -0.236771
     26          6           0        4.666934   -0.388091   -0.614397
     27          1           0        3.121238   -1.682956    0.023540
     28          1           0        4.790635   -0.321314   -1.699329
     29          1           0        4.953728    0.571810   -0.183563
     30          1           0        5.341459   -1.153193   -0.234475
 ---------------------------------------------------------------------

 SCF Done:  E(RwB97XD) =  -1073.14589555     A.U. after    1 cycles

 The electronic state is 1-A.
 Alpha  occ. eigenvalues -- -101.68496 -19.19416 -14.49038 -14.43868 -10.36872
 Alpha  occ. eigenvalues --  -10.34366 -10.31825 -10.30720 -10.30392 -10.29457
 Alpha  occ. eigenvalues --  -10.29435 -10.29376 -10.29304 -10.29251 -10.29218
 Alpha  occ. eigenvalues --   -9.57016  -7.31624  -7.30833  -7.30792  -1.11832
 Alpha  occ. eigenvalues --   -1.04590  -1.00681  -0.97485  -0.94985  -0.88569
 Alpha  occ. eigenvalues --   -0.85490  -0.82951  -0.80326  -0.78734  -0.72790
 Alpha  occ. eigenvalues --   -0.70947  -0.68076  -0.65354  -0.63514  -0.60655
 Alpha  occ. eigenvalues --   -0.59744  -0.57843  -0.56066  -0.55133  -0.54214
 Alpha  occ. eigenvalues --   -0.53834  -0.52538  -0.51401  -0.50893  -0.49647
 Alpha  occ. eigenvalues --   -0.48255  -0.47701  -0.47358  -0.46536  -0.45821
 Alpha  occ. eigenvalues --   -0.44393  -0.43108  -0.42697  -0.41239  -0.39615
 Alpha  occ. eigenvalues --   -0.34136  -0.33746  -0.33547  -0.32840  -0.25532
 Alpha virt. eigenvalues --    0.03282   0.05011   0.09485   0.10403   0.12121
 Alpha virt. eigenvalues --    0.13050   0.13317   0.14282   0.15582   0.15714
 Alpha virt. eigenvalues --    0.16829   0.17121   0.18037   0.18098   0.19352

 Mulliken charges:
               1
     1  C   -0.288553
     2  C    0.385343
     3  O   -0.610526
     4  C    0.049569
     5  C   -0.318670
     6  H    0.159718
     7  H    0.160399
     8  H    0.158313
     9  N   -0.257130
    10  H    0.284858
    11  H    0.281288
    12  C    0.214374
    13  C   -0.299771
    14  C   -0.133453
    15  C   -0.155020
    16  C   -0.132462
    17  C   -0.248806
    18  H    0.177373
    19  H    0.144479
    20  H    0.145808
    21  H    0.144820
    22  H    0.144060
    23  H    0.142445
    24  Cl  -0.188780
    25  N   -0.340720
    26  C   -0.245369
    27  H    0.244100
    28  H    0.119958
    29  H    0.124927
    30  H    0.137427
 Sum of Mulliken charges =  -0.00000

 Dipole moment (field-independent basis, Debye):
    X=             -3.7021    Y=              3.4256    Z=              2.9847  Tot=              5.8608
 Quadrupole moment (field-independent basis, Debye-Ang):
   XX=            -88.3970   YY=            -90.6390   ZZ=            -92.0257
   XY=             -9.0279   XZ=              4.9723   YZ=              5.3376

  Exact polarizability: 282.082  -0.618 194.701  -4.900 -14.710 201.885
 Approx polarizability: 205.962   2.739 168.236  -1.912 -16.227 175.287

 ******    1 imaginary frequencies (negative Signs) ******

                      1                      2                      3
                      A                      A                      A
 Frequencies --   -362.4779                36.8492                44.8927
 Red. masses --      6.1383                 4.0833                 3.9326
 Frc consts  --      0.4752                 0.0033                 0.0047
 IR Inten    --    742.6596                 1.4546                 0.7447

                      4                      5                      6
                      A                      A                      A
 Frequencies --     56.3326                84.9718                90.3513
 Red. masses --      3.3617                 3.0726                 3.1851
 Frc consts  --      0.0063                 0.0131                 0.0153
 IR Inten    --     11.6271                24.8964                 3.4315

                      7                      8                      9
                      A                      A                      A
 Frequencies --     99.4333               130.7796               137.3216
 Red. masses --      1.9243                 2.1341                 3.4413
 Frc consts  --      0.0112                 0.0215                 0.0382
 IR Inten    --     11.7538                28.8210                 5.4038

                     10                     11                     12
                      A                      A                      A
 Frequencies --    144.8513               195.4070               228.4989
 Red. masses --      2.8131                 5.1850                 1.5495
 Frc consts  --      0.0348                 0.1166                 0.0477
 IR Inten    --     39.0408                 2.2101                 1.0374

                     13                     14                     15
                      A                      A                      A
 Frequencies --    246.3748               268.0519               282.3375
 Red. masses --      5.1403                 4.8518                 2.2226
 Frc consts  --      0.1838                 0.2054                 0.1044
 IR Inten    --      2.4795                 8.6508                42.6408

                     16                     17                     18
                      A                      A                      A
 Frequencies --    311.2386               314.4307               411.6593
 Red. masses --      4.4972                 3.5630                 1.2172
 Frc consts  --      0.2567                 0.2075                 0.1215
 IR Inten    --     20.9954                20.9906               115.8529

                     19                     20                     21
                      A                      A                      A
 Frequencies --    427.4926               440.8751               461.2844
 Red. masses --      2.9883                 4.2617                12.5772
 Frc consts  --      0.3218                 0.4880                 1.5768
 IR Inten    --      3.2283                38.8337                13.1422

                     22                     23                     24
                      A                      A                      A
 Frequencies --    576.8544               589.1030               635.3035
 Red. masses --      3.6637                 3.5674                 6.3592
 Frc consts  --      0.7183                 0.7294                 1.5122
 IR Inten    --    114.8212                43.4256                 0.8655

                     25                     26                     27
                      A                      A                      A
 Frequencies --    701.7933               730.0933               740.3781
 Red. masses --      2.8517                 1.6462                 2.9047
 Frc consts  --      0.8275                 0.5170                 0.9381
 IR Inten    --     34.5027                74.2285                95.4152

                     28                     29                     30
                      A                      A                      A
 Frequencies --    756.3533               783.4156               803.4201
 Red. masses --      3.3047                 6.5784                 2.1508
 Frc consts  --      1.1139                 2.3788                 0.8180
 IR Inten    --     24.6664                26.0357                15.5623

                     31                     32                     33
                      A                      A                      A
 Frequencies --    872.5769               881.7965               965.0259
 Red. masses --      3.2400                 1.2451                 1.4367
 Frc consts  --      1.4535                 0.5704                 0.7883
 IR Inten    --     24.2557                 0.3907                 2.0510

                     34                     35                     36
                      A                      A                      A
 Frequencies --   1003.5582              1016.8360              1027.5201
 Red. masses --      3.1007                 1.3947                 4.9855
 Frc consts  --      1.8399                 0.8496                 3.1013
 IR Inten    --      6.2203                 0.6654                 2.2241

                     37                     38                     39
                      A                      A                      A
 Frequencies --   1031.6989              1034.5533              1045.5205
 Red. masses --      1.1427                 1.3335                 3.3938
 Frc consts  --      0.7166                 0.8409                 2.1857
 IR Inten    --     40.4357                 3.5686               163.6331

                     40                     41                     42
                      A                      A                      A
 Frequencies --   1064.6035              1093.0962              1116.5578
 Red. masses --      2.1543                 1.1716                 1.6377
 Frc consts  --      1.4386                 0.8248                 1.2029
 IR Inten    --      7.7280                80.8031                 7.2522

                     43                     44                     45
                      A                      A                      A
 Frequencies --   1153.8837              1163.0268              1180.8043
 Red. masses --      1.3088                 3.2386                 1.7866
 Frc consts  --      1.0267                 2.5810                 1.4677
 IR Inten    --      7.0435                66.6911                27.4431

                     46                     47                     48
                      A                      A                      A
 Frequencies --   1185.3600              1214.1001              1223.3359
 Red. masses --      1.1352                 1.1337                 2.1076
 Frc consts  --      0.9398                 0.9846                 1.8584
 IR Inten    --      0.4824                10.3777                27.0584

                     49                     50                     51
                      A                      A                      A
 Frequencies --   1236.5170              1249.9860              1300.0524
 Red. masses --      1.4378                 2.0291                 1.2323
 Frc consts  --      1.2952                 1.8679                 1.2272
 IR Inten    --    112.8989                69.1334                68.5311

                     52                     53                     54
                      A                      A                      A
 Frequencies --   1328.4321              1334.5292              1360.0835
 Red. masses --      2.4064                 3.6429                 1.3425
 Frc consts  --      2.5021                 3.8225                 1.4632
 IR Inten    --    234.4994               157.5015                24.9167

                     55                     56                     57
                      A                      A                      A
 Frequencies --   1368.2525              1444.6867              1452.9261
 Red. masses --      1.3604                 1.9772                 1.2510
 Frc consts  --      1.5006                 2.4313                 1.5560
 IR Inten    --     51.3335               310.7785                17.3494

                     58                     59                     60
                      A                      A                      A
 Frequencies --   1461.5504              1477.3421              1497.7836
 Red. masses --      1.4360                 1.0739                 1.0413
 Frc consts  --      1.8073                 1.3809                 1.3764
 IR Inten    --    108.5758                26.4589                19.3073

                     61                     62                     63
                      A                      A                      A
 Frequencies --   1502.7942              1508.6413              1510.2878
 Red. masses --      2.1441                 1.0942                 1.0624
 Frc consts  --      2.8530                 1.4672                 1.4277
 IR Inten    --     37.7015                28.4444                 1.3676

                     64                     65                     66
                      A                      A                      A
 Frequencies --   1551.1330              1562.3673              1600.6175
 Red. masses --      2.4626                 2.1987                 4.3099
 Frc consts  --      3.4910                 3.1621                 6.5056
 IR Inten    --      2.6970               815.3960               510.0705

                     67                     68                     69
                      A                      A                      A
 Frequencies --   1648.3216              1654.9745              1679.0917
 Red. masses --      1.1407                 5.5307                 5.8917
 Frc consts  --      1.8260                 8.9251                 9.7868
 IR Inten    --     14.5854                 0.7274                 0.1261

                     70                     71                     72
                      A                      A                      A
 Frequencies --   3036.7132              3071.6133              3104.1821
 Red. masses --      1.0432                 1.0335                 1.0948
 Frc consts  --      5.6679                 5.7449                 6.2158
 IR Inten    --    107.8540                32.5641                46.6947

                     73                     74                     75
                      A                      A                      A
 Frequencies --   3147.1077              3149.5155              3153.6371
 Red. masses --      1.1050                 1.0880                 1.1022
 Frc consts  --      6.4481                 6.3586                 6.4588
 IR Inten    --     10.5119                 8.1400                26.8643

                     76                     77                     78
                      A                      A                      A
 Frequencies --   3175.7008              3192.6505              3200.1685
 Red. masses --      1.1049                 1.0873                 1.0886
 Frc consts  --      6.5654                 6.5298                 6.5684
 IR Inten    --     14.0104                 5.0000                 1.7260

                     79                     80                     81
                      A                      A                      A
 Frequencies --   3210.0614              3221.0848              3235.8286
 Red. masses --      1.0929                 1.0974                 1.0939
 Frc consts  --      6.6353                 6.7082                 6.7482
 IR Inten    --     26.8610                25.0546                 5.1875

                     82                     83                     84
                      A                      A                      A
 Frequencies --   3469.6016              3576.4736              3680.3402
 Red. masses --      1.0560                 1.0924                 1.0775
 Frc consts  --      7.4901                 8.2324                 8.5988
 IR Inten    --     60.1877                80.3623                67.8613

 - Thermochemistry -
 -------------------
 Temperature   298.150 Kelvin.  Pressure   1.00000 Atm.
 Atom     1 has atomic number  6 and mass  12.00000

 Molecular mass:   226.08729 amu.
 Principal axes and moments of inertia in atomic units:
                           1         2         3
     Eigenvalues --  1806.742935915.470096209.92765
           X            1.00000   0.00013  -0.00207
           Y            0.00013   0.99195   0.12665
           Z            0.00207  -0.12665   0.99195
 This molecule is an asymmetric top.
 Rotational symmetry number  1.
 Warning -- assumption of classical behavior for rotation
           may cause significant error
 Rotational temperatures (Kelvin)      0.04794     0.01464     0.01395
 Rotational constants (GHZ):           0.99889     0.30509     0.29062
    1 imaginary frequencies ignored.
 Zero-point vibrational energy     654112.4 (Joules/Mol)
                                  156.33662 (Kcal/Mol)
 Warning -- explicit consideration of  22 degrees of freedom as
           vibrations may cause significant error
 Vibrational temperatures:     53.02    64.59    81.05   122.26   130.00
          (Kelvin)            143.06   188.16   197.58   208.41   281.15
                              328.76   354.48   385.67   406.22   447.80
                              452.40   592.29   615.07   634.32   663.69
                              829.96   847.59   914.06  1009.72  1050.44
                             1065.24  1088.22  1127.16  1155.94  1255.44
                             1268.71  1388.46  1443.90  1463.00  1478.37
                             1484.38  1488.49  1504.27  1531.73  1572.72
                             1606.48  1660.18  1673.34  1698.91  1705.47
                             1746.82  1760.11  1779.07  1798.45  1870.49
                             1911.32  1920.09  1956.86  1968.61  2078.58
                             2090.44  2102.85  2125.57  2154.98  2162.19
                             2170.60  2172.97  2231.73  2247.90  2302.93
                             2371.57  2381.14  2415.84  4369.15  4419.37
                             4466.23  4527.99  4531.45  4537.38  4569.13
                             4593.51  4604.33  4618.56  4634.42  4655.64
                             4991.98  5145.75  5295.19

 Zero-point correction=                           0.249138 (Hartree/Particle)
 Thermal correction to Energy=                    0.264872
 Thermal correction to Enthalpy=                  0.265816
 Thermal correction to Gibbs Free Energy=         0.204647
 Sum of electronic and zero-point Energies=          -1072.896757
 Sum of electronic and thermal Energies=             -1072.881024
 Sum of electronic and thermal Enthalpies=           -1072.880080
 Sum of electronic and thermal Free Energies=        -1072.941249

                     E (Thermal)             CV                S
                      KCal/Mol        Cal/Mol-Kelvin    Cal/Mol-Kelvin
 Total                  166.210             56.407            128.741
 Electronic               0.000              0.000              0.000
 Translational            0.889              2.981             42.150
 Rotational               0.889              2.981             32.562
 Vibrational            164.432             50.445             54.029
 Vibration     1          0.594              1.982              5.422
 Vibration     2          0.595              1.979              5.031
 Vibration     3          0.596              1.975              4.582
 Vibration     4          0.601              1.960              3.773
 Vibration     5          0.602              1.956              3.652
 Vibration     6          0.604              1.950              3.465
 Vibration     7          0.612              1.923              2.935
 Vibration     8          0.614              1.916              2.841
 Vibration     9          0.616              1.908              2.739
 Vibration    10          0.636              1.846              2.176
 Vibration    11          0.651              1.798              1.891
 Vibration    12          0.661              1.769              1.756
 Vibration    13          0.673              1.732              1.609
 Vibration    14          0.681              1.706              1.519
 Vibration    15          0.700              1.652              1.356
 Vibration    16          0.702              1.646              1.339
 Vibration    17          0.776              1.445              0.921
 Vibration    18          0.789              1.410              0.867
 Vibration    19          0.801              1.381              0.824
 Vibration    20          0.819              1.336              0.762
 Vibration    21          0.933              1.081              0.491
 Vibration    22          0.946              1.055              0.469

 Optimization completed.
    -- Stationary point found.
 Normal termination of Gaussian 16 at Sun Jan 31 10:54:38 2021.
