 Gaussian 16, Revision A.03,
 Gaussian 16:  ES64L-G16RevA.03 25-Dec-2016

 ----------------------------------------------------------------------
 # wB97XD def2tzvp, opt=(ts, noeigen, calcfc, maxcycles=70, maxstep=1),
  freq=noraman, scrf=(iefpcm, solvent=water)
 ----------------------------------------------------------------------

 ------------------------
 0_iteration/TS-701-0.out
 ------------------------
 Symbolic Z-matrix:
 Charge =  0 Multiplicity = 1

 SCF Done:  E(RwB97XD) =  -3034.71518476     A.U. after   15 cycles
 SCF Done:  E(RwB97XD) =  -3034.71536304     A.U. after   11 cycles
 SCF Done:  E(RwB97XD) =  -3034.71551778     A.U. after   10 cycles
 SCF Done:  E(RwB97XD) =  -3034.71564780     A.U. after   10 cycles
 SCF Done:  E(RwB97XD) =  -3034.71576137     A.U. after   10 cycles
 SCF Done:  E(RwB97XD) =  -3034.71586048     A.U. after   10 cycles
 SCF Done:  E(RwB97XD) =  -3034.71594559     A.U. after   10 cycles
 SCF Done:  E(RwB97XD) =  -3034.71601665     A.U. after   10 cycles
 SCF Done:  E(RwB97XD) =  -3034.71607472     A.U. after   10 cycles
 SCF Done:  E(RwB97XD) =  -3034.71612117     A.U. after   10 cycles
 SCF Done:  E(RwB97XD) =  -3034.71623619     A.U. after   10 cycles
 SCF Done:  E(RwB97XD) =  -3034.71623851     A.U. after   10 cycles
 SCF Done:  E(RwB97XD) =  -3034.71623921     A.U. after    8 cycles
 SCF Done:  E(RwB97XD) =  -3034.71623623     A.U. after    9 cycles
 SCF Done:  E(RwB97XD) =  -3034.71623848     A.U. after   10 cycles
 SCF Done:  E(RwB97XD) =  -3034.71623926     A.U. after    9 cycles
 SCF Done:  E(RwB97XD) =  -3034.71623879     A.U. after    8 cycles
 SCF Done:  E(RwB97XD) =  -3034.71623850     A.U. after    8 cycles
 SCF Done:  E(RwB97XD) =  -3034.71623910     A.U. after    8 cycles
 Optimization completed.
    -- Stationary point found.
 Normal termination of Gaussian 16 at Mon Feb 22 01:33:34 2021.

 ---------------------------------------------------------------------
 #N Geom=AllCheck Guess=TCheck SCRF=Check GenChk RwB97XD/def2TZVP Freq
 ---------------------------------------------------------------------

 Structure from the checkpoint file:  "/beegfs/scratch/user/q/tla25/Gau-6582.chk"
 ------------------------
 0_iteration/TS-701-0.out
 ------------------------
 Charge =  0 Multiplicity = 1

                         Standard orientation:
 ---------------------------------------------------------------------
 Center     Atomic      Atomic             Coordinates (Angstroms)
 Number     Number       Type             X           Y           Z
 ---------------------------------------------------------------------
      1          6           0        0.716566   -0.469363    0.520032
      2          6           0        2.149087   -0.233641    0.360355
      3          8           0        2.944854   -0.559365    1.252444
      4          6           0       -0.275509    0.247529   -0.110202
      5          6           0       -2.257880    2.172693    0.926940
      6          1           0       -2.727888    2.527038    1.844722
      7          1           0       -1.861825    3.025305    0.381226
      8          1           0       -3.002626    1.664009    0.317676
      9          7           0       -1.170705    1.238484    1.227087
     10          1           0       -0.387030    1.711480    1.665100
     11          1           0       -1.481378    0.517158    1.868231
     12         35           0       -1.957791   -0.850322   -0.656982
     13          6           0       -0.093797    1.286133   -1.176332
     14          1           0        0.681207    1.996431   -0.889224
     15          1           0        0.177077    0.816033   -2.122200
     16          1           0       -1.020396    1.825106   -1.354591
     17          6           0        0.374024   -1.414597    1.646516
     18          1           0       -0.651960   -1.774127    1.560693
     19          1           0        1.033528   -2.283265    1.641448
     20          1           0        0.481851   -0.948858    2.632001
     21          7           0        2.639840    0.328050   -0.785485
     22          6           0        4.063197    0.469802   -0.987060
     23          1           0        2.073375    0.289425   -1.610718
     24          1           0        4.228971    0.999647   -1.923580
     25          1           0        4.505673    1.048785   -0.177076
     26          1           0        4.577194   -0.495056   -1.031584
 ---------------------------------------------------------------------

 SCF Done:  E(RwB97XD) =  -3034.71623910     A.U. after    1 cycles

 The electronic state is 1-A.
 Alpha  occ. eigenvalues -- -483.10792 -62.65657 -56.44727 -56.44439 -56.44430
 Alpha  occ. eigenvalues --  -19.19457 -14.49506 -14.44001 -10.39604 -10.37097
 Alpha  occ. eigenvalues --  -10.32138 -10.30320 -10.29281 -10.26701 -10.25911
 Alpha  occ. eigenvalues --   -8.79759  -6.61760  -6.60860  -6.60828  -2.72155
 Alpha  occ. eigenvalues --   -2.71918  -2.71892  -2.71164  -2.71163  -1.12175
 Alpha  occ. eigenvalues --   -1.04887  -1.00628  -0.92825  -0.85122  -0.83252
 Alpha  occ. eigenvalues --   -0.79965  -0.79289  -0.74270  -0.67683  -0.65070
 Alpha  occ. eigenvalues --   -0.63810  -0.59289  -0.56503  -0.55629  -0.54917
 Alpha  occ. eigenvalues --   -0.54155  -0.51909  -0.50684  -0.49822  -0.49138
 Alpha  occ. eigenvalues --   -0.48435  -0.47309  -0.45723  -0.44760  -0.44473
 Alpha  occ. eigenvalues --   -0.42979  -0.42385  -0.36437  -0.36005  -0.33844
 Alpha  occ. eigenvalues --   -0.32633  -0.26122
 Alpha virt. eigenvalues --    0.03533   0.07012   0.09433   0.12482   0.13330
 Alpha virt. eigenvalues --    0.14133   0.14860   0.16230   0.16479   0.17824
 Alpha virt. eigenvalues --    0.18489   0.18926   0.19251   0.20132   0.20560

 Mulliken charges:
               1
     1  C   -0.128638
     2  C    0.312775
     3  O   -0.545550
     4  C    0.090345
     5  C   -0.308054
     6  H    0.163270
     7  H    0.167321
     8  H    0.157204
     9  N   -0.282848
    10  H    0.287119
    11  H    0.292175
    12  Br  -0.265083
    13  C   -0.464116
    14  H    0.174002
    15  H    0.164465
    16  H    0.164208
    17  C   -0.427020
    18  H    0.134162
    19  H    0.123827
    20  H    0.123407
    21  N   -0.307723
    22  C   -0.255333
    23  H    0.247667
    24  H    0.135931
    25  H    0.128128
    26  H    0.118362
 Sum of Mulliken charges =  -0.00000

 Dipole moment (field-independent basis, Debye):
    X=             -4.7249    Y=              7.4070    Z=             -0.8329  Tot=              8.8251
 Quadrupole moment (field-independent basis, Debye-Ang):
   XX=            -92.1961   YY=            -75.8053   ZZ=            -76.8265
   XY=             -2.1467   XZ=            -20.0841   YZ=              4.3804

  Exact polarizability: 237.996  -5.076 164.814  11.898  -0.462 165.096
 Approx polarizability: 173.042  -2.283 135.755  10.592  -0.836 138.703

 ******    1 imaginary frequencies (negative Signs) ******

                      1                      2                      3
                      A                      A                      A
 Frequencies --   -411.4637                52.6542                69.7484
 Red. masses --      6.6848                 4.3080                 3.8144
 Frc consts  --      0.6668                 0.0070                 0.0109
 IR Inten    --    539.4634                 9.2666                 8.9905

                      4                      5                      6
                      A                      A                      A
 Frequencies --     97.6002               126.9876               138.5182
 Red. masses --      1.8918                 3.3575                 1.3355
 Frc consts  --      0.0106                 0.0319                 0.0151
 IR Inten    --      0.6748                 9.5434                 3.0362

                      7                      8                      9
                      A                      A                      A
 Frequencies --    144.8076               155.5424               161.6877
 Red. masses --      1.8648                 1.2555                 3.0217
 Frc consts  --      0.0230                 0.0179                 0.0465
 IR Inten    --      1.7179                 1.1875                57.1819

                     10                     11                     12
                      A                      A                      A
 Frequencies --    195.7324               207.6771               239.8608
 Red. masses --      4.4170                 1.7258                 2.5248
 Frc consts  --      0.0997                 0.0439                 0.0856
 IR Inten    --     10.3841                32.0217                56.4939

                     13                     14                     15
                      A                      A                      A
 Frequencies --    267.7505               274.4268               320.1807
 Red. masses --      2.6472                 2.7387                 2.8652
 Frc consts  --      0.1118                 0.1215                 0.1731
 IR Inten    --      3.1584                18.0492                13.2028

                     16                     17                     18
                      A                      A                      A
 Frequencies --    340.8891               372.8091               398.0534
 Red. masses --      2.4645                 1.7956                 3.0561
 Frc consts  --      0.1687                 0.1470                 0.2853
 IR Inten    --     37.3632                23.7122                14.2447

                     19                     20                     21
                      A                      A                      A
 Frequencies --    400.7379               492.5125               524.1680
 Red. masses --      1.9623                 3.1183                 1.3869
 Frc consts  --      0.1857                 0.4457                 0.2245
 IR Inten    --     51.3066                97.1827               124.0134

                     22                     23                     24
                      A                      A                      A
 Frequencies --    564.9292               619.5427               708.6894
 Red. masses --      3.5514                 3.6260                 1.3809
 Frc consts  --      0.6678                 0.8200                 0.4086
 IR Inten    --    174.6138               133.2208               125.5216

                     25                     26                     27
                      A                      A                      A
 Frequencies --    783.5255               842.3966               946.5410
 Red. masses --      6.8389                 2.8449                 1.7865
 Frc consts  --      2.4737                 1.1895                 0.9430
 IR Inten    --     36.5119               136.9414               216.1573

                     28                     29                     30
                      A                      A                      A
 Frequencies --   1023.0936              1034.5929              1048.5016
 Red. masses --      1.2143                 2.2122                 2.0707
 Frc consts  --      0.7489                 1.3952                 1.3412
 IR Inten    --     17.7314               207.3989                22.7685

                     31                     32                     33
                      A                      A                      A
 Frequencies --   1064.5822              1070.3690              1078.0416
 Red. masses --      1.3328                 1.3659                 1.8931
 Frc consts  --      0.8899                 0.9220                 1.2963
 IR Inten    --     89.9134                 5.1162                82.0154

                     34                     35                     36
                      A                      A                      A
 Frequencies --   1101.4530              1139.3416              1151.3088
 Red. masses --      1.8085                 2.5412                 1.2973
 Frc consts  --      1.2927                 1.9436                 1.0131
 IR Inten    --    124.0500                34.4768                 7.4083

                     37                     38                     39
                      A                      A                      A
 Frequencies --   1181.8124              1222.4054              1249.0879
 Red. masses --      1.7046                 3.4599                 1.3485
 Frc consts  --      1.4027                 3.0461                 1.2396
 IR Inten    --     75.1687                11.7817                46.5050

                     40                     41                     42
                      A                      A                      A
 Frequencies --   1326.0394              1349.0676              1411.5998
 Red. masses --      3.1641                 1.2886                 1.2613
 Frc consts  --      3.2780                 1.3818                 1.4807
 IR Inten    --    954.5644                 3.8107                 8.5578

                     43                     44                     45
                      A                      A                      A
 Frequencies --   1417.6771              1455.5168              1456.2640
 Red. masses --      1.2254                 1.1819                 1.2131
 Frc consts  --      1.4510                 1.4752                 1.5158
 IR Inten    --      5.0215                 7.7395                22.3362

                     46                     47                     48
                      A                      A                      A
 Frequencies --   1475.5753              1477.4845              1483.5184
 Red. masses --      1.1896                 1.0658                 1.1338
 Frc consts  --      1.5261                 1.3708                 1.4702
 IR Inten    --    127.6313                40.9046                66.8363

                     49                     50                     51
                      A                      A                      A
 Frequencies --   1488.1655              1494.1415              1500.6779
 Red. masses --      1.0702                 1.0493                 1.0446
 Frc consts  --      1.3965                 1.3801                 1.3861
 IR Inten    --     18.0257                 9.9490                67.5914

                     52                     53                     54
                      A                      A                      A
 Frequencies --   1504.7362              1515.4096              1539.1218
 Red. masses --      1.0956                 1.0908                 1.9164
 Frc consts  --      1.4615                 1.4759                 2.6747
 IR Inten    --     26.2490                58.0734               635.7093

                     55                     56                     57
                      A                      A                      A
 Frequencies --   1558.8961              1639.9053              1646.5126
 Red. masses --      2.1304                 5.0446                 1.1476
 Frc consts  --      3.0503                 7.9931                 1.8330
 IR Inten    --    342.0232               745.6709                 8.1200

                     58                     59                     60
                      A                      A                      A
 Frequencies --   3026.8140              3037.8713              3071.8084
 Red. masses --      1.0475                 1.0449                 1.0385
 Frc consts  --      5.6541                 5.6816                 5.7733
 IR Inten    --     78.2492               101.2161                 8.1828

                     61                     62                     63
                      A                      A                      A
 Frequencies --   3075.1058              3091.9155              3113.2451
 Red. masses --      1.0354                 1.0885                 1.0912
 Frc consts  --      5.7685                 6.1310                 6.2312
 IR Inten    --     37.5938                40.0272                44.6217

                     64                     65                     66
                      A                      A                      A
 Frequencies --   3133.1671              3146.8173              3154.7825
 Red. masses --      1.1012                 1.1019                 1.1022
 Frc consts  --      6.3691                 6.4291                 6.4633
 IR Inten    --     26.4760                 9.8418                 9.4603

                     67                     68                     69
                      A                      A                      A
 Frequencies --   3155.3235              3172.7652              3183.1663
 Red. masses --      1.1038                 1.1012                 1.1053
 Frc consts  --      6.4750                 6.5314                 6.5984
 IR Inten    --     25.5431                 9.2378                 7.8413

                     70                     71                     72
                      A                      A                      A
 Frequencies --   3516.7345              3597.0837              3710.8244
 Red. masses --      1.0519                 1.0958                 1.0767
 Frc consts  --      7.6650                 8.3536                 8.7354
 IR Inten    --     28.1447                48.3508                32.0382

 - Thermochemistry -
 -------------------
 Temperature   298.150 Kelvin.  Pressure   1.00000 Atm.
 Atom     1 has atomic number  6 and mass  12.00000

 Molecular mass:   222.03677 amu.
 Principal axes and moments of inertia in atomic units:
                           1         2         3
     Eigenvalues --  1539.273224171.479014304.11321
           X            0.99828  -0.04770  -0.03414
           Y            0.03640   0.96015  -0.27710
           Z            0.04600   0.27538   0.96023
 This molecule is an asymmetric top.
 Rotational symmetry number  1.
 Warning -- assumption of classical behavior for rotation
           may cause significant error
 Rotational temperatures (Kelvin)      0.05627     0.02076     0.02012
 Rotational constants (GHZ):           1.17246     0.43264     0.41931
    1 imaginary frequencies ignored.
 Zero-point vibrational energy     584616.8 (Joules/Mol)
                                  139.72676 (Kcal/Mol)
 Warning -- explicit consideration of  22 degrees of freedom as
           vibrations may cause significant error
 Vibrational temperatures:     75.76   100.35   140.42   182.71   199.30
          (Kelvin)            208.35   223.79   232.63   281.62   298.80
                              345.11   385.23   394.84   460.67   490.46
                              536.39   572.71   576.57   708.62   754.16
                              812.81   891.38  1019.65  1127.32  1212.02
                             1361.86  1472.00  1488.55  1508.56  1531.70
                             1540.02  1551.06  1584.75  1639.26  1656.48
                             1700.36  1758.77  1797.16  1907.87  1941.01
                             2030.98  2039.72  2094.16  2095.24  2123.02
                             2125.77  2134.45  2141.14  2149.74  2159.14
                             2164.98  2180.34  2214.45  2242.90  2359.46
                             2368.96  4354.91  4370.82  4419.65  4424.39
                             4448.58  4479.27  4507.93  4527.57  4539.03
                             4539.81  4564.90  4579.87  5059.80  5175.40
                             5339.05

 Zero-point correction=                           0.222669 (Hartree/Particle)
 Thermal correction to Energy=                    0.236841
 Thermal correction to Enthalpy=                  0.237785
 Thermal correction to Gibbs Free Energy=         0.181445
 Sum of electronic and zero-point Energies=          -3034.493570
 Sum of electronic and thermal Energies=             -3034.479398
 Sum of electronic and thermal Enthalpies=           -3034.478454
 Sum of electronic and thermal Free Energies=        -3034.534794

                     E (Thermal)             CV                S
                      KCal/Mol        Cal/Mol-Kelvin    Cal/Mol-Kelvin
 Total                  148.620             49.831            118.578
 Electronic               0.000              0.000              0.000
 Translational            0.889              2.981             42.096
 Rotational               0.889              2.981             31.691
 Vibrational            146.843             43.870             44.791
 Vibration     1          0.596              1.977              4.715
 Vibration     2          0.598              1.969              4.160
 Vibration     3          0.603              1.951              3.502
 Vibration     4          0.611              1.926              2.991
 Vibration     5          0.614              1.915              2.824
 Vibration     6          0.616              1.908              2.739
 Vibration     7          0.620              1.896              2.603
 Vibration     8          0.622              1.889              2.530
 Vibration     9          0.636              1.846              2.173
 Vibration    10          0.641              1.829              2.064
 Vibration    11          0.657              1.779              1.804
 Vibration    12          0.673              1.732              1.611
 Vibration    13          0.677              1.721              1.568
 Vibration    14          0.706              1.635              1.309
 Vibration    15          0.720              1.594              1.208
 Vibration    16          0.744              1.528              1.068
 Vibration    17          0.764              1.474              0.970
 Vibration    18          0.767              1.469              0.960
 Vibration    19          0.848              1.267              0.677
 Vibration    20          0.879              1.196              0.600
 Vibration    21          0.921              1.107              0.514
 Vibration    22          0.980              0.991              0.417

 Optimization completed.
    -- Stationary point found.
 Normal termination of Gaussian 16 at Mon Feb 22 02:02:44 2021.
