 Gaussian 16, Revision A.03,
 Gaussian 16:  ES64L-G16RevA.03 25-Dec-2016

 ----------------------------------------------------------------------
 # wB97XD def2tzvp, opt=(ts, noeigen, calcfc, maxcycles=70, maxstep=8),
  freq=noraman, scrf=(iefpcm, solvent=water)
 ----------------------------------------------------------------------

 ------------------------
 1_iteration/TS-733-1.out
 ------------------------
 Symbolic Z-matrix:
 Charge =  0 Multiplicity = 1

 SCF Done:  E(RwB97XD) =  -5529.69526861     A.U. after   15 cycles
 SCF Done:  E(RwB97XD) =  -5529.69526864     A.U. after    6 cycles
 Optimization completed.
    -- Stationary point found.
 Normal termination of Gaussian 16 at Mon Feb 22 04:52:46 2021.

 ---------------------------------------------------------------------
 #N Geom=AllCheck Guess=TCheck SCRF=Check GenChk RwB97XD/def2TZVP Freq
 ---------------------------------------------------------------------

 Structure from the checkpoint file:  "/beegfs/scratch/user/q/tla25/Gau-84940.chk"
 ------------------------
 1_iteration/TS-733-1.out
 ------------------------
 Charge =  0 Multiplicity = 1

                         Standard orientation:
 ---------------------------------------------------------------------
 Center     Atomic      Atomic             Coordinates (Angstroms)
 Number     Number       Type             X           Y           Z
 ---------------------------------------------------------------------
      1          6           0        0.543474   -0.874992   -0.789747
      2          6           0        1.992288   -0.849775   -0.675744
      3          8           0        2.679758   -1.707761   -1.242330
      4          6           0       -0.392185   -0.133658   -0.111834
      5          6           0       -0.410899   -1.918359    2.003301
      6          1           0        0.264482   -2.401458    1.295200
      7          1           0       -0.086527   -2.136296    3.019295
      8          1           0       -1.419958   -2.293424    1.853314
      9          7           0       -0.380827   -0.484143    1.744473
     10          1           0       -1.140269    0.014542    2.196051
     11          1           0        0.495301   -0.077877    2.056543
     12         35           0       -2.219061   -0.555655   -0.544944
     13         35           0       -0.211823    1.837641    0.071926
     14          1           0        0.172185   -1.713836   -1.359584
     15          7           0        2.591044    0.092390    0.108275
     16          6           0        4.032152    0.199251    0.165995
     17          1           0        2.068134    0.920191    0.336730
     18          1           0        4.291857    0.987033    0.870320
     19          1           0        4.469282   -0.736215    0.513407
     20          1           0        4.467907    0.437405   -0.808075
 ---------------------------------------------------------------------

 SCF Done:  E(RwB97XD) =  -5529.69526864     A.U. after    1 cycles

 The electronic state is 1-A.
 Alpha  occ. eigenvalues -- -483.14492-483.14097 -62.69334 -62.68947 -56.48468
 Alpha  occ. eigenvalues --  -56.48085 -56.48077 -56.48060 -56.47710 -56.47698
 Alpha  occ. eigenvalues --  -19.20017 -14.50590 -14.44699 -10.44261 -10.37924
 Alpha  occ. eigenvalues --  -10.32235 -10.30605 -10.26417  -8.83444  -8.83052
 Alpha  occ. eigenvalues --   -6.65652  -6.65188  -6.64432  -6.64408  -6.64081
 Alpha  occ. eigenvalues --   -6.64046  -2.76030  -2.75679  -2.75660  -2.75568
 Alpha  occ. eigenvalues --   -2.75264  -2.75235  -2.74674  -2.74674  -2.74342
 Alpha  occ. eigenvalues --   -2.74340  -1.12762  -1.05903  -1.01312  -0.95666
 Alpha  occ. eigenvalues --   -0.88010  -0.85090  -0.79803  -0.78984  -0.69418
 Alpha  occ. eigenvalues --   -0.66355  -0.64796  -0.59827  -0.58525  -0.56435
 Alpha  occ. eigenvalues --   -0.54686  -0.53508  -0.52045  -0.50234  -0.48871
 Alpha  occ. eigenvalues --   -0.47760  -0.47254  -0.46033  -0.44919  -0.40316
 Alpha  occ. eigenvalues --   -0.38812  -0.38175  -0.37017  -0.34301  -0.33431
 Alpha  occ. eigenvalues --   -0.28653
 Alpha virt. eigenvalues --    0.01562   0.05148   0.05910   0.09985   0.13267
 Alpha virt. eigenvalues --    0.14010   0.15356   0.16029   0.16851   0.17797
 Alpha virt. eigenvalues --    0.18856   0.19801   0.20170   0.21411   0.21850

 Mulliken charges:
               1
     1  C   -0.495345
     2  C    0.360323
     3  O   -0.547459
     4  C    0.146850
     5  C   -0.287143
     6  H    0.158050
     7  H    0.166755
     8  H    0.163034
     9  N   -0.298635
    10  H    0.303042
    11  H    0.286036
    12  Br  -0.053112
    13  Br  -0.111215
    14  H    0.153655
    15  N   -0.319376
    16  C   -0.257117
    17  H    0.236603
    18  H    0.139843
    19  H    0.130950
    20  H    0.124262
 Sum of Mulliken charges =  -0.00000

 Dipole moment (field-independent basis, Debye):
    X=             -3.3045    Y=              2.4554    Z=              8.8147  Tot=              9.7287
 Quadrupole moment (field-independent basis, Debye-Ang):
   XX=            -90.9871   YY=            -89.7716   ZZ=            -79.6846
   XY=             14.7509   XZ=              7.0369   YZ=             -8.1100

  Exact polarizability: 202.388  -3.913 176.229 -10.392   8.997 155.224
 Approx polarizability: 154.311  -3.452 146.773  -6.645  10.394 132.671

 ******    1 imaginary frequencies (negative Signs) ******

                      1                      2                      3
                      A                      A                      A
 Frequencies --   -406.8472                48.7837                67.3705
 Red. masses --      5.2260                 3.9242                 3.7403
 Frc consts  --      0.5097                 0.0055                 0.0100
 IR Inten    --    543.0506                 4.1293                13.3107

                      4                      5                      6
                      A                      A                      A
 Frequencies --     99.7922               109.3478               121.1972
 Red. masses --      1.9914                 4.5268                 1.2510
 Frc consts  --      0.0117                 0.0319                 0.0108
 IR Inten    --      2.3470                 5.5564                 7.4608

                      7                      8                      9
                      A                      A                      A
 Frequencies --    144.9999               157.6779               166.8806
 Red. masses --      1.9181                 5.0243                 4.9579
 Frc consts  --      0.0238                 0.0736                 0.0814
 IR Inten    --      4.3229                 1.6790                 2.0927

                     10                     11                     12
                      A                      A                      A
 Frequencies --    181.5445               221.7438               252.4288
 Red. masses --      2.3952                 3.7343                 5.1974
 Frc consts  --      0.0465                 0.1082                 0.1951
 IR Inten    --     16.1362                15.3545                12.6638

                     13                     14                     15
                      A                      A                      A
 Frequencies --    273.6426               299.4336               342.4800
 Red. masses --      7.1522                 3.3418                 5.4850
 Frc consts  --      0.3155                 0.1765                 0.3791
 IR Inten    --     18.4969                21.6256                28.2591

                     16                     17                     18
                      A                      A                      A
 Frequencies --    466.5972               502.4631               555.4770
 Red. masses --      2.1532                 1.6170                 2.5715
 Frc consts  --      0.2762                 0.2405                 0.4675
 IR Inten    --     14.1898               178.0370               182.8489

                     19                     20                     21
                      A                      A                      A
 Frequencies --    643.4093               664.4793               715.5955
 Red. masses --      2.1589                 2.1474                 2.2723
 Frc consts  --      0.5266                 0.5586                 0.6856
 IR Inten    --     26.2196                47.0707                59.6429

                     22                     23                     24
                      A                      A                      A
 Frequencies --    794.7648               839.1625               908.3663
 Red. masses --      5.6737                 3.5769                 2.8943
 Frc consts  --      2.1115                 1.4841                 1.4071
 IR Inten    --     93.0035               125.6304                 9.0620

                     25                     26                     27
                      A                      A                      A
 Frequencies --   1019.0029              1064.4808              1077.9180
 Red. masses --      1.0922                 1.1532                 4.6934
 Frc consts  --      0.6682                 0.7699                 3.2130
 IR Inten    --     24.5973                60.4033                78.5757

                     28                     29                     30
                      A                      A                      A
 Frequencies --   1138.5854              1153.8696              1185.9506
 Red. masses --      2.6594                 1.4923                 1.8185
 Frc consts  --      2.0313                 1.1706                 1.5069
 IR Inten    --     27.2416                 6.3376                37.4671

                     31                     32                     33
                      A                      A                      A
 Frequencies --   1232.8240              1255.8430              1310.6531
 Red. masses --      1.3781                 1.3452                 2.4885
 Frc consts  --      1.2340                 1.2500                 2.5186
 IR Inten    --     46.3693               383.8182               437.7963

                     34                     35                     36
                      A                      A                      A
 Frequencies --   1343.8333              1445.4041              1457.2413
 Red. masses --      1.3062                 1.7210                 1.2026
 Frc consts  --      1.3898                 2.1184                 1.5047
 IR Inten    --      1.6011               341.2571                19.9461

                     37                     38                     39
                      A                      A                      A
 Frequencies --   1469.7029              1476.5646              1493.5234
 Red. masses --      1.8866                 1.0675                 1.0540
 Frc consts  --      2.4010                 1.3712                 1.3852
 IR Inten    --    348.2512                26.5153                13.7817

                     40                     41                     42
                      A                      A                      A
 Frequencies --   1498.1380              1503.2679              1558.7375
 Red. masses --      1.0384                 1.0853                 1.8188
 Frc consts  --      1.3732                 1.4450                 2.6036
 IR Inten    --      8.6295                29.7386               460.9968

                     43                     44                     45
                      A                      A                      A
 Frequencies --   1633.3591              1658.1191              3045.1793
 Red. masses --      1.1107                 6.1300                 1.0422
 Frc consts  --      1.7458                 9.9298                 5.6944
 IR Inten    --    142.2043               901.3491                85.0721

                     46                     47                     48
                      A                      A                      A
 Frequencies --   3069.2449              3117.9506              3150.2216
 Red. masses --      1.0350                 1.0950                 1.1023
 Frc consts  --      5.7444                 6.2720                 6.4449
 IR Inten    --     30.6754                39.0655                 3.5167

                     49                     50                     51
                      A                      A                      A
 Frequencies --   3159.5242              3180.0894              3227.9103
 Red. masses --      1.1037                 1.1061                 1.0882
 Frc consts  --      6.4914                 6.5904                 6.6803
 IR Inten    --     22.5154                 8.3788                 1.3160

                     52                     53                     54
                      A                      A                      A
 Frequencies --   3511.6459              3596.6695              3640.9065
 Red. masses --      1.0506                 1.0971                 1.0774
 Frc consts  --      7.6332                 8.3617                 8.4148
 IR Inten    --     53.1819                75.7398               109.8257

 - Thermochemistry -
 -------------------
 Temperature   298.150 Kelvin.  Pressure   1.00000 Atm.
 Atom     1 has atomic number  6 and mass  12.00000

 Molecular mass:   271.91599 amu.
 Principal axes and moments of inertia in atomic units:
                           1         2         3
     Eigenvalues --  2152.591153905.936984786.19187
           X            0.99989  -0.00685  -0.01329
           Y            0.00598   0.99790  -0.06453
           Z            0.01370   0.06445   0.99783
 This molecule is an asymmetric top.
 Rotational symmetry number  1.
 Warning -- assumption of classical behavior for rotation
           may cause significant error
 Rotational temperatures (Kelvin)      0.04024     0.02217     0.01810
 Rotational constants (GHZ):           0.83840     0.46205     0.37707
    1 imaginary frequencies ignored.
 Zero-point vibrational energy     408249.6 (Joules/Mol)
                                   97.57399 (Kcal/Mol)
 Warning -- explicit consideration of  17 degrees of freedom as
           vibrations may cause significant error
 Vibrational temperatures:     70.19    96.93   143.58   157.33   174.38
          (Kelvin)            208.62   226.86   240.10   261.20   319.04
                              363.19   393.71   430.82   492.75   671.33
                              722.93   799.21   925.72   956.04  1029.58
                             1143.49  1207.37  1306.94  1466.12  1531.55
                             1550.88  1638.17  1660.16  1706.32  1773.76
                             1806.88  1885.74  1933.48  2079.61  2096.65
                             2114.57  2124.45  2148.85  2155.49  2162.87
                             2242.68  2350.04  2385.66  4381.33  4415.96
                             4486.04  4532.47  4545.85  4575.44  4644.24
                             5052.48  5174.81  5238.45

 Zero-point correction=                           0.155494 (Hartree/Particle)
 Thermal correction to Energy=                    0.168327
 Thermal correction to Enthalpy=                  0.169271
 Thermal correction to Gibbs Free Energy=         0.114294
 Sum of electronic and zero-point Energies=          -5529.539775
 Sum of electronic and thermal Energies=             -5529.526942
 Sum of electronic and thermal Enthalpies=           -5529.525998
 Sum of electronic and thermal Free Energies=        -5529.580975

                     E (Thermal)             CV                S
                      KCal/Mol        Cal/Mol-Kelvin    Cal/Mol-Kelvin
 Total                  105.627             42.922            115.710
 Electronic               0.000              0.000              0.000
 Translational            0.889              2.981             42.700
 Rotational               0.889              2.981             32.065
 Vibrational            103.849             36.960             40.945
 Vibration     1          0.595              1.978              4.866
 Vibration     2          0.598              1.970              4.229
 Vibration     3          0.604              1.949              3.458
 Vibration     4          0.606              1.942              3.280
 Vibration     5          0.609              1.932              3.081
 Vibration     6          0.616              1.908              2.737
 Vibration     7          0.621              1.894              2.577
 Vibration     8          0.624              1.883              2.470
 Vibration     9          0.630              1.865              2.312
 Vibration    10          0.648              1.808              1.945
 Vibration    11          0.664              1.759              1.714
 Vibration    12          0.676              1.722              1.573
 Vibration    13          0.692              1.675              1.420
 Vibration    14          0.722              1.591              1.201
 Vibration    15          0.824              1.324              0.747
 Vibration    16          0.858              1.245              0.652
 Vibration    17          0.911              1.128              0.533

 Optimization completed.
    -- Stationary point found.
 Normal termination of Gaussian 16 at Mon Feb 22 05:11:25 2021.
