 Gaussian 16, Revision A.03,
 Gaussian 16:  ES64L-G16RevA.03 25-Dec-2016

 ----------------------------------------------------------------------
 # wB97XD def2tzvp, opt=(ts, noeigen, calcfc, maxcycles=70, maxstep=8),
  freq=noraman, scrf=(iefpcm, solvent=water)
 ----------------------------------------------------------------------

 -----------------------
 1_iteration/TS-71-1.out
 -----------------------
 Symbolic Z-matrix:
 Charge =  0 Multiplicity = 1

 SCF Done:  E(RwB97XD) =  -3378.89109489     A.U. after   14 cycles
 SCF Done:  E(RwB97XD) =  -3378.89109519     A.U. after    8 cycles
 SCF Done:  E(RwB97XD) =  -3378.89109522     A.U. after    6 cycles
 Optimization completed.
    -- Stationary point found.
 Normal termination of Gaussian 16 at Sun Jan 31 00:59:01 2021.

 ---------------------------------------------------------------------
 #N Geom=AllCheck Guess=TCheck SCRF=Check GenChk RwB97XD/def2TZVP Freq
 ---------------------------------------------------------------------

 Structure from the checkpoint file:  "/beegfs/scratch/user/q/tla25/Gau-69437.chk"
 -----------------------
 1_iteration/TS-71-1.out
 -----------------------
 Charge =  0 Multiplicity = 1

                         Standard orientation:
 ---------------------------------------------------------------------
 Center     Atomic      Atomic             Coordinates (Angstroms)
 Number     Number       Type             X           Y           Z
 ---------------------------------------------------------------------
      1          6           0       -0.352353    0.048507   -0.109344
      2          6           0        0.977374    0.572192   -0.245170
      3          8           0        1.163556    1.791843   -0.385254
      4          6           0       -1.423833    0.951022   -0.216038
      5          6           0       -1.123946    1.426904    2.541153
      6          1           0       -0.294948    0.743793    2.352283
      7          1           0       -0.817407    2.165809    3.280260
      8          1           0       -1.970301    0.864328    2.926632
      9          7           0       -1.485878    2.063339    1.278507
     10          1           0       -2.385903    2.527292    1.322423
     11          1           0       -0.782821    2.746791    1.018843
     12          6           0       -2.839514    0.525005   -0.414381
     13          6           0       -3.573820   -0.161053    0.549395
     14          6           0       -4.887310   -0.529556    0.304739
     15          6           0       -5.483950   -0.226542   -0.910919
     16          6           0       -4.761511    0.457185   -1.877306
     17          6           0       -3.452110    0.837562   -1.625219
     18          1           0       -3.121821   -0.415223    1.498185
     19          1           0       -5.445303   -1.058277    1.066961
     20          1           0       -6.508866   -0.518163   -1.101674
     21          1           0       -5.219061    0.703536   -2.826971
     22          1           0       -2.896097    1.381717   -2.379362
     23          1           0       -1.161915    1.779201   -0.866213
     24         35           0       -0.624280   -1.774266    0.413463
     25          7           0        2.026162   -0.320753   -0.218462
     26          6           0        3.400033   -0.084355   -0.272103
     27          6           0        3.980591    1.184691   -0.323484
     28          6           0        5.362658    1.309483   -0.363343
     29          6           0        6.188854    0.196813   -0.354737
     30          6           0        5.611433   -1.065448   -0.304767
     31          6           0        4.236738   -1.206347   -0.264137
     32          1           0        1.765575   -1.289904   -0.140458
     33          1           0        3.348275    2.056835   -0.334015
     34          1           0        5.795002    2.302039   -0.402256
     35          1           0        7.264748    0.308537   -0.387243
     36          1           0        6.235168   -1.950691   -0.297497
     37          1           0        3.799039   -2.197521   -0.225416
 ---------------------------------------------------------------------

 SCF Done:  E(RwB97XD) =  -3378.89109522     A.U. after    1 cycles

 The electronic state is 1-A.
 Alpha  occ. eigenvalues -- -483.12496 -62.67316 -56.46417 -56.46093 -56.46078
 Alpha  occ. eigenvalues --  -19.20418 -14.49128 -14.46093 -10.38519 -10.34659
 Alpha  occ. eigenvalues --  -10.33751 -10.31864 -10.30884 -10.30126 -10.29549
 Alpha  occ. eigenvalues --  -10.29544 -10.29376 -10.29342 -10.29283 -10.28960
 Alpha  occ. eigenvalues --  -10.28802 -10.28705 -10.28118 -10.28027  -8.81420
 Alpha  occ. eigenvalues --   -6.63515  -6.62480  -6.62433  -2.73915  -2.73619
 Alpha  occ. eigenvalues --   -2.73580  -2.72743  -2.72742  -1.13239  -1.04598
 Alpha  occ. eigenvalues --   -1.03792  -0.97537  -0.95457  -0.92405  -0.87758
 Alpha  occ. eigenvalues --   -0.85607  -0.84997  -0.84590  -0.82362  -0.79230
 Alpha  occ. eigenvalues --   -0.75453  -0.71867  -0.71133  -0.70677  -0.67514
 Alpha  occ. eigenvalues --   -0.64868  -0.63573  -0.62685  -0.60351  -0.59191
 Alpha  occ. eigenvalues --   -0.57935  -0.57401  -0.55332  -0.55112  -0.53910
 Alpha  occ. eigenvalues --   -0.53137  -0.52387  -0.51792  -0.51497  -0.50951
 Alpha  occ. eigenvalues --   -0.50470  -0.49932  -0.48411  -0.47433  -0.46683
 Alpha  occ. eigenvalues --   -0.45502  -0.44687  -0.44435  -0.43104  -0.42726
 Alpha  occ. eigenvalues --   -0.42552  -0.39576  -0.39392  -0.38198  -0.34329
 Alpha  occ. eigenvalues --   -0.33675  -0.33658  -0.33535  -0.30163  -0.26200
 Alpha virt. eigenvalues --    0.02730   0.04881   0.05473   0.05733   0.08089
 Alpha virt. eigenvalues --    0.09959   0.10988   0.12769   0.13007   0.13826
 Alpha virt. eigenvalues --    0.14271   0.14988   0.16306   0.16606   0.17063

 Mulliken charges:
               1
     1  C   -0.308428
     2  C    0.431449
     3  O   -0.570480
     4  C    0.028120
     5  C   -0.298433
     6  H    0.156428
     7  H    0.160291
     8  H    0.152974
     9  N   -0.288054
    10  H    0.289732
    11  H    0.286499
    12  C    0.197483
    13  C   -0.261895
    14  C   -0.138553
    15  C   -0.153162
    16  C   -0.133490
    17  C   -0.263953
    18  H    0.164876
    19  H    0.144865
    20  H    0.146258
    21  H    0.145276
    22  H    0.145546
    23  H    0.164533
    24  Br  -0.157994
    25  N   -0.277740
    26  C    0.303437
    27  C   -0.296491
    28  C   -0.113655
    29  C   -0.200268
    30  C   -0.098714
    31  C   -0.314815
    32  H    0.236004
    33  H    0.160155
    34  H    0.140173
    35  H    0.139628
    36  H    0.142457
    37  H    0.139941
 Sum of Mulliken charges =  -0.00000

 Dipole moment (field-independent basis, Debye):
    X=             -6.1823    Y=              2.6024    Z=              3.9607  Tot=              7.7898
 Quadrupole moment (field-independent basis, Debye-Ang):
   XX=           -116.0152   YY=           -121.1835   ZZ=           -123.8986
   XY=            -13.8534   XZ=             -2.2606   YZ=              5.9365

  Exact polarizability: 435.830   4.467 298.541  -3.763 -12.809 243.125
 Approx polarizability: 306.717   7.653 258.055  -1.483 -14.038 211.503

 ******    1 imaginary frequencies (negative Signs) ******

                      1                      2                      3
                      A                      A                      A
 Frequencies --   -341.6625                18.8766                23.8455
 Red. masses --      6.0288                 4.7122                 4.3458
 Frc consts  --      0.4146                 0.0010                 0.0015
 IR Inten    --    936.5789                 0.6428                 0.9876

                      4                      5                      6
                      A                      A                      A
 Frequencies --     37.3287                52.7051                59.2046
 Red. masses --      5.0111                 5.3789                 4.5526
 Frc consts  --      0.0041                 0.0088                 0.0094
 IR Inten    --      0.2857                 7.7263                 1.9479

                      7                      8                      9
                      A                      A                      A
 Frequencies --     80.0007                95.4831                99.4918
 Red. masses --      3.8333                 4.6729                 4.4635
 Frc consts  --      0.0145                 0.0251                 0.0260
 IR Inten    --      9.1687                 9.5509                 6.3126

                     10                     11                     12
                      A                      A                      A
 Frequencies --    122.1328               140.4403               187.7150
 Red. masses --      3.2267                 3.9024                 3.8885
 Frc consts  --      0.0284                 0.0453                 0.0807
 IR Inten    --     27.4523                 8.8866                 6.8823

                     13                     14                     15
                      A                      A                      A
 Frequencies --    199.3586               214.1193               233.5046
 Red. masses --      1.4288                 5.4802                 5.0415
 Frc consts  --      0.0335                 0.1480                 0.1620
 IR Inten    --     10.6684                 7.1922                 0.3667

                     16                     17                     18
                      A                      A                      A
 Frequencies --    241.5171               272.8274               320.6081
 Red. masses --      4.3709                 3.0962                 5.1830
 Frc consts  --      0.1502                 0.1358                 0.3139
 IR Inten    --      0.4452                34.5973                20.6782

                     19                     20                     21
                      A                      A                      A
 Frequencies --    358.1749               396.5113               405.3295
 Red. masses --      7.9796                 9.8052                 5.0548
 Frc consts  --      0.6031                 0.9083                 0.4893
 IR Inten    --     13.1994                 6.8407                37.9580

                     22                     23                     24
                      A                      A                      A
 Frequencies --    423.7389               424.2020               527.5542
 Red. masses --      2.9914                 2.9523                 2.7398
 Frc consts  --      0.3165                 0.3130                 0.4493
 IR Inten    --      0.1900                 5.3331                30.0034

                     25                     26                     27
                      A                      A                      A
 Frequencies --    534.5215               556.2610               573.6507
 Red. masses --      4.2111                 1.1396                 3.5694
 Frc consts  --      0.7089                 0.2078                 0.6920
 IR Inten    --     12.1211                93.3889               127.7727

                     28                     29                     30
                      A                      A                      A
 Frequencies --    617.6675               632.6717               635.7775
 Red. masses --      3.9730                 6.2977                 6.3743
 Frc consts  --      0.8931                 1.4852                 1.5181
 IR Inten    --     28.1809                 1.7373                 2.1304

                     31                     32                     33
                      A                      A                      A
 Frequencies --    692.0462               696.5148               718.9052
 Red. masses --      2.3025                 3.2886                 1.9007
 Frc consts  --      0.6497                 0.9400                 0.5788
 IR Inten    --     93.8168                52.4480                63.0079

                     34                     35                     36
                      A                      A                      A
 Frequencies --    729.2559               766.2869               774.3228
 Red. masses --      1.6262                 8.9631                 5.3916
 Frc consts  --      0.5095                 3.1009                 1.9046
 IR Inten    --     98.7877                24.1680                 3.0042

                     37                     38                     39
                      A                      A                      A
 Frequencies --    783.1196               798.1701               861.5400
 Red. masses --      1.8213                 2.2156                 1.2650
 Frc consts  --      0.6581                 0.8316                 0.5532
 IR Inten    --     97.4291                18.0659                 0.1077

                     40                     41                     42
                      A                      A                      A
 Frequencies --    871.8194               880.8900               895.0132
 Red. masses --      5.5581                 1.2450                 3.6471
 Frc consts  --      2.4890                 0.5692                 1.7213
 IR Inten    --      2.7944                 0.4938                22.4555

                     43                     44                     45
                      A                      A                      A
 Frequencies --    930.6646               964.1421              1000.8147
 Red. masses --      1.4668                 1.4375                 1.3451
 Frc consts  --      0.7485                 0.7873                 0.7938
 IR Inten    --     14.1181                 2.7405                 0.0379

                     46                     47                     48
                      A                      A                      A
 Frequencies --   1015.3665              1015.5467              1018.4351
 Red. masses --      1.3679                 1.2787                 1.1137
 Frc consts  --      0.8309                 0.7770                 0.6806
 IR Inten    --      1.0601                 0.7293                52.8018

                     49                     50                     51
                      A                      A                      A
 Frequencies --   1018.8141              1027.3138              1033.1807
 Red. masses --      5.8514                 5.2578                 1.3466
 Frc consts  --      3.5785                 3.2693                 0.8469
 IR Inten    --      6.6464                 0.4994                 5.6929

                     52                     53                     54
                      A                      A                      A
 Frequencies --   1043.9666              1057.1436              1064.4627
 Red. masses --      3.1379                 3.1212                 2.1761
 Frc consts  --      2.0149                 2.0551                 1.4527
 IR Inten    --    198.1071                27.0119                 5.7951

                     55                     56                     57
                      A                      A                      A
 Frequencies --   1072.0524              1082.9283              1119.2341
 Red. masses --      2.2359                 1.3021                 1.5753
 Frc consts  --      1.5141                 0.8997                 1.1627
 IR Inten    --     19.1497                63.8030                22.3526

                     58                     59                     60
                      A                      A                      A
 Frequencies --   1124.8964              1182.5454              1184.8263
 Red. masses --      1.5937                 1.1204                 1.1399
 Frc consts  --      1.1882                 0.9231                 0.9428
 IR Inten    --      4.6366                 4.2408                 0.1346

                     61                     62                     63
                      A                      A                      A
 Frequencies --   1208.5642              1209.6859              1212.5192
 Red. masses --      1.8046                 1.4350                 1.2959
 Frc consts  --      1.5530                 1.2372                 1.1225
 IR Inten    --    213.2965                16.2227                77.3237

                     64                     65                     66
                      A                      A                      A
 Frequencies --   1220.4552              1234.0620              1268.7835
 Red. masses --      1.3165                 1.5483                 2.2186
 Frc consts  --      1.1553                 1.3893                 2.1043
 IR Inten    --    138.2488                41.7789               503.3436

                     67                     68                     69
                      A                      A                      A
 Frequencies --   1277.3060              1297.5030              1332.2820
 Red. masses --      1.2363                 4.5354                 4.3971
 Frc consts  --      1.1884                 4.4987                 4.5984
 IR Inten    --     38.6610               104.2141                87.8796

                     70                     71                     72
                      A                      A                      A
 Frequencies --   1350.4372              1360.3148              1363.3672
 Red. masses --      3.5223                 1.3984                 1.4771
 Frc consts  --      3.7847                 1.5246                 1.6176
 IR Inten    --    518.1784                 7.4765                26.3909

                     73                     74                     75
                      A                      A                      A
 Frequencies --   1369.4457              1441.2690              1459.2868
 Red. masses --      1.3827                 1.8855                 1.5929
 Frc consts  --      1.5278                 2.3076                 1.9986
 IR Inten    --     24.3062               313.5024               168.7320

                     76                     77                     78
                      A                      A                      A
 Frequencies --   1479.7786              1494.3652              1500.8055
 Red. masses --      2.2343                 1.0424                 2.1689
 Frc consts  --      2.8827                 1.3715                 2.8783
 IR Inten    --    434.3830                17.9782                77.7527

                     79                     80                     81
                      A                      A                      A
 Frequencies --   1502.5525              1546.3183              1552.3129
 Red. masses --      1.0729                 2.3991                 2.4664
 Frc consts  --      1.4271                 3.3799                 3.5017
 IR Inten    --      5.6681               201.3554                 7.9045

                     82                     83                     84
                      A                      A                      A
 Frequencies --   1565.4496              1631.4302              1646.3839
 Red. masses --      2.3300                 2.1392                 1.6504
 Frc consts  --      3.3643                 3.3547                 2.6357
 IR Inten    --    835.1318               511.1821                71.4674

                     85                     86                     87
                      A                      A                      A
 Frequencies --   1655.8172              1661.2474              1676.4857
 Red. masses --      5.2217                 3.9636                 6.0660
 Frc consts  --      8.4350                 6.4449                10.0450
 IR Inten    --      4.6420               130.0297               202.2509

                     88                     89                     90
                      A                      A                      A
 Frequencies --   1679.6198              3070.2938              3145.2773
 Red. masses --      5.8403                 1.0341                 1.1042
 Frc consts  --      9.7076                 5.7433                 6.4360
 IR Inten    --      1.1104                31.6100                 7.9884

                     91                     92                     93
                      A                      A                      A
 Frequencies --   3163.2643              3175.4560              3184.9050
 Red. masses --      1.0876                 1.1049                 1.0882
 Frc consts  --      6.4120                 6.5644                 6.5034
 IR Inten    --      4.9074                14.9293                14.3216

                     94                     95                     96
                      A                      A                      A
 Frequencies --   3193.5134              3195.4831              3200.9579
 Red. masses --      1.0872                 1.0882                 1.0885
 Frc consts  --      6.5329                 6.5466                 6.5712
 IR Inten    --      4.2910                 2.6470                 1.1046

                     97                     98                     99
                      A                      A                      A
 Frequencies --   3204.8004              3210.3771              3220.4854
 Red. masses --      1.0932                 1.0928                 1.0979
 Frc consts  --      6.6154                 6.6357                 6.7089
 IR Inten    --     31.8102                24.2927                25.6579

                    100                    101                    102
                      A                      A                      A
 Frequencies --   3221.0990              3231.9015              3274.5367
 Red. masses --      1.0966                 1.0946                 1.0919
 Frc consts  --      6.7037                 6.7360                 6.8980
 IR Inten    --     28.9213                 7.7207                 5.5639

                    103                    104                    105
                      A                      A                      A
 Frequencies --   3518.9674              3603.7663              3630.3296
 Red. masses --      1.0511                 1.0965                 1.0764
 Frc consts  --      7.6690                 8.3900                 8.3579
 IR Inten    --     42.3776                71.2100                93.4242

 - Thermochemistry -
 -------------------
 Temperature   298.150 Kelvin.  Pressure   1.00000 Atm.
 Atom     1 has atomic number  6 and mass  12.00000

 Molecular mass:   332.05242 amu.
 Principal axes and moments of inertia in atomic units:
                           1         2         3
     Eigenvalues --  2845.11389********************
           X            0.99998  -0.00702  -0.00057
           Y            0.00704   0.99831   0.05761
           Z            0.00016  -0.05761   0.99834
 This molecule is an asymmetric top.
 Rotational symmetry number  1.
 Warning -- assumption of classical behavior for rotation
           may cause significant error
 Rotational temperatures (Kelvin)      0.03044     0.00641     0.00599
 Rotational constants (GHZ):           0.63433     0.13364     0.12471
    1 imaginary frequencies ignored.
 Zero-point vibrational energy     792841.2 (Joules/Mol)
                                  189.49360 (Kcal/Mol)
 Warning -- explicit consideration of  27 degrees of freedom as
           vibrations may cause significant error
 Vibrational temperatures:     27.16    34.31    53.71    75.83    85.18
          (Kelvin)            115.10   137.38   143.15   175.72   202.06
                              270.08   286.83   308.07   335.96   347.49
                              392.54   461.28   515.33   570.49   583.18
                              609.67   610.33   759.03   769.06   800.34
                              825.36   888.69   910.27   914.74   995.70
                             1002.13  1034.34  1049.24  1102.52  1114.08
                             1126.73  1148.39  1239.56  1254.35  1267.40
                             1287.72  1339.02  1387.19  1439.95  1460.89
                             1461.15  1465.30  1465.85  1478.08  1486.52
                             1502.04  1520.99  1531.52  1542.44  1558.09
                             1610.33  1618.47  1701.42  1704.70  1738.85
                             1740.47  1744.54  1755.96  1775.54  1825.50
                             1837.76  1866.82  1916.86  1942.98  1957.19
                             1961.58  1970.33  2073.66  2099.59  2129.07
                             2150.06  2159.32  2161.84  2224.81  2233.43
                             2252.33  2347.26  2368.78  2382.35  2390.16
                             2412.09  2416.60  4417.47  4525.35  4551.23
                             4568.77  4582.37  4594.75  4597.59  4605.46
                             4610.99  4619.02  4633.56  4634.44  4649.99
                             4711.33  5063.01  5185.02  5223.23

 Zero-point correction=                           0.301977 (Hartree/Particle)
 Thermal correction to Energy=                    0.320781
 Thermal correction to Enthalpy=                  0.321725
 Thermal correction to Gibbs Free Energy=         0.251345
 Sum of electronic and zero-point Energies=          -3378.589118
 Sum of electronic and thermal Energies=             -3378.570314
 Sum of electronic and thermal Enthalpies=           -3378.569370
 Sum of electronic and thermal Free Energies=        -3378.639750

                     E (Thermal)             CV                S
                      KCal/Mol        Cal/Mol-Kelvin    Cal/Mol-Kelvin
 Total                  201.293             69.830            148.126
 Electronic               0.000              0.000              0.000
 Translational            0.889              2.981             43.295
 Rotational               0.889              2.981             34.674
 Vibrational            199.516             63.868             70.157
 Vibration     1          0.593              1.986              6.749
 Vibration     2          0.593              1.985              6.285
 Vibration     3          0.594              1.982              5.396
 Vibration     4          0.596              1.977              4.713
 Vibration     5          0.597              1.974              4.484
 Vibration     6          0.600              1.963              3.891
 Vibration     7          0.603              1.952              3.544
 Vibration     8          0.604              1.949              3.464
 Vibration     9          0.610              1.931              3.066
 Vibration    10          0.615              1.913              2.798
 Vibration    11          0.632              1.857              2.250
 Vibration    12          0.637              1.841              2.139
 Vibration    13          0.644              1.819              2.008
 Vibration    14          0.654              1.790              1.852
 Vibration    15          0.658              1.777              1.792
 Vibration    16          0.676              1.723              1.578
 Vibration    17          0.706              1.634              1.307
 Vibration    18          0.733              1.558              1.130
 Vibration    19          0.763              1.478              0.976
 Vibration    20          0.770              1.459              0.943
 Vibration    21          0.786              1.419              0.879
 Vibration    22          0.786              1.418              0.878
 Vibration    23          0.883              1.189              0.593
 Vibration    24          0.890              1.174              0.577
 Vibration    25          0.912              1.126              0.531
 Vibration    26          0.930              1.088              0.497
 Vibration    27          0.977              0.995              0.420

 Optimization completed.
    -- Stationary point found.
 Normal termination of Gaussian 16 at Sun Jan 31 02:56:37 2021.
