 Gaussian 16, Revision A.03,
 Gaussian 16:  ES64L-G16RevA.03 25-Dec-2016

 ----------------------------------------------------------------------
 # wB97XD def2tzvp, opt=(ts, noeigen, calcfc, maxcycles=70, maxstep=3),
  freq=noraman, scrf=(iefpcm, solvent=water)
 ----------------------------------------------------------------------

 ------------------------
 0_iteration/TS-741-0.out
 ------------------------
 Symbolic Z-matrix:
 Charge =  0 Multiplicity = 1

 SCF Done:  E(RwB97XD) =  -5569.00412933     A.U. after   15 cycles
 SCF Done:  E(RwB97XD) =  -5569.00439059     A.U. after   12 cycles
 SCF Done:  E(RwB97XD) =  -5569.00466673     A.U. after   12 cycles
 SCF Done:  E(RwB97XD) =  -5569.00488097     A.U. after   12 cycles
 SCF Done:  E(RwB97XD) =  -5569.00507187     A.U. after   12 cycles
 SCF Done:  E(RwB97XD) =  -5569.00519041     A.U. after   12 cycles
 SCF Done:  E(RwB97XD) =  -5569.00526153     A.U. after   12 cycles
 SCF Done:  E(RwB97XD) =  -5569.00526801     A.U. after   11 cycles
 SCF Done:  E(RwB97XD) =  -5569.00525377     A.U. after   12 cycles
 SCF Done:  E(RwB97XD) =  -5569.00528347     A.U. after   11 cycles
 SCF Done:  E(RwB97XD) =  -5569.00528461     A.U. after   11 cycles
 SCF Done:  E(RwB97XD) =  -5569.00528859     A.U. after   11 cycles
 SCF Done:  E(RwB97XD) =  -5569.00528617     A.U. after   10 cycles
 SCF Done:  E(RwB97XD) =  -5569.00528911     A.U. after   10 cycles
 Optimization completed.
    -- Stationary point found.
 Normal termination of Gaussian 16 at Sun Mar 28 10:41:18 2021.

 ---------------------------------------------------------------------
 #N Geom=AllCheck Guess=TCheck SCRF=Check GenChk RwB97XD/def2TZVP Freq
 ---------------------------------------------------------------------

 Structure from the checkpoint file:  "/beegfs/scratch/user/q/tla25/Gau-9911.chk"
 ------------------------
 0_iteration/TS-741-0.out
 ------------------------
 Charge =  0 Multiplicity = 1

                         Standard orientation:
 ---------------------------------------------------------------------
 Center     Atomic      Atomic             Coordinates (Angstroms)
 Number     Number       Type             X           Y           Z
 ---------------------------------------------------------------------
      1          6           0        0.525440   -0.922642   -0.647407
      2          6           0        1.976881   -0.784588   -0.466767
      3          8           0        2.751047   -1.692871   -0.782703
      4          6           0       -0.385672   -0.075507   -0.068628
      5          6           0       -0.073905   -1.340151    2.392381
      6          1           0       -1.054221   -1.809311    2.351682
      7          1           0        0.625070   -1.914489    1.783917
      8          1           0        0.278618   -1.321817    3.422855
      9          7           0       -0.157120    0.005430    1.841679
     10          1           0       -0.907150    0.555762    2.245126
     11          1           0        0.718136    0.503820    1.963555
     12         35           0       -2.242656   -0.546084   -0.174507
     13         35           0       -0.295926    1.939011   -0.305259
     14          6           0        0.086557   -2.202096   -1.324955
     15          1           0       -0.751000   -2.037456   -2.002049
     16          1           0        0.922887   -2.587117   -1.903806
     17          1           0       -0.207040   -2.982034   -0.615497
     18          7           0        2.475671    0.336791    0.139984
     19          6           0        3.906319    0.511872    0.269890
     20          1           0        1.935732    1.182582    0.064612
     21          1           0        4.409215    0.556437   -0.700065
     22          1           0        4.091754    1.439751    0.807718
     23          1           0        4.336435   -0.312493    0.836669
 ---------------------------------------------------------------------

 SCF Done:  E(RwB97XD) =  -5569.00528911     A.U. after    1 cycles

 The electronic state is 1-A.
 Alpha  occ. eigenvalues -- -483.14449-483.13337 -62.69289 -62.68185 -56.48421
 Alpha  occ. eigenvalues --  -56.48047 -56.48029 -56.47289 -56.46952 -56.46943
 Alpha  occ. eigenvalues --  -19.20359 -14.49813 -14.44678 -10.43756 -10.37991
 Alpha  occ. eigenvalues --  -10.32100 -10.30554 -10.27656 -10.27074  -8.83399
 Alpha  occ. eigenvalues --   -8.82283  -6.65599  -6.64406  -6.64386  -6.64352
 Alpha  occ. eigenvalues --   -6.63327  -6.63297  -2.75981  -2.75642  -2.75601
 Alpha  occ. eigenvalues --   -2.74766  -2.74636  -2.74636  -2.74481  -2.74456
 Alpha  occ. eigenvalues --   -2.73601  -2.73599  -1.13174  -1.05220  -1.01340
 Alpha  occ. eigenvalues --   -0.95582  -0.87376  -0.87048  -0.80184  -0.79469
 Alpha  occ. eigenvalues --   -0.76309  -0.68729  -0.65566  -0.64212  -0.59182
 Alpha  occ. eigenvalues --   -0.57711  -0.56030  -0.54976  -0.53132  -0.51649
 Alpha  occ. eigenvalues --   -0.50597  -0.49592  -0.48535  -0.47254  -0.46428
 Alpha  occ. eigenvalues --   -0.45857  -0.45032  -0.44376  -0.40096  -0.38491
 Alpha  occ. eigenvalues --   -0.37686  -0.36469  -0.34462  -0.33484  -0.27571
 Alpha virt. eigenvalues --    0.01088   0.04785   0.06127   0.10028   0.13084
 Alpha virt. eigenvalues --    0.13399   0.15159   0.15940   0.16371   0.17483
 Alpha virt. eigenvalues --    0.17982   0.19372   0.19521   0.20225   0.21017

 Mulliken charges:
               1
     1  C   -0.261675
     2  C    0.326675
     3  O   -0.528921
     4  C    0.120930
     5  C   -0.294336
     6  H    0.160498
     7  H    0.162347
     8  H    0.165948
     9  N   -0.307128
    10  H    0.297023
    11  H    0.282310
    12  Br  -0.040850
    13  Br  -0.151990
    14  C   -0.369957
    15  H    0.131982
    16  H    0.137713
    17  H    0.123967
    18  N   -0.336695
    19  C   -0.257997
    20  H    0.244301
    21  H    0.124062
    22  H    0.139537
    23  H    0.132253
 Sum of Mulliken charges =  -0.00000

 Dipole moment (field-independent basis, Debye):
    X=             -2.5338    Y=              3.0890    Z=              7.2029  Tot=              8.2367
 Quadrupole moment (field-independent basis, Debye-Ang):
   XX=            -99.1050   YY=            -97.6150   ZZ=            -82.4747
   XY=             14.3267   XZ=              4.3886   YZ=             -3.2979

  Exact polarizability: 218.335  -8.966 205.891  -8.964   6.241 169.668
 Approx polarizability: 169.745  -7.355 168.089  -6.283   6.850 143.056

 ******    1 imaginary frequencies (negative Signs) ******

                      1                      2                      3
                      A                      A                      A
 Frequencies --   -431.6670                55.8090                73.9850
 Red. masses --      5.7121                 2.7867                 3.9652
 Frc consts  --      0.6271                 0.0051                 0.0128
 IR Inten    --    500.4369                 0.6567                 1.7991

                      4                      5                      6
                      A                      A                      A
 Frequencies --     78.9864                94.9463               121.5971
 Red. masses --      2.6004                 1.2356                 3.6337
 Frc consts  --      0.0096                 0.0066                 0.0317
 IR Inten    --     21.5073                 3.4764                 1.0386

                      7                      8                      9
                      A                      A                      A
 Frequencies --    142.5876               152.7967               160.0819
 Red. masses --      3.3245                 1.7538                 1.6982
 Frc consts  --      0.0398                 0.0241                 0.0256
 IR Inten    --      8.4808                 2.8809                 1.2719

                     10                     11                     12
                      A                      A                      A
 Frequencies --    166.8903               174.1511               192.6905
 Red. masses --      2.4753                 2.4925                 3.8199
 Frc consts  --      0.0406                 0.0445                 0.0836
 IR Inten    --      0.6796                 0.2316                13.7360

                     13                     14                     15
                      A                      A                      A
 Frequencies --    225.0480               249.4006               257.4235
 Red. masses --      2.7607                 6.3938                 5.9053
 Frc consts  --      0.0824                 0.2343                 0.2306
 IR Inten    --     15.3354                43.1681                14.1845

                     16                     17                     18
                      A                      A                      A
 Frequencies --    295.3534               332.6494               393.6123
 Red. masses --      3.5273                 3.4181                 3.8984
 Frc consts  --      0.1813                 0.2229                 0.3559
 IR Inten    --     17.5414                14.9201                31.9472

                     19                     20                     21
                      A                      A                      A
 Frequencies --    470.0075               537.4394               546.7874
 Red. masses --      4.1759                 2.0082                 2.1316
 Frc consts  --      0.5435                 0.3418                 0.3755
 IR Inten    --     29.4191               187.2801               100.6779

                     22                     23                     24
                      A                      A                      A
 Frequencies --    634.0444               693.3646               753.1819
 Red. masses --      1.9577                 3.6828                 2.9721
 Frc consts  --      0.4637                 1.0432                 0.9934
 IR Inten    --      2.4765               203.7669               139.7435

                     25                     26                     27
                      A                      A                      A
 Frequencies --    792.6203               887.7092               992.7790
 Red. masses --      6.2205                 2.9745                 1.3203
 Frc consts  --      2.3025                 1.3810                 0.7667
 IR Inten    --     58.5494                17.3510                81.9605

                     28                     29                     30
                      A                      A                      A
 Frequencies --   1023.1241              1048.8062              1061.0544
 Red. masses --      1.6120                 1.1137                 2.4118
 Frc consts  --      0.9942                 0.7218                 1.5998
 IR Inten    --    123.3487                81.0744                84.0201

                     31                     32                     33
                      A                      A                      A
 Frequencies --   1067.3487              1080.0771              1149.2404
 Red. masses --      1.3824                 4.9083                 1.3107
 Frc consts  --      0.9279                 3.3736                 1.0200
 IR Inten    --      6.6455                48.3823                 7.7936

                     34                     35                     36
                      A                      A                      A
 Frequencies --   1181.6793              1211.5374              1217.7453
 Red. masses --      1.6532                 3.4468                 1.4541
 Frc consts  --      1.3601                 2.9809                 1.2704
 IR Inten    --     68.9723                 6.4059                26.1105

                     37                     38                     39
                      A                      A                      A
 Frequencies --   1305.2163              1346.1747              1399.2574
 Red. masses --      3.2302                 1.3199                 1.3808
 Frc consts  --      3.2423                 1.4093                 1.5929
 IR Inten    --    694.8043                 8.0576                29.7551

                     40                     41                     42
                      A                      A                      A
 Frequencies --   1445.8479              1457.6300              1466.8761
 Red. masses --      1.5555                 1.2059                 1.6743
 Frc consts  --      1.9158                 1.5095                 2.1226
 IR Inten    --    294.5087                18.8203               193.9802

                     43                     44                     45
                      A                      A                      A
 Frequencies --   1474.9682              1479.3615              1492.5890
 Red. masses --      1.0569                 1.0604                 1.0398
 Frc consts  --      1.3547                 1.3673                 1.3649
 IR Inten    --     39.8497                23.1233                32.5531

                     46                     47                     48
                      A                      A                      A
 Frequencies --   1498.5944              1502.1326              1503.6198
 Red. masses --      1.0389                 1.1003                 1.1887
 Frc consts  --      1.3747                 1.4628                 1.5835
 IR Inten    --     35.7710                 6.3581               178.7865

                     49                     50                     51
                      A                      A                      A
 Frequencies --   1555.8521              1625.3138              1660.3311
 Red. masses --      1.7198                 1.1191                 6.6140
 Frc consts  --      2.4528                 1.7418                10.7425
 IR Inten    --    393.9790               144.1248               745.9470

                     52                     53                     54
                      A                      A                      A
 Frequencies --   3035.2902              3045.2498              3073.1141
 Red. masses --      1.0487                 1.0432                 1.0330
 Frc consts  --      5.6925                 5.6999                 5.7480
 IR Inten    --     81.5128                85.9128                30.5226

                     55                     56                     57
                      A                      A                      A
 Frequencies --   3110.7706              3121.5952              3151.5941
 Red. masses --      1.0898                 1.0932                 1.1047
 Frc consts  --      6.2135                 6.2761                 6.4646
 IR Inten    --     33.9534                37.5693                 6.7571

                     58                     59                     60
                      A                      A                      A
 Frequencies --   3159.6571              3161.1207              3174.7925
 Red. masses --      1.0991                 1.1042                 1.1055
 Frc consts  --      6.4651                 6.5011                 6.5648
 IR Inten    --      7.9405                23.1850                 9.3234

                     61                     62                     63
                      A                      A                      A
 Frequencies --   3514.2810              3602.4617              3622.4530
 Red. masses --      1.0503                 1.0974                 1.0770
 Frc consts  --      7.6424                 8.3913                 8.3265
 IR Inten    --     48.6701                78.0212               135.0564

 - Thermochemistry -
 -------------------
 Temperature   298.150 Kelvin.  Pressure   1.00000 Atm.
 Atom     1 has atomic number  6 and mass  12.00000

 Molecular mass:   285.93164 amu.
 Principal axes and moments of inertia in atomic units:
                           1         2         3
     Eigenvalues --  2515.434063962.684745017.47265
           X            1.00000   0.00150   0.00014
           Y           -0.00151   0.99986   0.01685
           Z           -0.00012  -0.01685   0.99986
 This molecule is an asymmetric top.
 Rotational symmetry number  1.
 Warning -- assumption of classical behavior for rotation
           may cause significant error
 Rotational temperatures (Kelvin)      0.03443     0.02186     0.01726
 Rotational constants (GHZ):           0.71747     0.45543     0.35969
    1 imaginary frequencies ignored.
 Zero-point vibrational energy     481513.1 (Joules/Mol)
                                  115.08439 (Kcal/Mol)
 Warning -- explicit consideration of  20 degrees of freedom as
           vibrations may cause significant error
 Vibrational temperatures:     80.30   106.45   113.64   136.61   174.95
          (Kelvin)            205.15   219.84   230.32   240.12   250.56
                              277.24   323.79   358.83   370.37   424.95
                              478.61   566.32   676.24   773.26   786.71
                              912.25   997.60  1083.66  1140.40  1277.22
                             1428.39  1472.05  1509.00  1526.62  1535.68
                             1553.99  1653.50  1700.17  1743.13  1752.06
                             1877.92  1936.85  2013.22  2080.25  2097.20
                             2110.51  2122.15  2128.47  2147.50  2156.14
                             2161.23  2163.37  2238.52  2338.46  2388.85
                             4367.11  4381.44  4421.53  4475.71  4491.28
                             4534.44  4546.04  4548.15  4567.82  5056.27
                             5183.14  5211.90

 Zero-point correction=                           0.183399 (Hartree/Particle)
 Thermal correction to Energy=                    0.197838
 Thermal correction to Enthalpy=                  0.198783
 Thermal correction to Gibbs Free Energy=         0.140639
 Sum of electronic and zero-point Energies=          -5568.821890
 Sum of electronic and thermal Energies=             -5568.807451
 Sum of electronic and thermal Enthalpies=           -5568.806507
 Sum of electronic and thermal Free Energies=        -5568.864650

                     E (Thermal)             CV                S
                      KCal/Mol        Cal/Mol-Kelvin    Cal/Mol-Kelvin
 Total                  124.145             48.587            122.373
 Electronic               0.000              0.000              0.000
 Translational            0.889              2.981             42.850
 Rotational               0.889              2.981             32.281
 Vibrational            122.368             42.625             47.242
 Vibration     1          0.596              1.975              4.600
 Vibration     2          0.599              1.966              4.044
 Vibration     3          0.600              1.963              3.916
 Vibration     4          0.603              1.953              3.555
 Vibration     5          0.609              1.931              3.075
 Vibration     6          0.616              1.911              2.769
 Vibration     7          0.619              1.900              2.637
 Vibration     8          0.622              1.891              2.549
 Vibration     9          0.624              1.883              2.470
 Vibration    10          0.627              1.874              2.390
 Vibration    11          0.635              1.850              2.202
 Vibration    12          0.650              1.803              1.918
 Vibration    13          0.662              1.764              1.735
 Vibration    14          0.667              1.750              1.679
 Vibration    15          0.690              1.682              1.443
 Vibration    16          0.715              1.610              1.247
 Vibration    17          0.761              1.484              0.986
 Vibration    18          0.827              1.317              0.738
 Vibration    19          0.892              1.167              0.571
 Vibration    20          0.902              1.147              0.551

 Optimization completed.
    -- Stationary point found.
 Normal termination of Gaussian 16 at Sun Mar 28 11:09:58 2021.
