 Gaussian 16, Revision A.03,
 Gaussian 16:  ES64L-G16RevA.03 25-Dec-2016

 ----------------------------------------------------------------------
 # wB97XD def2tzvp, opt=(ts, noeigen, calcfc, maxcycles=70, maxstep=1),
  freq=noraman, scrf=(iefpcm, solvent=water)
 ----------------------------------------------------------------------

 ------------------------
 0_iteration/TS-717-0.out
 ------------------------
 Symbolic Z-matrix:
 Charge =  0 Multiplicity = 1

 SCF Done:  E(RwB97XD) =  -3455.01983135     A.U. after   15 cycles
 SCF Done:  E(RwB97XD) =  -3455.01978216     A.U. after   11 cycles
 SCF Done:  E(RwB97XD) =  -3455.01973783     A.U. after   11 cycles
 SCF Done:  E(RwB97XD) =  -3455.01969752     A.U. after   11 cycles
 SCF Done:  E(RwB97XD) =  -3455.01966142     A.U. after   11 cycles
 SCF Done:  E(RwB97XD) =  -3455.01963002     A.U. after   10 cycles
 SCF Done:  E(RwB97XD) =  -3455.01960371     A.U. after   10 cycles
 SCF Done:  E(RwB97XD) =  -3455.01958269     A.U. after   10 cycles
 SCF Done:  E(RwB97XD) =  -3455.01956702     A.U. after   10 cycles
 SCF Done:  E(RwB97XD) =  -3455.01955656     A.U. after   10 cycles
 SCF Done:  E(RwB97XD) =  -3455.02029309     A.U. after    9 cycles
 SCF Done:  E(RwB97XD) =  -3455.02030951     A.U. after    9 cycles
 SCF Done:  E(RwB97XD) =  -3455.02032026     A.U. after    9 cycles
 SCF Done:  E(RwB97XD) =  -3455.02032738     A.U. after    9 cycles
 SCF Done:  E(RwB97XD) =  -3455.02033216     A.U. after    9 cycles
 SCF Done:  E(RwB97XD) =  -3455.02033548     A.U. after    9 cycles
 SCF Done:  E(RwB97XD) =  -3455.02033751     A.U. after    9 cycles
 SCF Done:  E(RwB97XD) =  -3455.02033788     A.U. after    9 cycles
 SCF Done:  E(RwB97XD) =  -3455.02033786     A.U. after    7 cycles
 Optimization completed.
    -- Stationary point found.
 Normal termination of Gaussian 16 at Sun Feb 21 19:20:21 2021.

 ---------------------------------------------------------------------
 #N Geom=AllCheck Guess=TCheck SCRF=Check GenChk RwB97XD/def2TZVP Freq
 ---------------------------------------------------------------------

 Structure from the checkpoint file:  "/beegfs/scratch/user/q/tla25/Gau-94316.chk"
 ------------------------
 0_iteration/TS-717-0.out
 ------------------------
 Charge =  0 Multiplicity = 1

                         Standard orientation:
 ---------------------------------------------------------------------
 Center     Atomic      Atomic             Coordinates (Angstroms)
 Number     Number       Type             X           Y           Z
 ---------------------------------------------------------------------
      1          6           0        0.541342   -0.259030   -0.016266
      2          6           0        1.880330    0.102652   -0.464786
      3          8           0        2.098341    1.002591   -1.286414
      4          6           0       -0.619331    0.429627   -0.327012
      5          6           0       -0.118539    2.279569    1.706453
      6          1           0       -0.287875    2.581565    2.739160
      7          1           0        0.822240    1.729617    1.644634
      8          1           0       -0.056948    3.164445    1.077972
      9          7           0       -1.184978    1.410909    1.223388
     10          1           0       -1.407764    0.689885    1.900287
     11          1           0       -2.037885    1.918754    1.017337
     12         35           0       -2.272924   -0.653094   -0.471058
     13          6           0       -0.649583    1.519005   -1.362172
     14          1           0        0.127750    2.250613   -1.162765
     15          1           0       -0.456374    1.091687   -2.344983
     16          1           0       -1.626192    1.999132   -1.376376
     17         17           0        0.412779   -1.545728    1.185877
     18          7           0        2.919142   -0.608794    0.042199
     19          6           0        4.277589   -0.355694   -0.372373
     20          1           0        2.742358   -1.335336    0.709877
     21          1           0        4.931906   -1.052206    0.147660
     22          1           0        4.400018   -0.497423   -1.448157
     23          1           0        4.587121    0.662618   -0.128390
 ---------------------------------------------------------------------

 SCF Done:  E(RwB97XD) =  -3455.02033786     A.U. after    1 cycles

 The electronic state is 1-A.
 Alpha  occ. eigenvalues -- -483.12628-101.69402 -62.67490 -56.46594 -56.46258
 Alpha  occ. eigenvalues --  -56.46243 -19.19821 -14.49209 -14.44426 -10.40234
 Alpha  occ. eigenvalues --  -10.38239 -10.31933 -10.31322 -10.30620 -10.28717
 Alpha  occ. eigenvalues --   -9.57946  -8.81603  -7.32556  -7.31752  -7.31723
 Alpha  occ. eigenvalues --   -6.63717  -6.62654  -6.62604  -2.74103  -2.73813
 Alpha  occ. eigenvalues --   -2.73774  -2.72913  -2.72913  -1.12863  -1.04792
 Alpha  occ. eigenvalues --   -1.01398  -0.97106  -0.91559  -0.84628  -0.81433
 Alpha  occ. eigenvalues --   -0.79246  -0.77849  -0.68975  -0.65498  -0.63701
 Alpha  occ. eigenvalues --   -0.59037  -0.57635  -0.56357  -0.55295  -0.53629
 Alpha  occ. eigenvalues --   -0.53090  -0.50776  -0.49977  -0.48646  -0.47530
 Alpha  occ. eigenvalues --   -0.46930  -0.46510  -0.45271  -0.44235  -0.41497
 Alpha  occ. eigenvalues --   -0.40943  -0.37183  -0.36708  -0.33521  -0.33294
 Alpha  occ. eigenvalues --   -0.27469
 Alpha virt. eigenvalues --    0.03443   0.06580   0.10184   0.12230   0.12810
 Alpha virt. eigenvalues --    0.14382   0.15053   0.15336   0.15975   0.16959
 Alpha virt. eigenvalues --    0.18161   0.19726   0.20300   0.21207   0.21309

 Mulliken charges:
               1
     1  C   -0.217461
     2  C    0.371849
     3  O   -0.549783
     4  C    0.104925
     5  C   -0.302961
     6  H    0.162492
     7  H    0.157608
     8  H    0.163291
     9  N   -0.324023
    10  H    0.286735
    11  H    0.294652
    12  Br  -0.137152
    13  C   -0.352260
    14  H    0.153688
    15  H    0.150509
    16  H    0.147651
    17  Cl  -0.177702
    18  N   -0.322217
    19  C   -0.244805
    20  H    0.245413
    21  H    0.139264
    22  H    0.125188
    23  H    0.125099
 Sum of Mulliken charges =  -0.00000

 Dipole moment (field-independent basis, Debye):
    X=             -2.3851    Y=              3.4514    Z=              5.4289  Tot=              6.8611
 Quadrupole moment (field-independent basis, Debye-Ang):
   XX=            -81.1331   YY=            -80.8303   ZZ=            -84.5657
   XY=            -13.8109   XZ=              2.5064   YZ=              7.4609

  Exact polarizability: 217.844  -4.449 169.394  -2.877  -4.545 154.112
 Approx polarizability: 162.751  -1.084 144.205  -2.579  -7.487 133.522

 ******    1 imaginary frequencies (negative Signs) ******

                      1                      2                      3
                      A                      A                      A
 Frequencies --   -372.6690                37.9096                55.0048
 Red. masses --      5.6776                 3.6102                 3.8785
 Frc consts  --      0.4646                 0.0031                 0.0069
 IR Inten    --    652.5586                20.5751                 4.6963

                      4                      5                      6
                      A                      A                      A
 Frequencies --     69.7854                76.0583               127.2300
 Red. masses --      1.8243                 2.3374                 2.2000
 Frc consts  --      0.0052                 0.0080                 0.0210
 IR Inten    --      6.1176                 3.5611                 5.7084

                      7                      8                      9
                      A                      A                      A
 Frequencies --    133.3036               149.1953               163.5485
 Red. masses --      2.5155                 4.8431                 6.6909
 Frc consts  --      0.0263                 0.0635                 0.1054
 IR Inten    --     11.8653                 6.6444                13.4369

                     10                     11                     12
                      A                      A                      A
 Frequencies --    185.4570               215.0820               263.9232
 Red. masses --      1.2435                 4.8554                 6.7200
 Frc consts  --      0.0252                 0.1323                 0.2758
 IR Inten    --      2.4400                11.9813                20.0034

                     13                     14                     15
                      A                      A                      A
 Frequencies --    281.1503               287.5648               313.3557
 Red. masses --      1.4829                 3.0270                 2.7470
 Frc consts  --      0.0691                 0.1475                 0.1589
 IR Inten    --      4.9901                10.9431                13.6384

                     16                     17                     18
                      A                      A                      A
 Frequencies --    332.3280               350.2695               378.4272
 Red. masses --      2.7075                 2.3739                 1.3085
 Frc consts  --      0.1762                 0.1716                 0.1104
 IR Inten    --      9.4642                20.4800                67.4754

                     19                     20                     21
                      A                      A                      A
 Frequencies --    432.8482               464.7380               522.0329
 Red. masses --      5.5757                 5.7994                 4.6835
 Frc consts  --      0.6155                 0.7380                 0.7520
 IR Inten    --     57.0464                10.9158                76.9870

                     22                     23                     24
                      A                      A                      A
 Frequencies --    617.5455               701.4112               772.2571
 Red. masses --      2.6705                 1.6685                 8.4320
 Frc consts  --      0.6000                 0.4836                 2.9628
 IR Inten    --    111.0913               127.2062                28.2190

                     25                     26                     27
                      A                      A                      A
 Frequencies --    802.9995               982.0898              1001.6065
 Red. masses --      4.0046                 4.1761                 1.2213
 Frc consts  --      1.5214                 2.3731                 0.7219
 IR Inten    --     28.5022                44.8080                17.2699

                     28                     29                     30
                      A                      A                      A
 Frequencies --   1025.1019              1042.9452              1065.9286
 Red. masses --      1.9252                 1.2025                 1.5468
 Frc consts  --      1.1919                 0.7707                 1.0355
 IR Inten    --     84.6766                13.1413               128.6353

                     31                     32                     33
                      A                      A                      A
 Frequencies --   1080.5815              1108.1659              1156.4972
 Red. masses --      3.4113                 2.0480                 1.2891
 Frc consts  --      2.3469                 1.4818                 1.0158
 IR Inten    --      1.3950               117.1783                 0.2828

                     34                     35                     36
                      A                      A                      A
 Frequencies --   1170.6763              1184.8281              1221.4073
 Red. masses --      2.8013                 2.2209                 1.3896
 Frc consts  --      2.2619                 1.8369                 1.2215
 IR Inten    --      6.2023                54.7295                35.9190

                     37                     38                     39
                      A                      A                      A
 Frequencies --   1284.1076              1340.3283              1417.9425
 Red. masses --      2.2479                 1.3172                 1.3499
 Frc consts  --      2.1839                 1.3942                 1.5991
 IR Inten    --    382.7613                 6.0207               252.7345

                     40                     41                     42
                      A                      A                      A
 Frequencies --   1440.7321              1454.9507              1461.1269
 Red. masses --      2.0308                 1.2120                 1.2492
 Frc consts  --      2.4836                 1.5116                 1.5713
 IR Inten    --    570.7547                54.9861                42.7694

                     43                     44                     45
                      A                      A                      A
 Frequencies --   1467.0228              1474.2611              1490.5883
 Red. masses --      1.1031                 1.0423                 1.2075
 Frc consts  --      1.3987                 1.3347                 1.5807
 IR Inten    --     15.8471                13.1691                96.9708

                     46                     47                     48
                      A                      A                      A
 Frequencies --   1495.4249              1504.9804              1506.4873
 Red. masses --      1.1321                 1.0363                 1.1023
 Frc consts  --      1.4916                 1.3829                 1.4740
 IR Inten    --    148.4057                15.3702                46.5427

                     49                     50                     51
                      A                      A                      A
 Frequencies --   1540.6609              1641.9462              1652.3106
 Red. masses --      2.0009                 1.0891                 8.3099
 Frc consts  --      2.7983                 1.7300                13.3669
 IR Inten    --    697.2305                66.5014               471.1916

                     52                     53                     54
                      A                      A                      A
 Frequencies --   3047.5317              3066.9430              3084.8764
 Red. masses --      1.0358                 1.0346                 1.0362
 Frc consts  --      5.6678                 5.7337                 5.8099
 IR Inten    --     84.3305                33.9652                13.7786

                     55                     56                     57
                      A                      A                      A
 Frequencies --   3103.0584              3142.4912              3157.4051
 Red. masses --      1.1046                 1.1033                 1.1012
 Frc consts  --      6.2664                 6.4196                 6.4683
 IR Inten    --     46.7947                 8.5155                25.0073

                     58                     59                     60
                      A                      A                      A
 Frequencies --   3160.5274              3174.4690              3188.7093
 Red. masses --      1.1032                 1.1053                 1.1017
 Frc consts  --      6.4928                 6.5624                 6.5998
 IR Inten    --     12.6474                12.8028                 2.6820

                     61                     62                     63
                      A                      A                      A
 Frequencies --   3522.5631              3605.0414              3689.0926
 Red. masses --      1.0507                 1.0968                 1.0779
 Frc consts  --      7.6817                 8.3982                 8.6433
 IR Inten    --     56.4403                58.3593                87.6284

 - Thermochemistry -
 -------------------
 Temperature   298.150 Kelvin.  Pressure   1.00000 Atm.
 Atom     1 has atomic number  6 and mass  12.00000

 Molecular mass:   241.98215 amu.
 Principal axes and moments of inertia in atomic units:
                           1         2         3
     Eigenvalues --  1787.072264219.555194554.02769
           X            0.99913  -0.03568  -0.02169
           Y            0.03744   0.99551   0.08695
           Z            0.01849  -0.08768   0.99598
 This molecule is an asymmetric top.
 Rotational symmetry number  1.
 Warning -- assumption of classical behavior for rotation
           may cause significant error
 Rotational temperatures (Kelvin)      0.04847     0.02053     0.01902
 Rotational constants (GHZ):           1.00989     0.42771     0.39630
    1 imaginary frequencies ignored.
 Zero-point vibrational energy     483822.7 (Joules/Mol)
                                  115.63639 (Kcal/Mol)
 Warning -- explicit consideration of  21 degrees of freedom as
           vibrations may cause significant error
 Vibrational temperatures:     54.54    79.14   100.41   109.43   183.06
          (Kelvin)            191.79   214.66   235.31   266.83   309.46
                              379.73   404.51   413.74   450.85   478.15
                              503.96   544.47   622.77   668.65   751.09
                              888.51  1009.17  1111.11  1155.34  1413.01
                             1441.09  1474.89  1500.57  1533.63  1554.72
                             1594.40  1663.94  1684.34  1704.70  1757.33
                             1847.54  1928.43  2040.10  2072.89  2093.35
                             2102.24  2110.72  2121.13  2144.62  2151.58
                             2165.33  2167.50  2216.67  2362.39  2377.31
                             4384.72  4412.65  4438.45  4464.61  4521.34
                             4542.80  4547.29  4567.35  4587.84  5068.18
                             5186.85  5307.78

 Zero-point correction=                           0.184278 (Hartree/Particle)
 Thermal correction to Energy=                    0.198483
 Thermal correction to Enthalpy=                  0.199427
 Thermal correction to Gibbs Free Energy=         0.141690
 Sum of electronic and zero-point Energies=          -3454.836060
 Sum of electronic and thermal Energies=             -3454.821855
 Sum of electronic and thermal Enthalpies=           -3454.820911
 Sum of electronic and thermal Free Energies=        -3454.878647

                     E (Thermal)             CV                S
                      KCal/Mol        Cal/Mol-Kelvin    Cal/Mol-Kelvin
 Total                  124.550             48.228            121.517
 Electronic               0.000              0.000              0.000
 Translational            0.889              2.981             42.352
 Rotational               0.889              2.981             31.907
 Vibrational            122.772             42.266             47.258
 Vibration     1          0.594              1.982              5.365
 Vibration     2          0.596              1.976              4.629
 Vibration     3          0.598              1.969              4.159
 Vibration     4          0.599              1.965              3.990
 Vibration     5          0.611              1.926              2.987
 Vibration     6          0.613              1.920              2.898
 Vibration     7          0.618              1.904              2.682
 Vibration     8          0.623              1.887              2.508
 Vibration     9          0.632              1.860              2.273
 Vibration    10          0.645              1.818              2.000
 Vibration    11          0.670              1.739              1.636
 Vibration    12          0.681              1.709              1.527
 Vibration    13          0.685              1.697              1.488
 Vibration    14          0.701              1.648              1.345
 Vibration    15          0.714              1.611              1.249
 Vibration    16          0.727              1.575              1.165
 Vibration    17          0.749              1.516              1.045
 Vibration    18          0.794              1.399              0.849
 Vibration    19          0.822              1.328              0.752
 Vibration    20          0.877              1.201              0.605
 Vibration    21          0.977              0.995              0.420

 Optimization completed.
    -- Stationary point found.
 Normal termination of Gaussian 16 at Sun Feb 21 19:58:44 2021.
