 Gaussian 16, Revision A.03,
 Gaussian 16:  ES64L-G16RevA.03 25-Dec-2016

 ----------------------------------------------------------------------
 # wB97XD def2tzvp, opt=(ts, noeigen, calcfc, maxcycles=70, maxstep=5),
  freq=noraman, scrf=(iefpcm, solvent=water)
 ----------------------------------------------------------------------

 ------------------------
 2_iteration/TS-767-2.out
 ------------------------
 Symbolic Z-matrix:
 Charge =  0 Multiplicity = 1

 SCF Done:  E(RwB97XD) =  -3838.46906845     A.U. after   15 cycles
 SCF Done:  E(RwB97XD) =  -3838.46906846     A.U. after    7 cycles
 Optimization completed.
    -- Stationary point found.
 Normal termination of Gaussian 16 at Mon Feb 22 18:25:31 2021.

 ---------------------------------------------------------------------
 #N Geom=AllCheck Guess=TCheck SCRF=Check GenChk RwB97XD/def2TZVP Freq
 ---------------------------------------------------------------------

 Structure from the checkpoint file:  "/beegfs/scratch/user/q/tla25/Gau-99464.chk"
 ------------------------
 2_iteration/TS-767-2.out
 ------------------------
 Charge =  0 Multiplicity = 1

                         Standard orientation:
 ---------------------------------------------------------------------
 Center     Atomic      Atomic             Coordinates (Angstroms)
 Number     Number       Type             X           Y           Z
 ---------------------------------------------------------------------
      1          6           0        0.441556    0.268573    0.070854
      2          6           0       -0.918617    0.827518    0.179657
      3          8           0       -1.122995    1.946392    0.640133
      4          6           0        0.816950   -1.031111    0.339156
      5          6           0        3.247027   -0.849903    1.920162
      6          1           0        3.580630   -0.734244    2.951289
      7          1           0        3.797651   -1.658961    1.451213
      8          1           0        3.421814    0.074221    1.376786
      9          7           0        1.812639   -1.166559    1.903143
     10          1           0        1.653578   -2.103568    2.260798
     11          1           0        1.291898   -0.522900    2.491474
     12         35           0        2.149964   -1.937555   -0.886789
     13         17           0       -0.408608   -2.231526    0.751230
     14          6           0        1.506096    1.294467   -0.159569
     15          6           0        1.917242    2.141216    0.869052
     16          6           0        2.892365    3.104007    0.656736
     17          6           0        3.474864    3.239625   -0.595616
     18          6           0        3.065345    2.414829   -1.633164
     19          6           0        2.085328    1.456646   -1.416352
     20          1           0        1.462968    2.045090    1.847174
     21          1           0        3.199029    3.747861    1.471713
     22          1           0        4.239106    3.988158   -0.763146
     23          1           0        3.505005    2.520675   -2.617206
     24          1           0        1.763342    0.822576   -2.232618
     25          7           0       -1.936609    0.081272   -0.360357
     26          6           0       -3.320037    0.243187   -0.238819
     27          6           0       -3.929730    1.271919    0.480411
     28          6           0       -5.314585    1.332913    0.553141
     29          6           0       -6.111642    0.392354   -0.080100
     30          6           0       -5.503817   -0.629802   -0.797142
     31          6           0       -4.125382   -0.706011   -0.875797
     32          1           0       -1.652584   -0.742903   -0.859870
     33          1           0       -3.320818    2.014274    0.969323
     34          1           0       -5.772362    2.136993    1.116342
     35          1           0       -7.190284    0.453778   -0.018320
     36          1           0       -6.105749   -1.376711   -1.299457
     37          1           0       -3.661637   -1.510657   -1.435012
 ---------------------------------------------------------------------

 SCF Done:  E(RwB97XD) =  -3838.46906846     A.U. after    1 cycles

 The electronic state is 1-A.
 Alpha  occ. eigenvalues -- -483.12551-101.71815 -62.67402 -56.46510 -56.46165
 Alpha  occ. eigenvalues --  -56.46159 -19.21298 -14.51247 -14.46586 -10.45344
 Alpha  occ. eigenvalues --  -10.39497 -10.33884 -10.32443 -10.30119 -10.29108
 Alpha  occ. eigenvalues --  -10.28959 -10.28932 -10.28849 -10.28798 -10.28764
 Alpha  occ. eigenvalues --  -10.28666 -10.28657 -10.28324 -10.28317 -10.27704
 Alpha  occ. eigenvalues --   -9.60414  -8.81498  -7.35083  -7.34181  -7.34143
 Alpha  occ. eigenvalues --   -6.63614  -6.62531  -6.62509  -2.73993  -2.73698
 Alpha  occ. eigenvalues --   -2.73681  -2.72805  -2.72804  -1.14339  -1.06675
 Alpha  occ. eigenvalues --   -1.04361  -0.99397  -0.96550  -0.95519  -0.89925
 Alpha  occ. eigenvalues --   -0.87060  -0.85244  -0.85009  -0.84841  -0.81958
 Alpha  occ. eigenvalues --   -0.80002  -0.74028  -0.71768  -0.70741  -0.70191
 Alpha  occ. eigenvalues --   -0.67847  -0.65421  -0.64859  -0.62912  -0.61003
 Alpha  occ. eigenvalues --   -0.59147  -0.58673  -0.58028  -0.56220  -0.55537
 Alpha  occ. eigenvalues --   -0.54138  -0.53626  -0.52875  -0.52460  -0.51672
 Alpha  occ. eigenvalues --   -0.50923  -0.50673  -0.50128  -0.49509  -0.48594
 Alpha  occ. eigenvalues --   -0.48145  -0.46631  -0.45760  -0.44799  -0.43204
 Alpha  occ. eigenvalues --   -0.42763  -0.42649  -0.41987  -0.41139  -0.39300
 Alpha  occ. eigenvalues --   -0.37558  -0.37223  -0.34856  -0.33831  -0.33330
 Alpha  occ. eigenvalues --   -0.33127  -0.30214  -0.27386
 Alpha virt. eigenvalues --    0.01772   0.03930   0.04682   0.05302   0.05573
 Alpha virt. eigenvalues --    0.07681   0.08968   0.10439   0.12693   0.13492
 Alpha virt. eigenvalues --    0.13656   0.13930   0.14576   0.15586   0.16247

 Mulliken charges:
               1
     1  C   -0.300317
     2  C    0.359648
     3  O   -0.497112
     4  C    0.154037
     5  C   -0.294381
     6  H    0.167211
     7  H    0.168477
     8  H    0.170198
     9  N   -0.278928
    10  H    0.294963
    11  H    0.295133
    12  Br  -0.162073
    13  Cl  -0.056781
    14  C    0.231281
    15  C   -0.330870
    16  C   -0.101111
    17  C   -0.162762
    18  C   -0.137849
    19  C   -0.228914
    20  H    0.140794
    21  H    0.140947
    22  H    0.142619
    23  H    0.140186
    24  H    0.148603
    25  N   -0.274496
    26  C    0.316274
    27  C   -0.299426
    28  C   -0.112882
    29  C   -0.195348
    30  C   -0.097641
    31  C   -0.315779
    32  H    0.249746
    33  H    0.158577
    34  H    0.141793
    35  H    0.140942
    36  H    0.143775
    37  H    0.141466
 Sum of Mulliken charges =  -0.00000

 Dipole moment (field-independent basis, Debye):
    X=              5.0108    Y=             -5.2048    Z=              4.6424  Tot=              8.5878
 Quadrupole moment (field-independent basis, Debye-Ang):
   XX=           -129.4270   YY=           -146.6774   ZZ=           -126.1232
   XY=              7.0214   XZ=             14.1695   YZ=             -4.5959

  Exact polarizability: 411.774   9.703 340.532  -7.700  32.822 293.005
 Approx polarizability: 303.993   9.443 278.790  -9.724  30.272 255.627

 ******    1 imaginary frequencies (negative Signs) ******

                      1                      2                      3
                      A                      A                      A
 Frequencies --   -368.1079                16.2530                24.6646
 Red. masses --      6.9805                 4.6846                 6.8522
 Frc consts  --      0.5573                 0.0007                 0.0025
 IR Inten    --    564.4654                 2.6468                 2.6260

                      4                      5                      6
                      A                      A                      A
 Frequencies --     27.8462                35.9386                48.6598
 Red. masses --      5.7327                 5.2289                 4.6194
 Frc consts  --      0.0026                 0.0040                 0.0064
 IR Inten    --      2.5590                 2.2555                 2.2783

                      7                      8                      9
                      A                      A                      A
 Frequencies --     66.6782                90.6634               122.3986
 Red. masses --      6.5038                 3.4860                 1.7613
 Frc consts  --      0.0170                 0.0169                 0.0155
 IR Inten    --      0.3732                13.8772                 1.3088

                     10                     11                     12
                      A                      A                      A
 Frequencies --    132.9294               159.1484               163.4959
 Red. masses --      6.0105                 4.7913                 3.0557
 Frc consts  --      0.0626                 0.0715                 0.0481
 IR Inten    --      0.0541                 8.5847                 1.7314

                     13                     14                     15
                      A                      A                      A
 Frequencies --    187.7802               191.2683               207.9625
 Red. masses --      5.9788                 4.1566                 2.6917
 Frc consts  --      0.1242                 0.0896                 0.0686
 IR Inten    --     10.9345                 3.9464                14.3053

                     16                     17                     18
                      A                      A                      A
 Frequencies --    226.8740               244.9562               278.4009
 Red. masses --      5.9681                 4.6946                 5.5191
 Frc consts  --      0.1810                 0.1660                 0.2520
 IR Inten    --     16.9121                 3.3499                 1.7032

                     19                     20                     21
                      A                      A                      A
 Frequencies --    298.2814               336.4556               358.1112
 Red. masses --      4.9341                 7.7209                 5.4988
 Frc consts  --      0.2586                 0.5150                 0.4155
 IR Inten    --     46.6223                16.4734                21.0336

                     22                     23                     24
                      A                      A                      A
 Frequencies --    364.2703               370.6014               423.6607
 Red. masses --      5.8162                 6.1537                 2.9807
 Frc consts  --      0.4547                 0.4980                 0.3152
 IR Inten    --      1.9499                72.8161                 0.1460

                     25                     26                     27
                      A                      A                      A
 Frequencies --    426.1479               503.7249               523.4938
 Red. masses --      2.9011                 4.4795                 2.8848
 Frc consts  --      0.3104                 0.6697                 0.4658
 IR Inten    --      0.6576                87.4934                50.1558

                     28                     29                     30
                      A                      A                      A
 Frequencies --    546.0893               563.2530               601.8746
 Red. masses --      3.3168                 5.5025                 1.2172
 Frc consts  --      0.5828                 1.0285                 0.2598
 IR Inten    --    121.1999                25.1846                72.2836

                     31                     32                     33
                      A                      A                      A
 Frequencies --    626.6904               636.5171               650.4871
 Red. masses --      6.6699                 6.3551                 6.2401
 Frc consts  --      1.5434                 1.5170                 1.5557
 IR Inten    --    107.9988                 4.0767               114.7577

                     34                     35                     36
                      A                      A                      A
 Frequencies --    662.3859               718.9716               727.8737
 Red. masses --      7.1834                 1.8769                 2.0056
 Frc consts  --      1.8570                 0.5716                 0.6261
 IR Inten    --    128.7212                64.6692               216.4400

                     37                     38                     39
                      A                      A                      A
 Frequencies --    736.4376               769.1787               780.6515
 Red. masses --      1.6874                 2.1967                 4.4878
 Frc consts  --      0.5392                 0.7657                 1.6114
 IR Inten    --     43.2449                82.9912                37.0819

                     40                     41                     42
                      A                      A                      A
 Frequencies --    785.1985               839.1093               852.3605
 Red. masses --      2.0376                 5.3682                 3.3020
 Frc consts  --      0.7402                 2.2270                 1.4134
 IR Inten    --    145.6335                51.5066                72.2589

                     43                     44                     45
                      A                      A                      A
 Frequencies --    861.5547               881.4768               898.1574
 Red. masses --      1.2891                 1.2434                 6.3619
 Frc consts  --      0.5638                 0.5692                 3.0237
 IR Inten    --      3.4790                 0.5943                32.1737

                     46                     47                     48
                      A                      A                      A
 Frequencies --    933.7671               963.5930              1001.8887
 Red. masses --      1.4693                 1.4928                 1.3488
 Frc consts  --      0.7548                 0.8167                 0.7977
 IR Inten    --     15.0387                 2.5415                 0.0483

                     49                     50                     51
                      A                      A                      A
 Frequencies --   1015.8174              1018.9084              1019.9991
 Red. masses --      1.3782                 1.5384                 3.0913
 Frc consts  --      0.8379                 0.9410                 1.8949
 IR Inten    --      0.1778                 3.2140                 2.3285

                     52                     53                     54
                      A                      A                      A
 Frequencies --   1025.6628              1027.8409              1030.5635
 Red. masses --      3.0005                 3.7737                 1.3468
 Frc consts  --      1.8597                 2.3489                 0.8428
 IR Inten    --     10.3724                 3.0054                 2.0120

                     55                     56                     57
                      A                      A                      A
 Frequencies --   1049.6695              1056.0272              1062.0563
 Red. masses --      3.6233                 1.6611                 2.1182
 Frc consts  --      2.3521                 1.0914                 1.4077
 IR Inten    --     71.9065                 8.4150                18.9177

                     58                     59                     60
                      A                      A                      A
 Frequencies --   1070.5578              1093.2910              1109.5428
 Red. masses --      1.8457                 1.3365                 1.5614
 Frc consts  --      1.2463                 0.9412                 1.1325
 IR Inten    --     47.0986               173.3152                18.3995

                     61                     62                     63
                      A                      A                      A
 Frequencies --   1121.4934              1182.1793              1182.3040
 Red. masses --      1.5407                 1.1253                 1.1330
 Frc consts  --      1.1417                 0.9266                 0.9331
 IR Inten    --     13.8804                 5.3526                 0.2371

                     64                     65                     66
                      A                      A                      A
 Frequencies --   1207.5141              1208.1778              1221.0351
 Red. masses --      1.1627                 1.1268                 3.3613
 Frc consts  --      0.9989                 0.9691                 2.9526
 IR Inten    --     53.6690                 3.8732                97.8062

                     67                     68                     69
                      A                      A                      A
 Frequencies --   1266.3280              1266.7780              1299.3206
 Red. masses --      1.4293                 2.2230                 4.9457
 Frc consts  --      1.3504                 2.1018                 4.9194
 IR Inten    --     68.2565               819.9256               372.7577

                     70                     71                     72
                      A                      A                      A
 Frequencies --   1312.0160              1343.6856              1347.2265
 Red. masses --      5.0669                 3.5704                 1.2940
 Frc consts  --      5.1389                 3.7980                 1.3838
 IR Inten    --    105.1470               470.7956                10.9977

                     73                     74                     75
                      A                      A                      A
 Frequencies --   1357.5203              1360.8629              1428.8846
 Red. masses --      1.4571                 1.6496                 4.6507
 Frc consts  --      1.5821                 1.7999                 5.5945
 IR Inten    --      9.0906                14.2407               778.7040

                     76                     77                     78
                      A                      A                      A
 Frequencies --   1462.2212              1477.8598              1487.3943
 Red. masses --      1.2001                 2.1649                 2.1386
 Frc consts  --      1.5118                 2.7858                 2.7876
 IR Inten    --     55.9845               278.9894                21.5969

                     79                     80                     81
                      A                      A                      A
 Frequencies --   1496.2753              1497.6771              1542.4902
 Red. masses --      1.0631                 1.0389                 2.3753
 Frc consts  --      1.4023                 1.3730                 3.3298
 IR Inten    --      3.7444                17.7442                67.8891

                     82                     83                     84
                      A                      A                      A
 Frequencies --   1545.0239              1564.3608              1641.0170
 Red. masses --      2.4118                 2.0804                 1.0940
 Frc consts  --      3.3921                 2.9997                 1.7358
 IR Inten    --    223.9590               607.0542                79.0438

                     85                     86                     87
                      A                      A                      A
 Frequencies --   1645.5105              1660.0324              1667.8964
 Red. masses --      5.4099                 5.9847                 5.4497
 Frc consts  --      8.6306                 9.7168                 8.9322
 IR Inten    --      5.0551               127.6558                43.5043

                     88                     89                     90
                      A                      A                      A
 Frequencies --   1672.0070              1691.5613              3085.6427
 Red. masses --      5.4242                 6.7940                 1.0382
 Frc consts  --      8.9343                11.4538                 5.8238
 IR Inten    --     75.2233               547.7611                26.2548

                     91                     92                     93
                      A                      A                      A
 Frequencies --   3173.4861              3187.6632              3191.9359
 Red. masses --      1.0991                 1.0882                 1.0855
 Frc consts  --      6.5219                 6.5148                 6.5161
 IR Inten    --      4.5701                13.1739                 3.1436

                     94                     95                     96
                      A                      A                      A
 Frequencies --   3197.7140              3198.0031              3206.1630
 Red. masses --      1.0882                 1.0882                 1.1057
 Frc consts  --      6.5562                 6.5573                 6.6965
 IR Inten    --      2.4933                 1.7297                 3.7215

                     97                     98                     99
                      A                      A                      A
 Frequencies --   3207.2976              3207.3207              3213.2983
 Red. masses --      1.0928                 1.0931                 1.0951
 Frc consts  --      6.6232                 6.6253                 6.6622
 IR Inten    --     22.5993                29.3653                40.2904

                    100                    101                    102
                      A                      A                      A
 Frequencies --   3221.5721              3222.3741              3269.3177
 Red. masses --      1.0988                 1.0979                 1.0925
 Frc consts  --      6.7192                 6.7171                 6.8798
 IR Inten    --     14.1013                22.4317                 4.3772

                    103                    104                    105
                      A                      A                      A
 Frequencies --   3501.5172              3584.7225              3661.6619
 Red. masses --      1.0512                 1.0966                 1.0769
 Frc consts  --      7.5939                 8.3024                 8.5071
 IR Inten    --     51.0636                62.0412                47.6514

 - Thermochemistry -
 -------------------
 Temperature   298.150 Kelvin.  Pressure   1.00000 Atm.
 Atom     1 has atomic number  6 and mass  12.00000

 Molecular mass:   366.01345 amu.
 Principal axes and moments of inertia in atomic units:
                           1         2         3
     Eigenvalues --  5142.08085********************
           X            0.99945   0.02996   0.01451
           Y           -0.02966   0.99936  -0.02007
           Z           -0.01511   0.01962   0.99969
 This molecule is an asymmetric top.
 Rotational symmetry number  1.
 Warning -- assumption of classical behavior for rotation
           may cause significant error
 Rotational temperatures (Kelvin)      0.01684     0.00721     0.00586
 Rotational constants (GHZ):           0.35097     0.15016     0.12212
    1 imaginary frequencies ignored.
 Zero-point vibrational energy     765218.0 (Joules/Mol)
                                  182.89150 (Kcal/Mol)
 Warning -- explicit consideration of  29 degrees of freedom as
           vibrations may cause significant error
 Vibrational temperatures:     23.38    35.49    40.06    51.71    70.01
          (Kelvin)             95.94   130.44   176.10   191.26   228.98
                              235.23   270.17   275.19   299.21   326.42
                              352.44   400.56   429.16   484.08   515.24
                              524.10   533.21   609.55   613.13   724.75
                              753.19   785.70   810.40   865.96   901.67
                              915.81   935.91   953.03  1034.44  1047.25
                             1059.57  1106.68  1123.18  1129.73  1207.29
                             1226.36  1239.59  1268.25  1292.25  1343.48
                             1386.40  1441.49  1461.53  1465.98  1467.55
                             1475.70  1478.83  1482.75  1510.24  1519.39
                             1528.06  1540.29  1573.00  1596.38  1613.58
                             1700.89  1701.07  1737.34  1738.30  1756.80
                             1821.96  1822.61  1869.43  1887.70  1933.26
                             1938.36  1953.17  1957.98  2055.85  2103.81
                             2126.31  2140.03  2152.81  2154.82  2219.30
                             2222.94  2250.77  2361.06  2367.52  2388.42
                             2399.73  2405.65  2433.78  4439.55  4565.94
                             4586.34  4592.48  4600.80  4601.21  4612.95
                             4614.59  4614.62  4623.22  4635.12  4636.28
                             4703.82  5037.90  5157.62  5268.31

 Zero-point correction=                           0.291456 (Hartree/Particle)
 Thermal correction to Energy=                    0.311533
 Thermal correction to Enthalpy=                  0.312477
 Thermal correction to Gibbs Free Energy=         0.238748
 Sum of electronic and zero-point Energies=          -3838.177612
 Sum of electronic and thermal Energies=             -3838.157535
 Sum of electronic and thermal Enthalpies=           -3838.156591
 Sum of electronic and thermal Free Energies=        -3838.230321

                     E (Thermal)             CV                S
                      KCal/Mol        Cal/Mol-Kelvin    Cal/Mol-Kelvin
 Total                  195.490             74.151            155.177
 Electronic               0.000              0.000              0.000
 Translational            0.889              2.981             43.586
 Rotational               0.889              2.981             35.167
 Vibrational            193.713             68.190             76.425
 Vibration     1          0.593              1.986              7.046
 Vibration     2          0.593              1.985              6.218
 Vibration     3          0.593              1.984              5.977
 Vibration     4          0.594              1.982              5.471
 Vibration     5          0.595              1.978              4.871
 Vibration     6          0.598              1.970              4.249
 Vibration     7          0.602              1.956              3.646
 Vibration     8          0.610              1.930              3.062
 Vibration     9          0.613              1.920              2.903
 Vibration    10          0.621              1.892              2.560
 Vibration    11          0.623              1.887              2.509
 Vibration    12          0.632              1.857              2.250
 Vibration    13          0.634              1.852              2.216
 Vibration    14          0.641              1.828              2.061
 Vibration    15          0.651              1.800              1.904
 Vibration    16          0.660              1.771              1.767
 Vibration    17          0.679              1.713              1.543
 Vibration    18          0.691              1.677              1.427
 Vibration    19          0.717              1.603              1.229
 Vibration    20          0.733              1.559              1.130
 Vibration    21          0.738              1.546              1.104
 Vibration    22          0.743              1.533              1.077
 Vibration    23          0.786              1.419              0.880
 Vibration    24          0.788              1.413              0.871
 Vibration    25          0.859              1.242              0.649
 Vibration    26          0.878              1.198              0.602
 Vibration    27          0.901              1.148              0.552
 Vibration    28          0.919              1.111              0.517
 Vibration    29          0.960              1.028              0.446

 Optimization completed.
    -- Stationary point found.
 Normal termination of Gaussian 16 at Mon Feb 22 20:50:18 2021.
