 Gaussian 16, Revision A.03,
 Gaussian 16:  ES64L-G16RevA.03 25-Dec-2016

 ----------------------------------------------------------------------
 # wB97XD def2tzvp, opt=(ts, noeigen, calcfc, maxcycles=70, maxstep=8),
  freq=noraman, scrf=(iefpcm, solvent=water)
 ----------------------------------------------------------------------

 ------------------------
 1_iteration/TS-759-1.out
 ------------------------
 Symbolic Z-matrix:
 Charge =  0 Multiplicity = 1

 SCF Done:  E(RwB97XD) =  -6181.03164564     A.U. after   15 cycles
 SCF Done:  E(RwB97XD) =  -6181.03170403     A.U. after   12 cycles
 SCF Done:  E(RwB97XD) =  -6181.03173152     A.U. after   13 cycles
 SCF Done:  E(RwB97XD) =  -6181.03173992     A.U. after   11 cycles
 SCF Done:  E(RwB97XD) =  -6181.03174081     A.U. after   10 cycles
 SCF Done:  E(RwB97XD) =  -6181.03174093     A.U. after    9 cycles
 SCF Done:  E(RwB97XD) =  -6181.03174095     A.U. after    7 cycles
 SCF Done:  E(RwB97XD) =  -6181.03174096     A.U. after    7 cycles
 Optimization completed.
    -- Stationary point found.
 Normal termination of Gaussian 16 at Sun Mar 28 15:48:03 2021.

 ---------------------------------------------------------------------
 #N Geom=AllCheck Guess=TCheck SCRF=Check GenChk RwB97XD/def2TZVP Freq
 ---------------------------------------------------------------------

 Structure from the checkpoint file:  "/beegfs/scratch/user/q/tla25/Gau-60150.chk"
 ------------------------
 1_iteration/TS-759-1.out
 ------------------------
 Charge =  0 Multiplicity = 1

                         Standard orientation:
 ---------------------------------------------------------------------
 Center     Atomic      Atomic             Coordinates (Angstroms)
 Number     Number       Type             X           Y           Z
 ---------------------------------------------------------------------
      1          6           0        0.685192    0.935975   -0.498778
      2          6           0       -0.772985    1.115704   -0.518316
      3          8           0       -1.282916    2.180556   -0.839502
      4          6           0        1.403817   -0.129894    0.020556
      5          6           0        1.208877    0.982638    2.567935
      6          1           0        0.875990    0.921364    3.602974
      7          1           0        2.242831    1.318599    2.537280
      8          1           0        0.581394    1.694132    2.031913
      9          7           0        1.103043   -0.314413    1.910224
     10          1           0        1.760041   -0.994371    2.278707
     11          1           0        0.167248   -0.695711    2.003842
     12         35           0        3.316178   -0.035411    0.003942
     13         35           0        0.903902   -1.984428   -0.447128
     14         17           0        1.537256    2.404042   -0.926748
     15          7           0       -1.543701    0.050284   -0.105954
     16          6           0       -2.946539    0.014115   -0.031555
     17          6           0       -3.721876    1.126866    0.288230
     18          6           0       -5.098931    0.998152    0.392272
     19          6           0       -5.720785   -0.225557    0.192513
     20          6           0       -4.945829   -1.335003   -0.114468
     21          6           0       -3.571261   -1.217398   -0.229330
     22          1           0       -1.113116   -0.859260   -0.137016
     23          1           0       -3.249413    2.082455    0.450458
     24          1           0       -5.690438    1.870935    0.639680
     25          1           0       -6.795953   -0.314669    0.277520
     26          1           0       -5.411597   -2.299689   -0.271564
     27          1           0       -2.973296   -2.087271   -0.475829
 ---------------------------------------------------------------------

 SCF Done:  E(RwB97XD) =  -6181.03174096     A.U. after    1 cycles

 The electronic state is 1-A.
 Alpha  occ. eigenvalues -- -483.15255-483.15189-101.69351 -62.70090 -62.70024
 Alpha  occ. eigenvalues --  -56.49239 -56.49154 -56.48841 -56.48819 -56.48782
 Alpha  occ. eigenvalues --  -56.48769 -19.21681 -14.50721 -14.46882 -10.45586
 Alpha  occ. eigenvalues --  -10.40269 -10.33910 -10.33337 -10.32558 -10.29213
 Alpha  occ. eigenvalues --  -10.29110 -10.29092 -10.28684 -10.28558  -9.57871
 Alpha  occ. eigenvalues --   -8.84199  -8.84120  -7.32544  -7.31635  -7.31624
 Alpha  occ. eigenvalues --   -6.66451  -6.66303  -6.65183  -6.65127  -6.65118
 Alpha  occ. eigenvalues --   -6.65086  -2.76823  -2.76675  -2.76467  -2.76416
 Alpha  occ. eigenvalues --   -2.76353  -2.76319  -2.75391  -2.75390  -2.75371
 Alpha  occ. eigenvalues --   -2.75369  -1.15080  -1.06143  -1.04593  -0.98961
 Alpha  occ. eigenvalues --   -0.95752  -0.93774  -0.88885  -0.85908  -0.85362
 Alpha  occ. eigenvalues --   -0.82152  -0.80044  -0.74269  -0.71889  -0.69002
 Alpha  occ. eigenvalues --   -0.65846  -0.64843  -0.62985  -0.60170  -0.58661
 Alpha  occ. eigenvalues --   -0.58169  -0.55924  -0.54515  -0.54088  -0.52623
 Alpha  occ. eigenvalues --   -0.52168  -0.51885  -0.50690  -0.49118  -0.48454
 Alpha  occ. eigenvalues --   -0.47635  -0.46858  -0.44962  -0.43364  -0.42808
 Alpha  occ. eigenvalues --   -0.41698  -0.40725  -0.39402  -0.38895  -0.38597
 Alpha  occ. eigenvalues --   -0.37060  -0.35037  -0.33677  -0.31168  -0.28239
 Alpha virt. eigenvalues --    0.00557   0.02679   0.03318   0.05229   0.06695
 Alpha virt. eigenvalues --    0.09920   0.12959   0.13950   0.14016   0.14634
 Alpha virt. eigenvalues --    0.15595   0.15897   0.16762   0.17827   0.18277

 Mulliken charges:
               1
     1  C   -0.192728
     2  C    0.326799
     3  O   -0.480402
     4  C    0.066608
     5  C   -0.292426
     6  H    0.169927
     7  H    0.163945
     8  H    0.163677
     9  N   -0.310233
    10  H    0.304053
    11  H    0.290955
    12  Br  -0.005394
    13  Br  -0.060157
    14  Cl  -0.131264
    15  N   -0.281719
    16  C    0.294996
    17  C   -0.300261
    18  C   -0.093498
    19  C   -0.188024
    20  C   -0.104483
    21  C   -0.287572
    22  H    0.218929
    23  H    0.150570
    24  H    0.143510
    25  H    0.142280
    26  H    0.144491
    27  H    0.147422
 Sum of Mulliken charges =  -0.00000

 Dipole moment (field-independent basis, Debye):
    X=              2.1653    Y=             -6.7323    Z=              8.2443  Tot=             10.8620
 Quadrupole moment (field-independent basis, Debye-Ang):
   XX=           -120.7206   YY=           -132.0943   ZZ=           -117.4500
   XY=              4.3937   XZ=              4.9918   YZ=              7.0330

  Exact polarizability: 339.420   0.786 288.308   2.694  -1.504 202.081
 Approx polarizability: 253.404   0.883 245.329   0.205  -2.415 176.199

 ******    1 imaginary frequencies (negative Signs) ******

                      1                      2                      3
                      A                      A                      A
 Frequencies --   -385.9839                20.5125                25.4551
 Red. masses --      5.8050                 4.2296                 6.3519
 Frc consts  --      0.5096                 0.0010                 0.0024
 IR Inten    --    669.1015                 1.5535                 1.5763

                      4                      5                      6
                      A                      A                      A
 Frequencies --     55.7511                66.4754                80.9308
 Red. masses --      8.6666                 9.1573                 2.9831
 Frc consts  --      0.0159                 0.0238                 0.0115
 IR Inten    --      6.0248                 2.2058                 1.9777

                      7                      8                      9
                      A                      A                      A
 Frequencies --     84.1035               124.6074               143.5590
 Red. masses --      6.3217                 4.2594                 3.2916
 Frc consts  --      0.0263                 0.0390                 0.0400
 IR Inten    --      3.2996                 2.9457                 5.7898

                     10                     11                     12
                      A                      A                      A
 Frequencies --    167.6758               170.8239               181.4935
 Red. masses --      2.6783                 7.0635                 3.1485
 Frc consts  --      0.0444                 0.1214                 0.0611
 IR Inten    --      1.2274                 5.8803                 2.7896

                     13                     14                     15
                      A                      A                      A
 Frequencies --    211.6853               225.6385               249.5007
 Red. masses --     12.0067                 3.8663                 3.8998
 Frc consts  --      0.3170                 0.1160                 0.1430
 IR Inten    --      7.8654                 7.6583                 4.3484

                     16                     17                     18
                      A                      A                      A
 Frequencies --    273.6751               304.8158               309.7956
 Red. masses --      6.5194                 6.0754                 5.7813
 Frc consts  --      0.2877                 0.3326                 0.3269
 IR Inten    --     17.2754                 4.7109                13.1811

                     19                     20                     21
                      A                      A                      A
 Frequencies --    363.0425               387.6101               423.1326
 Red. masses --     13.8777                 6.5123                 2.9520
 Frc consts  --      1.0777                 0.5765                 0.3114
 IR Inten    --      6.6041                 5.6370                 0.6064

                     22                     23                     24
                      A                      A                      A
 Frequencies --    508.8676               525.4369               559.2900
 Red. masses --      4.9093                 3.0587                 1.5384
 Frc consts  --      0.7490                 0.4975                 0.2835
 IR Inten    --     18.1557                98.4155               103.2834

                     25                     26                     27
                      A                      A                      A
 Frequencies --    591.2489               634.5421               653.3610
 Red. masses --      3.6563                 5.2051                 1.8307
 Frc consts  --      0.7531                 1.2348                 0.4604
 IR Inten    --     43.6710                 3.6026                 8.5136

                     28                     29                     30
                      A                      A                      A
 Frequencies --    704.9520               717.8246               752.4677
 Red. masses --      8.8736                 1.8686                 3.6792
 Frc consts  --      2.5982                 0.5673                 1.2274
 IR Inten    --    260.7611                58.6739                88.9545

                     31                     32                     33
                      A                      A                      A
 Frequencies --    774.9596               787.2620               841.3143
 Red. masses --      6.7689                 1.9910                 4.8704
 Frc consts  --      2.3951                 0.7271                 2.0311
 IR Inten    --     64.0244                81.7594                21.7170

                     34                     35                     36
                      A                      A                      A
 Frequencies --    860.5187               910.8734               940.5333
 Red. masses --      1.2637                 3.9821                 1.6647
 Frc consts  --      0.5513                 1.9466                 0.8676
 IR Inten    --      1.2708                36.8307                 6.2370

                     37                     38                     39
                      A                      A                      A
 Frequencies --   1003.5226              1008.2712              1020.9115
 Red. masses --      1.3589                 1.1004                 1.3013
 Frc consts  --      0.8063                 0.6591                 0.7991
 IR Inten    --      0.1045                17.2840                 0.5370

                     40                     41                     42
                      A                      A                      A
 Frequencies --   1022.8962              1038.8129              1052.3347
 Red. masses --      5.8307                 4.3087                 1.2406
 Frc consts  --      3.5944                 2.7395                 0.8095
 IR Inten    --      0.7728                13.4322                63.3170

                     43                     44                     45
                      A                      A                      A
 Frequencies --   1067.1121              1077.3325              1124.1984
 Red. masses --      2.1075                 4.7109                 1.5463
 Frc consts  --      1.4140                 3.2215                 1.1514
 IR Inten    --     19.9896                64.9301                14.9410

                     46                     47                     48
                      A                      A                      A
 Frequencies --   1183.6191              1212.0168              1227.9527
 Red. masses --      1.1278                 1.1279                 1.5421
 Frc consts  --      0.9309                 0.9762                 1.3700
 IR Inten    --      5.6360                21.2820               126.5791

                     49                     50                     51
                      A                      A                      A
 Frequencies --   1245.5792              1280.1861              1337.7034
 Red. masses --      2.7737                 3.3877                 3.5339
 Frc consts  --      2.5354                 3.2711                 3.7258
 IR Inten    --    899.5276                40.4866               350.7779

                     52                     53                     54
                      A                      A                      A
 Frequencies --   1343.5637              1365.2655              1391.7282
 Red. masses --      1.4697                 1.4962                 6.1950
 Frc consts  --      1.5631                 1.6431                 7.0697
 IR Inten    --     69.8784                26.0613               589.4177

                     55                     56                     57
                      A                      A                      A
 Frequencies --   1458.4156              1481.6418              1490.5306
 Red. masses --      1.2114                 2.1062                 1.0450
 Frc consts  --      1.5181                 2.7241                 1.3678
 IR Inten    --     10.4782               191.3065                29.4841

                     58                     59                     60
                      A                      A                      A
 Frequencies --   1499.7615              1548.2733              1571.1012
 Red. masses --      1.0343                 2.3884                 1.9054
 Frc consts  --      1.3707                 3.3733                 2.7710
 IR Inten    --     12.6975               182.6681               523.4169

                     61                     62                     63
                      A                      A                      A
 Frequencies --   1635.2268              1665.5118              1673.5030
 Red. masses --      1.0932                 5.4242                 5.0805
 Frc consts  --      1.7222                 8.8650                 8.3831
 IR Inten    --     82.2052                93.9250                69.7612

                     64                     65                     66
                      A                      A                      A
 Frequencies --   1697.2697              3076.7641              3157.8290
 Red. masses --      8.0754                 1.0327                 1.1051
 Frc consts  --     13.7062                 5.7596                 6.4927
 IR Inten    --    730.9274                20.1608                 5.3454

                     67                     68                     69
                      A                      A                      A
 Frequencies --   3176.2929              3188.7820              3199.0058
 Red. masses --      1.1062                 1.0885                 1.0882
 Frc consts  --      6.5755                 6.5214                 6.5611
 IR Inten    --      7.5257                11.7226                 1.5873

                     70                     71                     72
                      A                      A                      A
 Frequencies --   3208.5081              3222.5621              3265.8586
 Red. masses --      1.0931                 1.0980                 1.0923
 Frc consts  --      6.6303                 6.7183                 6.8643
 IR Inten    --     27.5941                22.6817                 1.1832

                     73                     74                     75
                      A                      A                      A
 Frequencies --   3512.8245              3597.6421              3606.2260
 Red. masses --      1.0503                 1.0970                 1.0766
 Frc consts  --      7.6362                 8.3654                 8.2491
 IR Inten    --     66.7340                77.8211               228.7320

 - Thermochemistry -
 -------------------
 Temperature   298.150 Kelvin.  Pressure   1.00000 Atm.
 Atom     1 has atomic number  6 and mass  12.00000

 Molecular mass:   367.89266 amu.
 Principal axes and moments of inertia in atomic units:
                           1         2         3
     Eigenvalues --  3392.91977********************
           X            0.99995   0.00904   0.00510
           Y           -0.00909   0.99990   0.01078
           Z           -0.00501  -0.01082   0.99993
 This molecule is an asymmetric top.
 Rotational symmetry number  1.
 Warning -- assumption of classical behavior for rotation
           may cause significant error
 Rotational temperatures (Kelvin)      0.02553     0.00828     0.00710
 Rotational constants (GHZ):           0.53191     0.17260     0.14793
    1 imaginary frequencies ignored.
 Zero-point vibrational energy     523786.6 (Joules/Mol)
                                  125.18799 (Kcal/Mol)
 Warning -- explicit consideration of  24 degrees of freedom as
           vibrations may cause significant error
 Vibrational temperatures:     29.51    36.62    80.21    95.64   116.44
          (Kelvin)            121.01   179.28   206.55   241.25   245.78
                              261.13   304.57   324.64   358.98   393.76
                              438.56   445.73   522.34   557.68   608.79
                              732.15   755.99   804.69   850.68   912.96
                              940.04  1014.27  1032.79  1082.63  1114.99
                             1132.69  1210.46  1238.09  1310.54  1353.22
                             1443.85  1450.68  1468.86  1471.72  1494.62
                             1514.07  1535.34  1550.04  1617.47  1702.96
                             1743.82  1766.75  1792.11  1841.90  1924.66
                             1933.09  1964.31  2002.39  2098.33  2131.75
                             2144.54  2157.82  2227.62  2260.46  2352.73
                             2396.30  2407.80  2441.99  4426.78  4543.41
                             4569.98  4587.95  4602.66  4616.33  4636.55
                             4698.84  5054.17  5176.20  5188.55

 Zero-point correction=                           0.199500 (Hartree/Particle)
 Thermal correction to Energy=                    0.216399
 Thermal correction to Enthalpy=                  0.217343
 Thermal correction to Gibbs Free Energy=         0.151206
 Sum of electronic and zero-point Energies=          -6180.832241
 Sum of electronic and thermal Energies=             -6180.815342
 Sum of electronic and thermal Enthalpies=           -6180.814398
 Sum of electronic and thermal Free Energies=        -6180.880535

                     E (Thermal)             CV                S
                      KCal/Mol        Cal/Mol-Kelvin    Cal/Mol-Kelvin
 Total                  135.792             59.425            139.197
 Electronic               0.000              0.000              0.000
 Translational            0.889              2.981             43.601
 Rotational               0.889              2.981             34.425
 Vibrational            134.015             53.464             61.171
 Vibration     1          0.593              1.986              6.584
 Vibration     2          0.593              1.985              6.155
 Vibration     3          0.596              1.975              4.602
 Vibration     4          0.598              1.970              4.255
 Vibration     5          0.600              1.962              3.868
 Vibration     6          0.601              1.960              3.793
 Vibration     7          0.610              1.928              3.028
 Vibration     8          0.616              1.910              2.756
 Vibration     9          0.624              1.882              2.461
 Vibration    10          0.626              1.878              2.426
 Vibration    11          0.630              1.865              2.313
 Vibration    12          0.643              1.823              2.029
 Vibration    13          0.650              1.802              1.913
 Vibration    14          0.662              1.764              1.734
 Vibration    15          0.676              1.722              1.573
 Vibration    16          0.696              1.665              1.390
 Vibration    17          0.699              1.655              1.363
 Vibration    18          0.737              1.548              1.109
 Vibration    19          0.756              1.497              1.009
 Vibration    20          0.785              1.420              0.881
 Vibration    21          0.864              1.230              0.636
 Vibration    22          0.880              1.194              0.597
 Vibration    23          0.915              1.119              0.525
 Vibration    24          0.949              1.050              0.465

 Optimization completed.
    -- Stationary point found.
 Normal termination of Gaussian 16 at Sun Mar 28 16:50:34 2021.
