 Gaussian 16, Revision A.03,
 Gaussian 16:  ES64L-G16RevA.03 25-Dec-2016

 ----------------------------------------------------------------------
 # wB97XD def2tzvp, opt=(ts, noeigen, calcfc, maxcycles=70, maxstep=3),
  freq=noraman, scrf=(iefpcm, solvent=water)
 ----------------------------------------------------------------------

 ------------------------
 0_iteration/TS-750-0.out
 ------------------------
 Symbolic Z-matrix:
 Charge =  0 Multiplicity = 1

 SCF Done:  E(RwB97XD) =  -8142.60645869     A.U. after   15 cycles
 SCF Done:  E(RwB97XD) =  -8142.60701413     A.U. after   13 cycles
 SCF Done:  E(RwB97XD) =  -8142.60744424     A.U. after   13 cycles
 SCF Done:  E(RwB97XD) =  -8142.60782514     A.U. after   13 cycles
 SCF Done:  E(RwB97XD) =  -8142.60814581     A.U. after   12 cycles
 SCF Done:  E(RwB97XD) =  -8142.60844477     A.U. after   12 cycles
 SCF Done:  E(RwB97XD) =  -8142.60872294     A.U. after   12 cycles
 SCF Done:  E(RwB97XD) =  -8142.60896380     A.U. after   12 cycles
 SCF Done:  E(RwB97XD) =  -8142.60914304     A.U. after   12 cycles
 SCF Done:  E(RwB97XD) =  -8142.60924240     A.U. after   12 cycles
 SCF Done:  E(RwB97XD) =  -8142.60912617     A.U. after   12 cycles
 SCF Done:  E(RwB97XD) =  -8142.60924752     A.U. after   11 cycles
 SCF Done:  E(RwB97XD) =  -8142.60922368     A.U. after   12 cycles
 SCF Done:  E(RwB97XD) =  -8142.60923024     A.U. after   12 cycles
 SCF Done:  E(RwB97XD) =  -8142.60922340     A.U. after   12 cycles
 SCF Done:  E(RwB97XD) =  -8142.60925843     A.U. after   11 cycles
 SCF Done:  E(RwB97XD) =  -8142.60925253     A.U. after   11 cycles
 SCF Done:  E(RwB97XD) =  -8142.60927295     A.U. after   10 cycles
 SCF Done:  E(RwB97XD) =  -8142.60927299     A.U. after    7 cycles
 Optimization completed.
    -- Stationary point found.
 Normal termination of Gaussian 16 at Fri Mar 26 12:04:54 2021.

 ---------------------------------------------------------------------
 #N Geom=AllCheck Guess=TCheck SCRF=Check GenChk RwB97XD/def2TZVP Freq
 ---------------------------------------------------------------------

 Structure from the checkpoint file:  "/beegfs/scratch/user/q/tla25/Gau-104511.chk"
 ------------------------
 0_iteration/TS-750-0.out
 ------------------------
 Charge =  0 Multiplicity = 1

                         Standard orientation:
 ---------------------------------------------------------------------
 Center     Atomic      Atomic             Coordinates (Angstroms)
 Number     Number       Type             X           Y           Z
 ---------------------------------------------------------------------
      1          6           0       -0.530790    0.225677   -0.038954
      2          6           0       -1.637221   -0.622698    0.450901
      3          8           0       -1.459329   -1.385338    1.413089
      4          6           0        0.761280   -0.249338    0.039683
      5          6           0        1.223646    0.548545    2.698766
      6          1           0        1.287816    0.263998    3.749206
      7          1           0        2.052184    1.209654    2.453778
      8          1           0        0.282633    1.070428    2.530587
      9          7           0        1.257964   -0.626641    1.838488
     10          1           0        2.134969   -1.131936    1.893748
     11          1           0        0.470596   -1.244379    2.039501
     12         35           0        2.209555    0.857058   -0.539795
     13         35           0        1.025149   -2.086694   -0.616673
     14         35           0       -0.891040    2.101267   -0.124269
     15          7           0       -2.842604   -0.534216   -0.149501
     16          6           0       -3.052618    0.002137   -1.478462
     17          6           0       -3.983132   -1.197957    0.447468
     18          1           0       -2.099668    0.187707   -1.965695
     19          1           0       -3.606157   -0.729556   -2.071065
     20          1           0       -3.627386    0.930586   -1.447205
     21          1           0       -4.121821   -2.201085    0.033494
     22          1           0       -3.841682   -1.280704    1.521310
     23          1           0       -4.879614   -0.611307    0.244135
 ---------------------------------------------------------------------

 SCF Done:  E(RwB97XD) =  -8142.60927299     A.U. after    1 cycles

 The electronic state is 1-A.
 Alpha  occ. eigenvalues -- -483.14644-483.13729-483.12969 -62.69482 -62.68569
 Alpha  occ. eigenvalues --  -62.67778 -56.48621 -56.48235 -56.48221 -56.47701
 Alpha  occ. eigenvalues --  -56.47320 -56.47317 -56.46903 -56.46541 -56.46532
 Alpha  occ. eigenvalues --  -19.21750 -14.48842 -14.46737 -10.44252 -10.39367
 Alpha  occ. eigenvalues --  -10.31822 -10.31559 -10.31098 -10.30809  -8.83593
 Alpha  occ. eigenvalues --   -8.82668  -8.81877  -6.65814  -6.64861  -6.64581
 Alpha  occ. eigenvalues --   -6.64539  -6.64045  -6.63657  -6.63645  -6.62887
 Alpha  occ. eigenvalues --   -6.62860  -2.76192  -2.75839  -2.75807  -2.75233
 Alpha  occ. eigenvalues --   -2.74893  -2.74884  -2.74810  -2.74810  -2.74429
 Alpha  occ. eigenvalues --   -2.74095  -2.74073  -2.73911  -2.73910  -2.73137
 Alpha  occ. eigenvalues --   -2.73137  -1.14525  -1.04683  -1.03961  -0.96659
 Alpha  occ. eigenvalues --   -0.90298  -0.87989  -0.82672  -0.81526  -0.79542
 Alpha  occ. eigenvalues --   -0.78790  -0.68505  -0.64158  -0.62063  -0.58977
 Alpha  occ. eigenvalues --   -0.57690  -0.57144  -0.56578  -0.54391  -0.52786
 Alpha  occ. eigenvalues --   -0.51212  -0.48965  -0.48771  -0.48334  -0.47936
 Alpha  occ. eigenvalues --   -0.46497  -0.46309  -0.45504  -0.40753  -0.39727
 Alpha  occ. eigenvalues --   -0.39108  -0.37878  -0.37579  -0.36325  -0.34898
 Alpha  occ. eigenvalues --   -0.32627  -0.27462
 Alpha virt. eigenvalues --    0.01816   0.02961   0.05610   0.10386   0.10692
 Alpha virt. eigenvalues --    0.12402   0.14705   0.15188   0.15918   0.17095
 Alpha virt. eigenvalues --    0.17470   0.17695   0.18856   0.19369   0.19971

 Mulliken charges:
               1
     1  C   -0.402290
     2  C    0.349479
     3  O   -0.548026
     4  C    0.189803
     5  C   -0.300800
     6  H    0.160264
     7  H    0.155637
     8  H    0.157104
     9  N   -0.301837
    10  H    0.287639
    11  H    0.284393
    12  Br  -0.027817
    13  Br  -0.086956
    14  Br  -0.112797
    15  N   -0.095674
    16  C   -0.304332
    17  C   -0.289882
    18  H    0.165475
    19  H    0.144709
    20  H    0.147623
    21  H    0.141568
    22  H    0.143550
    23  H    0.143169
 Sum of Mulliken charges =  -0.00000

 Dipole moment (field-independent basis, Debye):
    X=              0.6289    Y=             -0.1298    Z=              2.2646  Tot=              2.3539
 Quadrupole moment (field-independent basis, Debye-Ang):
   XX=            -93.7966   YY=           -114.5005   ZZ=           -101.9303
   XY=             -0.2003   XZ=             12.9389   YZ=              1.5840

  Exact polarizability: 244.704  -4.468 226.370  16.071  -4.010 194.988
 Approx polarizability: 187.391  -3.404 188.457  10.193  -6.503 166.447

 ******    1 imaginary frequencies (negative Signs) ******

                      1                      2                      3
                      A                      A                      A
 Frequencies --   -394.7315                47.3389                58.5883
 Red. masses --      6.1589                 5.5884                 6.7075
 Frc consts  --      0.5654                 0.0074                 0.0136
 IR Inten    --    740.4557                 3.4437                 3.4278

                      4                      5                      6
                      A                      A                      A
 Frequencies --     86.2361                94.4814               111.0255
 Red. masses --      3.1421                 2.7286                 1.2502
 Frc consts  --      0.0138                 0.0144                 0.0091
 IR Inten    --      1.2946                 1.3618                 0.0458

                      7                      8                      9
                      A                      A                      A
 Frequencies --    119.5562               136.5943               151.2045
 Red. masses --      6.8014                 5.7554                 7.4842
 Frc consts  --      0.0573                 0.0633                 0.1008
 IR Inten    --      2.6322                14.0533                 2.0898

                     10                     11                     12
                      A                      A                      A
 Frequencies --    160.1525               162.6490               168.9080
 Red. masses --      2.4500                 2.1863                 2.4982
 Frc consts  --      0.0370                 0.0341                 0.0420
 IR Inten    --      4.6624                 0.9423                 8.4051

                     13                     14                     15
                      A                      A                      A
 Frequencies --    198.1023               215.0524               237.5733
 Red. masses --      3.1931                 3.6345                 2.6492
 Frc consts  --      0.0738                 0.0990                 0.0881
 IR Inten    --      2.4576                12.3457                 3.4296

                     16                     17                     18
                      A                      A                      A
 Frequencies --    261.9806               276.4306               283.3273
 Red. masses --      2.2321                 5.7718                 3.0262
 Frc consts  --      0.0903                 0.2599                 0.1431
 IR Inten    --      5.4325                16.0295                45.2123

                     19                     20                     21
                      A                      A                      A
 Frequencies --    331.3159               398.8528               470.5145
 Red. masses --      3.6465                 3.1365                 3.7772
 Frc consts  --      0.2358                 0.2940                 0.4927
 IR Inten    --     13.6003                11.2805                78.5555

                     22                     23                     24
                      A                      A                      A
 Frequencies --    495.2063               624.5408               664.6960
 Red. masses --      9.0847                 2.9594                 4.6425
 Frc consts  --      1.3126                 0.6801                 1.2085
 IR Inten    --     87.7254                12.2454                72.8299

                     25                     26                     27
                      A                      A                      A
 Frequencies --    722.6077               773.1420               789.7047
 Red. masses --      7.2141                 2.4739                 5.1543
 Frc consts  --      2.2194                 0.8713                 1.8939
 IR Inten    --    160.8636                40.4505                98.7505

                     28                     29                     30
                      A                      A                      A
 Frequencies --    934.0901              1011.6552              1045.0926
 Red. masses --      4.8867                 1.1069                 2.5601
 Frc consts  --      2.5121                 0.6675                 1.6475
 IR Inten    --     36.1234                71.8023                46.0716

                     31                     32                     33
                      A                      A                      A
 Frequencies --   1079.9245              1086.7571              1097.6144
 Red. masses --      2.7880                 1.3813                 1.4966
 Frc consts  --      1.9157                 0.9612                 1.0623
 IR Inten    --      9.4266                19.7123               128.3982

                     34                     35                     36
                      A                      A                      A
 Frequencies --   1132.2184              1172.2378              1207.0589
 Red. masses --      1.2294                 1.4218                 2.6884
 Frc consts  --      0.9286                 1.1511                 2.3079
 IR Inten    --      0.7430                 3.1371               270.6671

                     37                     38                     39
                      A                      A                      A
 Frequencies --   1225.8590              1315.5851              1361.2109
 Red. masses --      1.3974                 5.3326                 1.3462
 Frc consts  --      1.2372                 5.4379                 1.4697
 IR Inten    --     49.0980                60.3515                46.9965

                     40                     41                     42
                      A                      A                      A
 Frequencies --   1396.8723              1439.8042              1446.4241
 Red. masses --      5.2948                 1.4927                 1.3668
 Frc consts  --      6.0871                 1.8232                 1.6848
 IR Inten    --    936.9059                79.5222                54.4055

                     43                     44                     45
                      A                      A                      A
 Frequencies --   1458.7266              1472.3204              1482.6029
 Red. masses --      1.2284                 1.2261                 1.0763
 Frc consts  --      1.5401                 1.5659                 1.3939
 IR Inten    --     12.9496                34.8344                 7.3361

                     46                     47                     48
                      A                      A                      A
 Frequencies --   1489.1657              1497.2584              1501.1135
 Red. masses --      1.0416                 1.0493                 1.0536
 Frc consts  --      1.3609                 1.3860                 1.3988
 IR Inten    --     25.8885                17.6581                19.7516

                     49                     50                     51
                      A                      A                      A
 Frequencies --   1501.6506              1536.7338              1614.3341
 Red. masses --      1.0357                 1.7784                 1.4814
 Frc consts  --      1.3760                 2.4745                 2.2746
 IR Inten    --     16.8392               204.1534               442.0816

                     52                     53                     54
                      A                      A                      A
 Frequencies --   1651.0754              3041.7714              3047.6489
 Red. masses --      2.5276                 1.0418                 1.0382
 Frc consts  --      4.0597                 5.6790                 5.6816
 IR Inten    --    383.2920                62.9350                96.8437

                     55                     56                     57
                      A                      A                      A
 Frequencies --   3071.5559              3105.3440              3114.9049
 Red. masses --      1.0336                 1.1032                 1.0983
 Frc consts  --      5.7455                 6.2682                 6.2783
 IR Inten    --     33.8024                57.0308                18.2369

                     58                     59                     60
                      A                      A                      A
 Frequencies --   3149.5662              3171.9083              3177.0605
 Red. masses --      1.1038                 1.1059                 1.0998
 Frc consts  --      6.4510                 6.5552                 6.5404
 IR Inten    --     10.8013                11.7341                10.9708

                     61                     62                     63
                      A                      A                      A
 Frequencies --   3177.2246              3427.7405              3582.1215
 Red. masses --      1.1006                 1.0598                 1.0897
 Frc consts  --      6.5458                 7.3368                 8.2384
 IR Inten    --      9.7579               132.1359               117.2243

 - Thermochemistry -
 -------------------
 Temperature   298.150 Kelvin.  Pressure   1.00000 Atm.
 Atom     1 has atomic number  6 and mass  12.00000

 Molecular mass:   363.84215 amu.
 Principal axes and moments of inertia in atomic units:
                           1         2         3
     Eigenvalues --  4011.779215210.653277103.66153
           X            0.99313   0.10843   0.04410
           Y           -0.10817   0.99410  -0.00835
           Z           -0.04474   0.00352   0.99899
 This molecule is an asymmetric top.
 Rotational symmetry number  1.
 Warning -- assumption of classical behavior for rotation
           may cause significant error
 Rotational temperatures (Kelvin)      0.02159     0.01662     0.01219
 Rotational constants (GHZ):           0.44986     0.34636     0.25406
    1 imaginary frequencies ignored.
 Zero-point vibrational energy     456160.1 (Joules/Mol)
                                  109.02488 (Kcal/Mol)
 Warning -- explicit consideration of  21 degrees of freedom as
           vibrations may cause significant error
 Vibrational temperatures:     68.11    84.30   124.07   135.94   159.74
          (Kelvin)            172.01   196.53   217.55   230.42   234.02
                              243.02   285.03   309.41   341.82   376.93
                              397.72   407.64   476.69   573.86   676.97
                              712.49   898.57   956.35  1039.67  1112.38
                             1136.21  1343.95  1455.55  1503.66  1553.77
                             1563.60  1579.22  1629.01  1686.59  1736.69
                             1763.74  1892.83  1958.48  2009.79  2071.56
                             2081.08  2098.78  2118.34  2133.13  2142.58
                             2154.22  2159.77  2160.54  2211.02  2322.67
                             2375.53  4376.43  4384.89  4419.28  4467.90
                             4481.65  4531.52  4563.67  4571.08  4571.32
                             4931.75  5153.87

 Zero-point correction=                           0.173742 (Hartree/Particle)
 Thermal correction to Energy=                    0.189348
 Thermal correction to Enthalpy=                  0.190292
 Thermal correction to Gibbs Free Energy=         0.128657
 Sum of electronic and zero-point Energies=          -8142.435531
 Sum of electronic and thermal Energies=             -8142.419925
 Sum of electronic and thermal Enthalpies=           -8142.418981
 Sum of electronic and thermal Free Energies=        -8142.480616

                     E (Thermal)             CV                S
                      KCal/Mol        Cal/Mol-Kelvin    Cal/Mol-Kelvin
 Total                  118.818             51.626            129.722
 Electronic               0.000              0.000              0.000
 Translational            0.889              2.981             43.568
 Rotational               0.889              2.981             33.362
 Vibrational            117.040             45.664             52.792
 Vibration     1          0.595              1.979              4.926
 Vibration     2          0.596              1.974              4.504
 Vibration     3          0.601              1.959              3.744
 Vibration     4          0.603              1.953              3.565
 Vibration     5          0.607              1.940              3.251
 Vibration     6          0.609              1.933              3.108
 Vibration     7          0.614              1.917              2.851
 Vibration     8          0.619              1.901              2.657
 Vibration     9          0.622              1.891              2.548
 Vibration    10          0.623              1.888              2.519
 Vibration    11          0.625              1.881              2.448
 Vibration    12          0.637              1.843              2.151
 Vibration    13          0.645              1.818              2.000
 Vibration    14          0.656              1.783              1.821
 Vibration    15          0.669              1.742              1.649
 Vibration    16          0.678              1.717              1.556
 Vibration    17          0.682              1.705              1.513
 Vibration    18          0.714              1.613              1.254
 Vibration    19          0.765              1.473              0.967
 Vibration    20          0.828              1.315              0.736
 Vibration    21          0.851              1.261              0.670

 Optimization completed.
    -- Stationary point found.
 Normal termination of Gaussian 16 at Fri Mar 26 12:40:23 2021.
