 Gaussian 16, Revision A.03,
 Gaussian 16:  ES64L-G16RevA.03 25-Dec-2016

 ----------------------------------------------------------------------
 # wB97XD def2tzvp, opt=(ts, noeigen, calcfc, maxcycles=70, maxstep=1),
  freq=noraman, scrf=(iefpcm, solvent=water)
 ----------------------------------------------------------------------

 ------------------------
 0_iteration/TS-769-0.out
 ------------------------
 Symbolic Z-matrix:
 Charge =  0 Multiplicity = 1

 SCF Done:  E(RwB97XD) =  -3320.99751233     A.U. after   15 cycles
 SCF Done:  E(RwB97XD) =  -3320.99748997     A.U. after   10 cycles
 SCF Done:  E(RwB97XD) =  -3320.99747056     A.U. after   10 cycles
 SCF Done:  E(RwB97XD) =  -3320.99745415     A.U. after   10 cycles
 SCF Done:  E(RwB97XD) =  -3320.99744090     A.U. after   10 cycles
 SCF Done:  E(RwB97XD) =  -3320.99743114     A.U. after   10 cycles
 SCF Done:  E(RwB97XD) =  -3320.99742568     A.U. after   10 cycles
 SCF Done:  E(RwB97XD) =  -3320.99742700     A.U. after   10 cycles
 SCF Done:  E(RwB97XD) =  -3320.99744511     A.U. after   10 cycles
 SCF Done:  E(RwB97XD) =  -3320.99749212     A.U. after   11 cycles
 SCF Done:  E(RwB97XD) =  -3320.99988222     A.U. after   10 cycles
 SCF Done:  E(RwB97XD) =  -3320.99991804     A.U. after   10 cycles
 SCF Done:  E(RwB97XD) =  -3320.99994442     A.U. after   10 cycles
 SCF Done:  E(RwB97XD) =  -3320.99996512     A.U. after   10 cycles
 SCF Done:  E(RwB97XD) =  -3320.99998193     A.U. after   10 cycles
 SCF Done:  E(RwB97XD) =  -3320.99999363     A.U. after   10 cycles
 SCF Done:  E(RwB97XD) =  -3321.00000034     A.U. after   10 cycles
 SCF Done:  E(RwB97XD) =  -3321.00000300     A.U. after   10 cycles
 SCF Done:  E(RwB97XD) =  -3321.00000326     A.U. after    8 cycles
 Optimization completed.
    -- Stationary point found.
 Normal termination of Gaussian 16 at Sun Feb 21 17:01:21 2021.

 ---------------------------------------------------------------------
 #N Geom=AllCheck Guess=TCheck SCRF=Check GenChk RwB97XD/def2TZVP Freq
 ---------------------------------------------------------------------

 Structure from the checkpoint file:  "/beegfs/scratch/user/q/tla25/Gau-14339.chk"
 ------------------------
 0_iteration/TS-769-0.out
 ------------------------
 Charge =  0 Multiplicity = 1

                         Standard orientation:
 ---------------------------------------------------------------------
 Center     Atomic      Atomic             Coordinates (Angstroms)
 Number     Number       Type             X           Y           Z
 ---------------------------------------------------------------------
      1          6           0       -0.982250   -0.878762   -0.420300
      2          6           0       -2.320985   -0.968791    0.052561
      3          8           0       -3.198437   -1.660690   -0.458922
      4          6           0       -0.013956   -0.062205    0.121672
      5          6           0       -1.300670    2.257923   -0.870003
      6          1           0       -1.599699    2.586360    0.123183
      7          1           0       -1.332241    3.104795   -1.554875
      8          1           0       -1.995297    1.493851   -1.221818
      9          7           0        0.030288    1.675016   -0.805331
     10          1           0        0.701022    2.285598   -0.351774
     11          1           0        0.380849    1.443814   -1.728050
     12         35           0        1.821273   -0.546322   -0.248077
     13         17           0       -0.207992    0.558514    1.751498
     14          1           0       -0.720824   -1.441160   -1.307397
     15          1           0       -2.559834   -0.375301    0.953068
 ---------------------------------------------------------------------

 SCF Done:  E(RwB97XD) =  -3321.00000326     A.U. after    1 cycles

 The electronic state is 1-A.
 Alpha  occ. eigenvalues -- -483.14493-101.71837 -62.69350 -56.48478 -56.48102
 Alpha  occ. eigenvalues --  -56.48092 -19.21808 -14.49306 -10.45054 -10.35623
 Alpha  occ. eigenvalues --  -10.32053 -10.27271  -9.60412  -8.83469  -7.35087
 Alpha  occ. eigenvalues --   -7.34173  -7.34148  -6.65665  -6.64466  -6.64434
 Alpha  occ. eigenvalues --   -2.76043  -2.75702  -2.75678  -2.74709  -2.74708
 Alpha  occ. eigenvalues --   -1.12085  -1.05227  -0.99825  -0.90687  -0.85798
 Alpha  occ. eigenvalues --   -0.79368  -0.71765  -0.64921  -0.63774  -0.58355
 Alpha  occ. eigenvalues --   -0.57674  -0.56058  -0.54500  -0.49914  -0.48795
 Alpha  occ. eigenvalues --   -0.48268  -0.47719  -0.46393  -0.42517  -0.40921
 Alpha  occ. eigenvalues --   -0.38316  -0.37940  -0.33046  -0.29992
 Alpha virt. eigenvalues --    0.01745   0.03788   0.08779   0.10660   0.13210
 Alpha virt. eigenvalues --    0.14377   0.15559   0.17555   0.17920   0.18745
 Alpha virt. eigenvalues --    0.20151   0.22412   0.23006   0.24470   0.26241

 Mulliken charges:
               1
     1  C   -0.361794
     2  C    0.133974
     3  O   -0.483023
     4  C    0.148063
     5  C   -0.305204
     6  H    0.159883
     7  H    0.166348
     8  H    0.159775
     9  N   -0.342007
    10  H    0.297008
    11  H    0.289421
    12  Br  -0.050680
    13  Cl  -0.048872
    14  H    0.153340
    15  H    0.083770
 Sum of Mulliken charges =  -0.00000

 Dipole moment (field-independent basis, Debye):
    X=              5.0385    Y=              8.2908    Z=             -1.5903  Tot=              9.8312
 Quadrupole moment (field-independent basis, Debye-Ang):
   XX=            -86.0306   YY=            -63.9007   ZZ=            -63.7773
   XY=            -12.6981   XZ=             -4.8446   YZ=             -5.6640

  Exact polarizability: 167.544  20.568 139.464  -1.923   4.951 115.135
 Approx polarizability: 132.462  14.652 113.985  -1.365   5.996 101.561

 ******    1 imaginary frequencies (negative Signs) ******

                      1                      2                      3
                      A                      A                      A
 Frequencies --   -352.5187                56.4703                91.6345
 Red. masses --      5.8417                 2.0780                 4.3944
 Frc consts  --      0.4277                 0.0039                 0.0217
 IR Inten    --    787.3046                 0.4398                 4.1475

                      4                      5                      6
                      A                      A                      A
 Frequencies --    144.7036               162.3812               184.9627
 Red. masses --      3.2286                 2.3079                 3.3515
 Frc consts  --      0.0398                 0.0359                 0.0676
 IR Inten    --      5.1376                 3.9813                 1.4389

                      7                      8                      9
                      A                      A                      A
 Frequencies --    201.8649               215.7952               271.9097
 Red. masses --      2.1035                 5.0653                 4.5954
 Frc consts  --      0.0505                 0.1390                 0.2002
 IR Inten    --      3.5390                12.7821                11.3003

                     10                     11                     12
                      A                      A                      A
 Frequencies --    282.2232               317.8478               435.9646
 Red. masses --      3.4442                 7.6890                 6.6290
 Frc consts  --      0.1616                 0.4577                 0.7423
 IR Inten    --     13.0076                11.2811                27.3344

                     13                     14                     15
                      A                      A                      A
 Frequencies --    502.0268               632.4201               716.3119
 Red. masses --      4.9580                 1.9109                 1.9504
 Frc consts  --      0.7362                 0.4503                 0.5896
 IR Inten    --     76.8143                 0.9681               110.4988

                     16                     17                     18
                      A                      A                      A
 Frequencies --    776.8699               809.0653               990.8606
 Red. masses --      1.6774                 4.6696                 1.0736
 Frc consts  --      0.5965                 1.8009                 0.6210
 IR Inten    --    162.4242               227.2609                36.9614

                     19                     20                     21
                      A                      A                      A
 Frequencies --   1030.8456              1037.8673              1082.1138
 Red. masses --      1.1457                 1.6096                 4.8282
 Frc consts  --      0.7173                 1.0215                 3.3311
 IR Inten    --     94.7199                12.1734                27.7442

                     22                     23                     24
                      A                      A                      A
 Frequencies --   1202.3530              1213.7499              1251.1754
 Red. masses --      2.5018                 1.4204                 1.8276
 Frc consts  --      2.1310                 1.2329                 1.6856
 IR Inten    --    387.0589                27.1289               220.6789

                     25                     26                     27
                      A                      A                      A
 Frequencies --   1339.7471              1402.0438              1453.6283
 Red. masses --      1.3280                 1.8194                 1.1840
 Frc consts  --      1.4045                 2.1072                 1.4741
 IR Inten    --      0.2472               783.2033                 1.3719

                     28                     29                     30
                      A                      A                      A
 Frequencies --   1490.9513              1500.2470              1507.8979
 Red. masses --      1.0381                 1.0788                 2.0423
 Frc consts  --      1.3596                 1.4306                 2.7360
 IR Inten    --     22.0801                44.8332               325.4027

                     31                     32                     33
                      A                      A                      A
 Frequencies --   1637.8778              1684.4443              2960.6742
 Red. masses --      1.0915                 6.6894                 1.0823
 Frc consts  --      1.7252                11.1828                 5.5898
 IR Inten    --     65.8776              1096.6108               100.9152

                     34                     35                     36
                      A                      A                      A
 Frequencies --   3068.0013              3143.5531              3169.1463
 Red. masses --      1.0333                 1.1041                 1.1052
 Frc consts  --      5.7304                 6.4285                 6.5400
 IR Inten    --     24.0432                 6.6059                 9.2904

                     37                     38                     39
                      A                      A                      A
 Frequencies --   3207.1061              3517.0722              3605.1104
 Red. masses --      1.0891                 1.0504                 1.0976
 Frc consts  --      6.6000                 7.6551                 8.4047
 IR Inten    --      0.2615                69.1691                58.3219

 - Thermochemistry -
 -------------------
 Temperature   298.150 Kelvin.  Pressure   1.00000 Atm.
 Atom     1 has atomic number  6 and mass  12.00000

 Molecular mass:   198.93995 amu.
 Principal axes and moments of inertia in atomic units:
                           1         2         3
     Eigenvalues --  1330.332592432.642032733.25252
           X            0.99985   0.00410   0.01707
           Y           -0.00193   0.99208  -0.12557
           Z           -0.01745   0.12552   0.99194
 This molecule is an asymmetric top.
 Rotational symmetry number  1.
 Warning -- assumption of classical behavior for rotation
           may cause significant error
 Rotational temperatures (Kelvin)      0.06511     0.03560     0.03169
 Rotational constants (GHZ):           1.35661     0.74189     0.66029
    1 imaginary frequencies ignored.
 Zero-point vibrational energy     288891.7 (Joules/Mol)
                                   69.04677 (Kcal/Mol)
 Warning -- explicit consideration of  12 degrees of freedom as
           vibrations may cause significant error
 Vibrational temperatures:     81.25   131.84   208.20   233.63   266.12
          (Kelvin)            290.44   310.48   391.22   406.06   457.31
                              627.26   722.30   909.91  1030.61  1117.74
                             1164.06  1425.63  1483.16  1493.26  1556.92
                             1729.92  1746.32  1800.16  1927.60  2017.23
                             2091.45  2145.15  2158.52  2169.53  2356.54
                             2423.54  4259.75  4414.17  4522.87  4559.69
                             4614.31  5060.28  5186.95

 Zero-point correction=                           0.110033 (Hartree/Particle)
 Thermal correction to Energy=                    0.119816
 Thermal correction to Enthalpy=                  0.120760
 Thermal correction to Gibbs Free Energy=         0.073365
 Sum of electronic and zero-point Energies=          -3320.889970
 Sum of electronic and thermal Energies=             -3320.880187
 Sum of electronic and thermal Enthalpies=           -3320.879243
 Sum of electronic and thermal Free Energies=        -3320.926639

                     E (Thermal)             CV                S
                      KCal/Mol        Cal/Mol-Kelvin    Cal/Mol-Kelvin
 Total                   75.186             32.571             99.752
 Electronic               0.000              0.000              0.000
 Translational            0.889              2.981             41.768
 Rotational               0.889              2.981             30.560
 Vibrational             73.408             26.609             27.425
 Vibration     1          0.596              1.975              4.577
 Vibration     2          0.602              1.955              3.625
 Vibration     3          0.616              1.908              2.741
 Vibration     4          0.622              1.889              2.522
 Vibration     5          0.631              1.860              2.278
 Vibration     6          0.639              1.837              2.116
 Vibration     7          0.645              1.817              1.994
 Vibration     8          0.675              1.725              1.584
 Vibration     9          0.681              1.707              1.520
 Vibration    10          0.704              1.639              1.321
 Vibration    11          0.796              1.392              0.839
 Vibration    12          0.857              1.246              0.653

 Optimization completed.
    -- Stationary point found.
 Normal termination of Gaussian 16 at Sun Feb 21 17:08:00 2021.
