 Gaussian 16, Revision A.03,
 Gaussian 16:  ES64L-G16RevA.03 25-Dec-2016

 ----------------------------------------------------------------------
 # wB97XD def2tzvp, opt=(ts, noeigen, calcfc, maxcycles=70, maxstep=8),
  freq=noraman, scrf=(iefpcm, solvent=water)
 ----------------------------------------------------------------------

 ------------------------
 1_iteration/TS-763-1.out
 ------------------------
 Symbolic Z-matrix:
 Charge =  0 Multiplicity = 1

 SCF Done:  E(RwB97XD) =  -3607.43206493     A.U. after   15 cycles
 SCF Done:  E(RwB97XD) =  -3607.43274608     A.U. after   12 cycles
 SCF Done:  E(RwB97XD) =  -3607.43311070     A.U. after   12 cycles
 SCF Done:  E(RwB97XD) =  -3607.43330801     A.U. after   12 cycles
 SCF Done:  E(RwB97XD) =  -3607.43342784     A.U. after   12 cycles
 SCF Done:  E(RwB97XD) =  -3607.43347265     A.U. after   12 cycles
 SCF Done:  E(RwB97XD) =  -3607.43349775     A.U. after   10 cycles
 SCF Done:  E(RwB97XD) =  -3607.43350666     A.U. after   12 cycles
 SCF Done:  E(RwB97XD) =  -3607.43351147     A.U. after   11 cycles
 SCF Done:  E(RwB97XD) =  -3607.43350490     A.U. after   11 cycles
 SCF Done:  E(RwB97XD) =  -3607.43351613     A.U. after   10 cycles
 SCF Done:  E(RwB97XD) =  -3607.43351669     A.U. after    8 cycles
 Optimization completed.
    -- Stationary point found.
 Normal termination of Gaussian 16 at Mon Feb 22 08:47:30 2021.

 ---------------------------------------------------------------------
 #N Geom=AllCheck Guess=TCheck SCRF=Check GenChk RwB97XD/def2TZVP Freq
 ---------------------------------------------------------------------

 Structure from the checkpoint file:  "/beegfs/scratch/user/q/tla25/Gau-100438.chk"
 ------------------------
 1_iteration/TS-763-1.out
 ------------------------
 Charge =  0 Multiplicity = 1

                         Standard orientation:
 ---------------------------------------------------------------------
 Center     Atomic      Atomic             Coordinates (Angstroms)
 Number     Number       Type             X           Y           Z
 ---------------------------------------------------------------------
      1          6           0       -0.089561    0.809428   -0.238470
      2          6           0       -0.350607    2.243852   -0.263911
      3          8           0        0.562587    3.068758   -0.181113
      4          6           0       -1.084720   -0.151202   -0.199683
      5          6           0       -1.355941    0.237090    2.546677
      6          1           0       -0.707842   -0.619774    2.720647
      7          1           0       -0.746657    1.121300    2.366619
      8          1           0       -1.980952    0.405216    3.422567
      9          7           0       -2.170355   -0.005794    1.365380
     10          1           0       -2.727519   -0.849944    1.440814
     11          1           0       -2.792715    0.775076    1.186596
     12         35           0       -0.531761   -1.987558   -0.044949
     13         17           0       -2.492144   -0.096914   -1.348958
     14          6           0        1.351596    0.424610   -0.132837
     15          6           0        2.029675    0.416660    1.083412
     16          6           0        3.369121    0.063254    1.152220
     17          6           0        4.058285   -0.285110   -0.001095
     18          6           0        3.398947   -0.271414   -1.221770
     19          6           0        2.059099    0.083425   -1.283398
     20          1           0        1.502694    0.687881    1.989175
     21          1           0        3.875773    0.059045    2.109482
     22          1           0        5.103469   -0.563227    0.051411
     23          1           0        3.928159   -0.537702   -2.128421
     24          1           0        1.545429    0.090723   -2.237465
     25          7           0       -1.651983    2.695307   -0.284171
     26          1           0       -1.730104    3.690317   -0.419315
     27          1           0       -2.351312    2.152954   -0.763022
 ---------------------------------------------------------------------

 SCF Done:  E(RwB97XD) =  -3607.43351669     A.U. after    2 cycles

 The electronic state is 1-A.
 Alpha  occ. eigenvalues -- -483.14585-101.71005 -62.69417 -56.48554 -56.48174
 Alpha  occ. eigenvalues --  -56.48156 -19.20469 -14.50231 -14.43982 -10.45055
 Alpha  occ. eigenvalues --  -10.38540 -10.32335 -10.29953 -10.28737 -10.28697
 Alpha  occ. eigenvalues --  -10.28652 -10.28473 -10.28434 -10.27796  -9.59607
 Alpha  occ. eigenvalues --   -8.83519  -7.34238  -7.33391  -7.33356  -6.65731
 Alpha  occ. eigenvalues --   -6.64518  -6.64465  -2.76110  -2.75767  -2.75726
 Alpha  occ. eigenvalues --   -2.74744  -2.74744  -1.13139  -1.05979  -1.00038
 Alpha  occ. eigenvalues --   -0.98321  -0.96225  -0.90835  -0.87640  -0.84716
 Alpha  occ. eigenvalues --   -0.82302  -0.79851  -0.71571  -0.70199  -0.69943
 Alpha  occ. eigenvalues --   -0.65182  -0.64412  -0.62268  -0.59652  -0.58670
 Alpha  occ. eigenvalues --   -0.57912  -0.55686  -0.54393  -0.53881  -0.52392
 Alpha  occ. eigenvalues --   -0.50973  -0.50507  -0.49762  -0.48774  -0.48456
 Alpha  occ. eigenvalues --   -0.47486  -0.46021  -0.42788  -0.42454  -0.42043
 Alpha  occ. eigenvalues --   -0.40515  -0.38557  -0.38170  -0.36113  -0.34280
 Alpha  occ. eigenvalues --   -0.33312  -0.32453  -0.28677
 Alpha virt. eigenvalues --    0.02444   0.04377   0.05441   0.05840   0.07529
 Alpha virt. eigenvalues --    0.10410   0.12899   0.13899   0.14517   0.15848
 Alpha virt. eigenvalues --    0.16362   0.16893   0.17588   0.18244   0.18676

 Mulliken charges:
               1
     1  C   -0.286205
     2  C    0.278043
     3  O   -0.510036
     4  C    0.077451
     5  C   -0.314565
     6  H    0.167737
     7  H    0.161181
     8  H    0.173687
     9  N   -0.295258
    10  H    0.299465
    11  H    0.285609
    12  Br  -0.030138
    13  Cl  -0.096098
    14  C    0.267848
    15  C   -0.225662
    16  C   -0.164979
    17  C   -0.134919
    18  C   -0.153232
    19  C   -0.236291
    20  H    0.142388
    21  H    0.138239
    22  H    0.142146
    23  H    0.138882
    24  H    0.136204
    25  N   -0.481006
    26  H    0.262579
    27  H    0.256932
 Sum of Mulliken charges =  -0.00000

 Dipole moment (field-independent basis, Debye):
    X=             -7.2742    Y=             -3.6087    Z=              4.4109  Tot=              9.2408
 Quadrupole moment (field-independent basis, Debye-Ang):
   XX=            -90.4132   YY=           -121.2675   ZZ=            -95.5100
   XY=            -13.4363   XZ=             -7.3759   YZ=             -1.0841

  Exact polarizability: 272.470  -0.847 224.862   0.410  -0.625 225.148
 Approx polarizability: 217.081  -1.191 185.880   1.977   1.097 193.037

 ******    1 imaginary frequencies (negative Signs) ******

                      1                      2                      3
                      A                      A                      A
 Frequencies --   -385.4700                35.4564                52.7048
 Red. masses --      5.5674                 3.8373                 7.8196
 Frc consts  --      0.4874                 0.0028                 0.0128
 IR Inten    --    552.2912                 0.2670                16.2076

                      4                      5                      6
                      A                      A                      A
 Frequencies --     66.7993                78.5871                93.8749
 Red. masses --      6.2367                 3.0026                 4.7900
 Frc consts  --      0.0164                 0.0109                 0.0249
 IR Inten    --      2.2527                 0.5527                 9.4239

                      7                      8                      9
                      A                      A                      A
 Frequencies --    116.2989               151.0262               158.6693
 Red. masses --      4.3772                 2.3013                 3.6826
 Frc consts  --      0.0349                 0.0309                 0.0546
 IR Inten    --      6.9990                 3.9080                 4.5059

                     10                     11                     12
                      A                      A                      A
 Frequencies --    194.0736               209.6095               227.1571
 Red. masses --      2.2321                 3.4128                 6.0042
 Frc consts  --      0.0495                 0.0883                 0.1825
 IR Inten    --      3.0020                 5.9928                 8.6842

                     13                     14                     15
                      A                      A                      A
 Frequencies --    239.1245               267.6170               306.1819
 Red. masses --      5.5115                 5.0694                 6.8238
 Frc consts  --      0.1857                 0.2139                 0.3769
 IR Inten    --      1.8113                18.2390                 7.2844

                     16                     17                     18
                      A                      A                      A
 Frequencies --    343.9595               374.6249               401.2771
 Red. masses --      8.1966                 4.9451                 4.4498
 Frc consts  --      0.5713                 0.4089                 0.4222
 IR Inten    --     24.1802                 8.8792                13.5280

                     19                     20                     21
                      A                      A                      A
 Frequencies --    423.2768               498.5066               524.7319
 Red. masses --      2.8520                 1.4947                 2.9809
 Frc consts  --      0.3011                 0.2189                 0.4836
 IR Inten    --      0.0505                18.2391                 5.1225

                     22                     23                     24
                      A                      A                      A
 Frequencies --    538.8396               576.2116               616.2885
 Red. masses --      1.4754                 2.3201                 3.9400
 Frc consts  --      0.2524                 0.4539                 0.8817
 IR Inten    --    428.3775                53.1054                75.6745

                     25                     26                     27
                      A                      A                      A
 Frequencies --    639.7910               644.1362               677.6471
 Red. masses --      4.8471                 2.3117                 2.6761
 Frc consts  --      1.1690                 0.5651                 0.7240
 IR Inten    --      5.0303                66.9248               120.2518

                     28                     29                     30
                      A                      A                      A
 Frequencies --    724.6568               750.7843               797.8402
 Red. masses --      1.5691                 4.2148                 2.5020
 Frc consts  --      0.4855                 1.3998                 0.9383
 IR Inten    --     95.5707               168.4877                49.6455

                     31                     32                     33
                      A                      A                      A
 Frequencies --    801.5681               852.9018               875.3161
 Red. masses --      8.6720                 3.6590                 1.2506
 Frc consts  --      3.2829                 1.5682                 0.5646
 IR Inten    --     80.4593                64.4779                 0.2633

                     34                     35                     36
                      A                      A                      A
 Frequencies --    953.3972              1009.5431              1012.2076
 Red. masses --      1.5049                 1.3659                 1.7314
 Frc consts  --      0.8059                 0.8202                 1.0452
 IR Inten    --      4.3280                 1.8250                23.5944

                     37                     38                     39
                      A                      A                      A
 Frequencies --   1014.3025              1026.4524              1027.7437
 Red. masses --      1.9579                 1.3517                 5.5848
 Frc consts  --      1.1868                 0.8391                 3.4756
 IR Inten    --      6.2284                 0.4678                 0.7593

                     40                     41                     42
                      A                      A                      A
 Frequencies --   1056.4338              1065.3875              1089.5178
 Red. masses --      1.1749                 1.9556                 4.9028
 Frc consts  --      0.7725                 1.3078                 3.4290
 IR Inten    --     61.6755                10.4180                53.9602

                     43                     44                     45
                      A                      A                      A
 Frequencies --   1109.3914              1118.9091              1181.2832
 Red. masses --      1.5489                 1.7420                 1.1332
 Frc consts  --      1.1232                 1.2850                 0.9317
 IR Inten    --     13.2966               146.3060                 0.1190

                     46                     47                     48
                      A                      A                      A
 Frequencies --   1206.4815              1231.2654              1258.3871
 Red. masses --      1.1204                 1.3904                 4.0359
 Frc consts  --      0.9608                 1.2419                 3.7655
 IR Inten    --      0.2863                40.3590               132.4730

                     49                     50                     51
                      A                      A                      A
 Frequencies --   1307.4932              1348.2148              1355.9096
 Red. masses --      4.5068                 1.4025                 1.4565
 Frc consts  --      4.5394                 1.5020                 1.5777
 IR Inten    --      0.9476                66.8206                12.6605

                     52                     53                     54
                      A                      A                      A
 Frequencies --   1363.9718              1436.6656              1461.0367
 Red. masses --      3.7428                 2.8538                 1.5486
 Frc consts  --      4.1026                 3.4704                 1.9477
 IR Inten    --    925.3110               305.5905               101.6477

                     55                     56                     57
                      A                      A                      A
 Frequencies --   1487.0370              1495.2351              1498.7656
 Red. masses --      2.1844                 1.0380                 1.0478
 Frc consts  --      2.8460                 1.3674                 1.3867
 IR Inten    --      6.6721                27.5924                43.6407

                     58                     59                     60
                      A                      A                      A
 Frequencies --   1545.1569              1624.3104              1628.5380
 Red. masses --      2.4760                 1.4291                 1.1424
 Frc consts  --      3.4829                 2.2215                 1.7851
 IR Inten    --     54.7318               402.8435               129.4881

                     61                     62                     63
                      A                      A                      A
 Frequencies --   1646.5101              1666.4761              1674.1060
 Red. masses --      5.7613                 3.6291                 5.2909
 Frc consts  --      9.2024                 5.9380                 8.7366
 IR Inten    --      1.4613               370.4917               318.5288

                     64                     65                     66
                      A                      A                      A
 Frequencies --   3076.7538              3160.3268              3172.0414
 Red. masses --      1.0324                 1.1050                 1.1062
 Frc consts  --      5.7580                 6.5024                 6.5577
 IR Inten    --     20.0165                 7.6625                 7.6645

                     67                     68                     69
                      A                      A                      A
 Frequencies --   3188.8907              3194.9268              3204.2947
 Red. masses --      1.0859                 1.0881                 1.0923
 Frc consts  --      6.5063                 6.5440                 6.6079
 IR Inten    --      4.1213                 0.5926                25.9664

                     70                     71                     72
                      A                      A                      A
 Frequencies --   3212.7799              3220.7262              3516.7579
 Red. masses --      1.0945                 1.0981                 1.0505
 Frc consts  --      6.6562                 6.7111                 7.6550
 IR Inten    --     44.9817                14.5128                69.6147

                     73                     74                     75
                      A                      A                      A
 Frequencies --   3595.0050              3601.9799              3703.9467
 Red. masses --      1.0470                 1.0969                 1.1005
 Frc consts  --      7.9726                 8.3850                 8.8959
 IR Inten    --     40.4742                73.2946               112.5879

 - Thermochemistry -
 -------------------
 Temperature   298.150 Kelvin.  Pressure   1.00000 Atm.
 Atom     1 has atomic number  6 and mass  12.00000

 Molecular mass:   289.98215 amu.
 Principal axes and moments of inertia in atomic units:
                           1         2         3
     Eigenvalues --  3373.707954853.179456186.65085
           X            0.99794  -0.05962  -0.02374
           Y            0.05976   0.99820   0.00498
           Z            0.02340  -0.00639   0.99971
 This molecule is an asymmetric top.
 Rotational symmetry number  1.
 Warning -- assumption of classical behavior for rotation
           may cause significant error
 Rotational temperatures (Kelvin)      0.02567     0.01785     0.01400
 Rotational constants (GHZ):           0.53494     0.37187     0.29172
    1 imaginary frequencies ignored.
 Zero-point vibrational energy     550330.6 (Joules/Mol)
                                  131.53218 (Kcal/Mol)
 Warning -- explicit consideration of  23 degrees of freedom as
           vibrations may cause significant error
 Vibrational temperatures:     51.01    75.83    96.11   113.07   135.07
          (Kelvin)            167.33   217.29   228.29   279.23   301.58
                              326.83   344.05   385.04   440.53   494.88
                              539.00   577.35   609.00   717.24   754.97
                              775.27   829.04   886.70   920.52   926.77
                              974.98  1042.62  1080.21  1147.91  1153.28
                             1227.14  1259.38  1371.73  1452.51  1456.34
                             1459.36  1476.84  1478.69  1519.97  1532.86
                             1567.57  1596.17  1609.86  1699.60  1735.86
                             1771.52  1810.54  1881.19  1939.78  1950.85
                             1962.45  2067.04  2102.11  2139.51  2151.31
                             2156.39  2223.14  2337.02  2343.10  2368.96
                             2397.69  2408.67  4426.76  4547.01  4563.86
                             4588.10  4596.79  4610.27  4622.47  4633.91
                             5059.83  5172.41  5182.45  5329.15

 Zero-point correction=                           0.209610 (Hartree/Particle)
 Thermal correction to Energy=                    0.225066
 Thermal correction to Enthalpy=                  0.226010
 Thermal correction to Gibbs Free Energy=         0.165387
 Sum of electronic and zero-point Energies=          -3607.223907
 Sum of electronic and thermal Energies=             -3607.208451
 Sum of electronic and thermal Enthalpies=           -3607.207507
 Sum of electronic and thermal Free Energies=        -3607.268130

                     E (Thermal)             CV                S
                      KCal/Mol        Cal/Mol-Kelvin    Cal/Mol-Kelvin
 Total                  141.231             56.220            127.592
 Electronic               0.000              0.000              0.000
 Translational            0.889              2.981             42.892
 Rotational               0.889              2.981             32.982
 Vibrational            139.454             50.259             51.719
 Vibration     1          0.594              1.982              5.498
 Vibration     2          0.596              1.977              4.713
 Vibration     3          0.598              1.970              4.246
 Vibration     4          0.600              1.964              3.926
 Vibration     5          0.603              1.954              3.578
 Vibration     6          0.608              1.936              3.161
 Vibration     7          0.618              1.902              2.659
 Vibration     8          0.621              1.893              2.566
 Vibration     9          0.635              1.848              2.189
 Vibration    10          0.642              1.826              2.047
 Vibration    11          0.651              1.800              1.901
 Vibration    12          0.657              1.781              1.809
 Vibration    13          0.673              1.733              1.612
 Vibration    14          0.697              1.662              1.383
 Vibration    15          0.723              1.588              1.194
 Vibration    16          0.746              1.524              1.061
 Vibration    17          0.767              1.467              0.958
 Vibration    18          0.785              1.420              0.881
 Vibration    19          0.854              1.253              0.662
 Vibration    20          0.880              1.195              0.599
 Vibration    21          0.894              1.164              0.568
 Vibration    22          0.933              1.083              0.492
 Vibration    23          0.976              0.997              0.422

 Optimization completed.
    -- Stationary point found.
 Normal termination of Gaussian 16 at Mon Feb 22 09:48:18 2021.
