 Gaussian 16, Revision A.03,
 Gaussian 16:  ES64L-G16RevA.03 25-Dec-2016

 ----------------------------------------------------------------------
 # wB97XD def2tzvp, opt=(ts, noeigen, calcfc, maxcycles=70, maxstep=8),
  freq=noraman, scrf=(iefpcm, solvent=water)
 ----------------------------------------------------------------------

 ------------------------
 1_iteration/TS-788-1.out
 ------------------------
 Symbolic Z-matrix:
 Charge =  0 Multiplicity = 1

 SCF Done:  E(RwB97XD) =  -6009.16247497     A.U. after   15 cycles
 SCF Done:  E(RwB97XD) =  -6009.16408986     A.U. after   13 cycles
 SCF Done:  E(RwB97XD) =  -6009.16507420     A.U. after   13 cycles
 SCF Done:  E(RwB97XD) =  -6009.16515208     A.U. after   13 cycles
 SCF Done:  E(RwB97XD) =  -6009.16529844     A.U. after   12 cycles
 SCF Done:  E(RwB97XD) =  -6009.16532513     A.U. after   11 cycles
 SCF Done:  E(RwB97XD) =  -6009.16533029     A.U. after   10 cycles
 SCF Done:  E(RwB97XD) =  -6009.16533083     A.U. after    9 cycles
 SCF Done:  E(RwB97XD) =  -6009.16533101     A.U. after    8 cycles
 SCF Done:  E(RwB97XD) =  -6009.16533102     A.U. after    7 cycles
 SCF Done:  E(RwB97XD) =  -6009.16533100     A.U. after    7 cycles
 Optimization completed.
    -- Stationary point found.
 Normal termination of Gaussian 16 at Mon Feb 22 04:37:02 2021.

 ---------------------------------------------------------------------
 #N Geom=AllCheck Guess=TCheck SCRF=Check GenChk RwB97XD/def2TZVP Freq
 ---------------------------------------------------------------------

 Structure from the checkpoint file:  "/beegfs/scratch/user/q/tla25/Gau-48806.chk"
 ------------------------
 1_iteration/TS-788-1.out
 ------------------------
 Charge =  0 Multiplicity = 1

                         Standard orientation:
 ---------------------------------------------------------------------
 Center     Atomic      Atomic             Coordinates (Angstroms)
 Number     Number       Type             X           Y           Z
 ---------------------------------------------------------------------
      1          6           0       -0.478368    0.434415   -0.232597
      2          6           0       -1.930726    0.367734   -0.238033
      3          8           0       -2.680979    1.298103   -0.445058
      4          6           0        0.349850   -0.674800   -0.227273
      5          6           0        0.238391   -0.731315    2.612107
      6          1           0       -0.423720    0.112110    2.413733
      7          1           0       -0.075711   -1.216610    3.536074
      8          1           0        1.257496   -0.366597    2.724593
      9          7           0        0.173026   -1.643906    1.481574
     10          1           0        0.860355   -2.387059    1.533097
     11          1           0       -0.749908   -2.052967    1.384916
     12         35           0        2.246596   -0.414934   -0.247083
     13         17           0       -0.061780   -2.067002   -1.246189
     14         35           0        0.201052    2.194265   -0.023378
     15          8           0       -2.385998   -0.860385    0.069663
     16          6           0       -3.798957   -1.045731    0.025245
     17          1           0       -4.185593   -0.817750   -0.967462
     18          1           0       -3.964507   -2.093238    0.260806
     19          1           0       -4.292338   -0.411662    0.761028
 ---------------------------------------------------------------------

 SCF Done:  E(RwB97XD) =  -6009.16533100     A.U. after    1 cycles

 The electronic state is 1-A.
 Alpha  occ. eigenvalues -- -483.14971-483.13136-101.71269 -62.69812 -62.67962
 Alpha  occ. eigenvalues --  -56.48955 -56.48565 -56.48545 -56.47093 -56.46717
 Alpha  occ. eigenvalues --  -56.46712 -19.29886 -19.23065 -14.48976 -10.45560
 Alpha  occ. eigenvalues --  -10.41963 -10.33390 -10.32959 -10.31988  -9.59846
 Alpha  occ. eigenvalues --   -8.83925  -8.82077  -7.34537  -7.33598  -7.33570
 Alpha  occ. eigenvalues --   -6.66160  -6.64915  -6.64856  -6.64272  -6.63065
 Alpha  occ. eigenvalues --   -6.63054  -2.76536  -2.76184  -2.76138  -2.75131
 Alpha  occ. eigenvalues --   -2.75131  -2.74655  -2.74299  -2.74291  -2.73314
 Alpha  occ. eigenvalues --   -2.73314  -1.21514  -1.11946  -1.05032  -0.99849
 Alpha  occ. eigenvalues --   -0.92773  -0.89773  -0.85114  -0.80035  -0.79244
 Alpha  occ. eigenvalues --   -0.71030  -0.64954  -0.63773  -0.60313  -0.58752
 Alpha  occ. eigenvalues --   -0.57728  -0.57453  -0.55111  -0.53163  -0.52499
 Alpha  occ. eigenvalues --   -0.49301  -0.48498  -0.48160  -0.46719  -0.45317
 Alpha  occ. eigenvalues --   -0.42198  -0.41183  -0.40412  -0.39845  -0.38429
 Alpha  occ. eigenvalues --   -0.38091  -0.37698  -0.35335  -0.28986
 Alpha virt. eigenvalues --    0.01609   0.03037   0.05769   0.10286   0.11637
 Alpha virt. eigenvalues --    0.13555   0.14453   0.15680   0.16309   0.16910
 Alpha virt. eigenvalues --    0.18691   0.19715   0.20116   0.20662   0.20995

 Mulliken charges:
               1
     1  C   -0.349835
     2  C    0.424700
     3  O   -0.453573
     4  C    0.204835
     5  C   -0.292731
     6  H    0.155706
     7  H    0.162385
     8  H    0.158713
     9  N   -0.356281
    10  H    0.293658
    11  H    0.287547
    12  Br  -0.015939
    13  Cl  -0.051504
    14  Br  -0.085744
    15  O   -0.304602
    16  C   -0.195908
    17  H    0.137536
    18  H    0.145016
    19  H    0.136022
 Sum of Mulliken charges =  -0.00000

 Dipole moment (field-independent basis, Debye):
    X=              1.0667    Y=             -7.4929    Z=              5.6389  Tot=              9.4382
 Quadrupole moment (field-independent basis, Debye-Ang):
   XX=            -93.5067   YY=            -95.5994   ZZ=            -88.8366
   XY=             10.4599   XZ=             -1.0388   YZ=             -5.5540

  Exact polarizability: 199.292  -7.773 200.321   8.499  -6.371 154.249
 Approx polarizability: 159.592  -4.599 167.650   6.338  -3.794 132.027

 ******    1 imaginary frequencies (negative Signs) ******

                      1                      2                      3
                      A                      A                      A
 Frequencies --   -362.4610                43.1099                63.1770
 Red. masses --      5.9268                 6.1745                 2.9057
 Frc consts  --      0.4588                 0.0068                 0.0068
 IR Inten    --    726.0853                 3.2661                 1.1692

                      4                      5                      6
                      A                      A                      A
 Frequencies --     69.8992                97.4126               102.2896
 Red. masses --      3.8996                 3.5575                 3.7857
 Frc consts  --      0.0112                 0.0199                 0.0233
 IR Inten    --      5.2239                 4.8340                 4.0231

                      7                      8                      9
                      A                      A                      A
 Frequencies --    134.6670               146.3462               151.8907
 Red. masses --      3.0643                 4.0935                 1.2771
 Frc consts  --      0.0327                 0.0517                 0.0174
 IR Inten    --      2.2397                 1.1515                 1.5725

                     10                     11                     12
                      A                      A                      A
 Frequencies --    173.7725               200.4472               221.0932
 Red. masses --      2.1115                 3.1063                 5.1542
 Frc consts  --      0.0376                 0.0735                 0.1484
 IR Inten    --      1.6106                12.1413                 2.7928

                     13                     14                     15
                      A                      A                      A
 Frequencies --    237.5363               266.9067               281.1779
 Red. masses --     15.4247                 6.0123                 7.2464
 Frc consts  --      0.5128                 0.2524                 0.3375
 IR Inten    --      2.4634                 3.2985                23.6304

                     16                     17                     18
                      A                      A                      A
 Frequencies --    309.2374               356.3699               415.2300
 Red. masses --      4.5898                 9.1840                 8.7351
 Frc consts  --      0.2586                 0.6872                 0.8874
 IR Inten    --     18.1356                25.0367                15.9962

                     19                     20                     21
                      A                      A                      A
 Frequencies --    487.8673               624.0205               729.4266
 Red. masses --      7.1067                 1.6476                 4.1289
 Frc consts  --      0.9966                 0.3780                 1.2943
 IR Inten    --    106.5668                 2.4174                62.9428

                     22                     23                     24
                      A                      A                      A
 Frequencies --    757.8806               785.8771               865.2909
 Red. masses --      9.2964                11.0966                 5.7270
 Frc consts  --      3.1461                 4.0378                 2.5264
 IR Inten    --    209.3022                56.0464                83.4934

                     25                     26                     27
                      A                      A                      A
 Frequencies --    941.0844               995.6473              1031.3125
 Red. masses --      6.6143                 1.0940                 1.1168
 Frc consts  --      3.4514                 0.6390                 0.6999
 IR Inten    --     16.6859                53.2064                84.7942

                     28                     29                     30
                      A                      A                      A
 Frequencies --   1086.4332              1114.8832              1181.7307
 Red. masses --      4.9044                 8.4936                 1.2818
 Frc consts  --      3.4107                 6.2202                 1.0546
 IR Inten    --     35.1298               122.1900                 1.9360

                     31                     32                     33
                      A                      A                      A
 Frequencies --   1206.6522              1218.4597              1284.3629
 Red. masses --      1.4298                 1.5471                 7.2014
 Frc consts  --      1.2266                 1.3533                 6.9991
 IR Inten    --     35.6422                68.6071               977.1627

                     34                     35                     36
                      A                      A                      A
 Frequencies --   1343.3291              1403.3787              1459.0956
 Red. masses --      1.3273                 6.9813                 1.2522
 Frc consts  --      1.4112                 8.1010                 1.5707
 IR Inten    --      0.8319               779.3807                23.4299

                     37                     38                     39
                      A                      A                      A
 Frequencies --   1479.1283              1482.5196              1489.6619
 Red. masses --      1.1924                 1.0440                 1.0416
 Frc consts  --      1.5370                 1.3519                 1.3618
 IR Inten    --     40.4401                13.9470                25.1076

                     40                     41                     42
                      A                      A                      A
 Frequencies --   1494.6159              1498.9915              1631.2131
 Red. masses --      1.0579                 1.0332                 1.0937
 Frc consts  --      1.3924                 1.3679                 1.7146
 IR Inten    --     23.1128                12.8780                77.0432

                     43                     44                     45
                      A                      A                      A
 Frequencies --   1731.8722              3066.8331              3070.4713
 Red. masses --     11.5489                 1.0330                 1.0304
 Frc consts  --     20.4091                 5.7244                 5.7236
 IR Inten    --    902.4102                26.4613                50.9790

                     46                     47                     48
                      A                      A                      A
 Frequencies --   3142.7223              3150.7919              3165.4833
 Red. masses --      1.1046                 1.1074                 1.1054
 Frc consts  --      6.4279                 6.4772                 6.5262
 IR Inten    --     10.4197                28.9872                11.2978

                     49                     50                     51
                      A                      A                      A
 Frequencies --   3183.1033              3516.3163              3607.1100
 Red. masses --      1.1062                 1.0506                 1.0973
 Frc consts  --      6.6034                 7.6537                 8.4122
 IR Inten    --     17.5016                62.8298                82.2717

 - Thermochemistry -
 -------------------
 Temperature   298.150 Kelvin.  Pressure   1.00000 Atm.
 Atom     1 has atomic number  6 and mass  12.00000

 Molecular mass:   306.86103 amu.
 Principal axes and moments of inertia in atomic units:
                           1         2         3
     Eigenvalues --  3106.845283898.556615523.26760
           X            0.99612   0.08774   0.00707
           Y           -0.08746   0.99559  -0.03387
           Z           -0.01001   0.03312   0.99940
 This molecule is an asymmetric top.
 Rotational symmetry number  1.
 Warning -- assumption of classical behavior for rotation
           may cause significant error
 Rotational temperatures (Kelvin)      0.02788     0.02222     0.01568
 Rotational constants (GHZ):           0.58089     0.46293     0.32675
    1 imaginary frequencies ignored.
 Zero-point vibrational energy     349896.5 (Joules/Mol)
                                   83.62728 (Kcal/Mol)
 Warning -- explicit consideration of  18 degrees of freedom as
           vibrations may cause significant error
 Vibrational temperatures:     62.03    90.90   100.57   140.16   147.17
          (Kelvin)            193.76   210.56   218.54   250.02   288.40
                              318.10   341.76   384.02   404.55   444.92
                              512.74   597.42   701.93   897.83  1049.48
                             1090.42  1130.70  1244.96  1354.01  1432.51
                             1483.83  1563.14  1604.07  1700.25  1736.10
                             1753.09  1847.91  1932.75  2019.15  2099.31
                             2128.14  2133.02  2143.29  2150.42  2156.71
                             2346.95  2491.78  4412.49  4417.72  4521.68
                             4533.29  4554.42  4579.78  5059.19  5189.83

 Zero-point correction=                           0.133269 (Hartree/Particle)
 Thermal correction to Energy=                    0.147141
 Thermal correction to Enthalpy=                  0.148085
 Thermal correction to Gibbs Free Energy=         0.090138
 Sum of electronic and zero-point Energies=          -6009.032062
 Sum of electronic and thermal Energies=             -6009.018190
 Sum of electronic and thermal Enthalpies=           -6009.017246
 Sum of electronic and thermal Free Energies=        -6009.075193

                     E (Thermal)             CV                S
                      KCal/Mol        Cal/Mol-Kelvin    Cal/Mol-Kelvin
 Total                   92.332             45.176            121.960
 Electronic               0.000              0.000              0.000
 Translational            0.889              2.981             43.060
 Rotational               0.889              2.981             32.570
 Vibrational             90.555             39.214             46.330
 Vibration     1          0.595              1.980              5.111
 Vibration     2          0.597              1.972              4.355
 Vibration     3          0.598              1.968              4.156
 Vibration     4          0.603              1.951              3.505
 Vibration     5          0.604              1.947              3.410
 Vibration     6          0.613              1.919              2.878
 Vibration     7          0.617              1.907              2.719
 Vibration     8          0.619              1.901              2.648
 Vibration     9          0.627              1.875              2.394
 Vibration    10          0.638              1.839              2.129
 Vibration    11          0.648              1.809              1.950
 Vibration    12          0.656              1.783              1.821
 Vibration    13          0.672              1.734              1.616
 Vibration    14          0.681              1.708              1.526
 Vibration    15          0.699              1.656              1.366
 Vibration    16          0.732              1.562              1.138
 Vibration    17          0.779              1.437              0.908
 Vibration    18          0.844              1.277              0.689

 Optimization completed.
    -- Stationary point found.
 Normal termination of Gaussian 16 at Mon Feb 22 04:59:04 2021.
