 Gaussian 16, Revision A.03,
 Gaussian 16:  ES64L-G16RevA.03 25-Dec-2016

 ----------------------------------------------------------------------
 # wB97XD def2tzvp, opt=(ts, noeigen, calcfc, maxcycles=70, maxstep=1),
  freq=noraman, scrf=(iefpcm, solvent=water)
 ----------------------------------------------------------------------

 ------------------------
 0_iteration/TS-790-0.out
 ------------------------
 Symbolic Z-matrix:
 Charge =  0 Multiplicity = 1

 SCF Done:  E(RwB97XD) =  -6028.60411028     A.U. after   16 cycles
 SCF Done:  E(RwB97XD) =  -6028.60410979     A.U. after   10 cycles
 SCF Done:  E(RwB97XD) =  -6028.60411316     A.U. after    9 cycles
 SCF Done:  E(RwB97XD) =  -6028.60412667     A.U. after    9 cycles
 SCF Done:  E(RwB97XD) =  -6028.60415072     A.U. after    9 cycles
 SCF Done:  E(RwB97XD) =  -6028.60418523     A.U. after    9 cycles
 SCF Done:  E(RwB97XD) =  -6028.60422992     A.U. after    9 cycles
 SCF Done:  E(RwB97XD) =  -6028.60428319     A.U. after    9 cycles
 SCF Done:  E(RwB97XD) =  -6028.60434325     A.U. after   10 cycles
 SCF Done:  E(RwB97XD) =  -6028.60440846     A.U. after   10 cycles
 SCF Done:  E(RwB97XD) =  -6028.60545952     A.U. after   10 cycles
 SCF Done:  E(RwB97XD) =  -6028.60551165     A.U. after   10 cycles
 SCF Done:  E(RwB97XD) =  -6028.60555772     A.U. after   10 cycles
 SCF Done:  E(RwB97XD) =  -6028.60559520     A.U. after   10 cycles
 SCF Done:  E(RwB97XD) =  -6028.60562371     A.U. after    9 cycles
 SCF Done:  E(RwB97XD) =  -6028.60564352     A.U. after    9 cycles
 SCF Done:  E(RwB97XD) =  -6028.60565424     A.U. after    9 cycles
 SCF Done:  E(RwB97XD) =  -6028.60565622     A.U. after    8 cycles
 SCF Done:  E(RwB97XD) =  -6028.60565626     A.U. after    7 cycles
 Optimization completed.
    -- Stationary point found.
 Normal termination of Gaussian 16 at Sun Feb 21 23:21:38 2021.

 ---------------------------------------------------------------------
 #N Geom=AllCheck Guess=TCheck SCRF=Check GenChk RwB97XD/def2TZVP Freq
 ---------------------------------------------------------------------

 Structure from the checkpoint file:  "/beegfs/scratch/user/q/tla25/Gau-75129.chk"
 ------------------------
 0_iteration/TS-790-0.out
 ------------------------
 Charge =  0 Multiplicity = 1

                         Standard orientation:
 ---------------------------------------------------------------------
 Center     Atomic      Atomic             Coordinates (Angstroms)
 Number     Number       Type             X           Y           Z
 ---------------------------------------------------------------------
      1          6           0        0.416023   -0.055170   -0.111255
      2          6           0        1.622668    0.730089    0.216784
      3          8           0        1.537463    1.736708    0.937486
      4          6           0       -0.795593    0.604027   -0.212863
      5          6           0       -1.417477    0.538662    2.532193
      6          1           0       -0.551386   -0.120871    2.556051
      7          1           0       -1.475815    1.081406    3.475789
      8          1           0       -2.319901   -0.055034    2.402245
      9          7           0       -1.265728    1.458172    1.412111
     10          1           0       -0.403175    1.997363    1.500324
     11          1           0       -2.062336    2.074115    1.295955
     12         35           0       -2.382298   -0.401380   -0.595909
     13         17           0       -0.777357    2.106219   -1.186586
     14         35           0        0.488340   -1.918821    0.304112
     15          7           0        2.818163    0.318434   -0.257554
     16          6           0        2.982393   -0.571965   -1.387931
     17          6           0        4.029113    0.947934    0.226926
     18          1           0        2.027077   -0.741309   -1.876502
     19          1           0        3.660623   -0.108192   -2.107665
     20          1           0        3.404434   -1.531907   -1.081464
     21          1           0        4.333157    1.777387   -0.418572
     22          1           0        3.871159    1.328813    1.231948
     23          1           0        4.830243    0.208163    0.241816
 ---------------------------------------------------------------------

 SCF Done:  E(RwB97XD) =  -6028.60565626     A.U. after    1 cycles

 The electronic state is 1-A.
 Alpha  occ. eigenvalues -- -483.14560-483.12919-101.70710 -62.69403 -62.67730
 Alpha  occ. eigenvalues --  -56.48540 -56.48155 -56.48141 -56.46854 -56.46493
 Alpha  occ. eigenvalues --  -56.46484 -19.21635 -14.48857 -14.46634 -10.44837
 Alpha  occ. eigenvalues --  -10.39281 -10.31831 -10.31417 -10.31050 -10.30773
 Alpha  occ. eigenvalues --   -9.59292  -8.83515  -8.81831  -7.33963  -7.33046
 Alpha  occ. eigenvalues --   -7.33035  -6.65733  -6.64505  -6.64464  -6.63997
 Alpha  occ. eigenvalues --   -6.62842  -6.62814  -2.76112  -2.75760  -2.75729
 Alpha  occ. eigenvalues --   -2.74736  -2.74735  -2.74382  -2.74049  -2.74026
 Alpha  occ. eigenvalues --   -2.73092  -2.73092  -1.14425  -1.05064  -1.03922
 Alpha  occ. eigenvalues --   -0.98876  -0.91979  -0.89263  -0.82758  -0.81596
 Alpha  occ. eigenvalues --   -0.79688  -0.78801  -0.68643  -0.64209  -0.62173
 Alpha  occ. eigenvalues --   -0.59444  -0.58150  -0.57128  -0.56583  -0.54998
 Alpha  occ. eigenvalues --   -0.53217  -0.51642  -0.48918  -0.48735  -0.48542
 Alpha  occ. eigenvalues --   -0.48027  -0.46900  -0.46844  -0.45764  -0.41932
 Alpha  occ. eigenvalues --   -0.40846  -0.39770  -0.39003  -0.38156  -0.36570
 Alpha  occ. eigenvalues --   -0.35034  -0.32561  -0.27478
 Alpha virt. eigenvalues --    0.02974   0.03754   0.06487   0.10518   0.10842
 Alpha virt. eigenvalues --    0.12433   0.14900   0.15631   0.15967   0.17143
 Alpha virt. eigenvalues --    0.17601   0.17797   0.18888   0.19582   0.20050

 Mulliken charges:
               1
     1  C   -0.401741
     2  C    0.348248
     3  O   -0.550148
     4  C    0.204564
     5  C   -0.302505
     6  H    0.157402
     7  H    0.160303
     8  H    0.155350
     9  N   -0.299651
    10  H    0.282668
    11  H    0.286722
    12  Br  -0.034716
    13  Cl  -0.081993
    14  Br  -0.115324
    15  N   -0.098763
    16  C   -0.303706
    17  C   -0.289932
    18  H    0.165061
    19  H    0.144137
    20  H    0.147099
    21  H    0.140952
    22  H    0.143145
    23  H    0.142830
 Sum of Mulliken charges =  -0.00000

 Dipole moment (field-independent basis, Debye):
    X=             -0.7780    Y=              0.8403    Z=              2.1685  Tot=              2.4523
 Quadrupole moment (field-independent basis, Debye-Ang):
   XX=            -87.9417   YY=           -107.0577   ZZ=            -97.9573
   XY=             -6.8744   XZ=            -11.5082   YZ=              3.5085

  Exact polarizability: 235.548  -8.698 210.471 -13.012   5.299 179.117
 Approx polarizability: 179.702  -4.757 180.025  -7.723   4.984 153.483

 ******    1 imaginary frequencies (negative Signs) ******

                      1                      2                      3
                      A                      A                      A
 Frequencies --   -389.5018                47.1850                64.2599
 Red. masses --      6.1788                 5.3630                 4.7393
 Frc consts  --      0.5523                 0.0070                 0.0115
 IR Inten    --    804.8642                 3.4775                 5.0235

                      4                      5                      6
                      A                      A                      A
 Frequencies --     80.6069                93.0720               117.5810
 Red. masses --      2.5819                 3.2094                 3.4086
 Frc consts  --      0.0099                 0.0164                 0.0278
 IR Inten    --      2.6217                 1.8187                 6.0613

                      7                      8                      9
                      A                      A                      A
 Frequencies --    129.4472               141.5677               158.6663
 Red. masses --      2.0385                 5.0418                 1.6838
 Frc consts  --      0.0201                 0.0595                 0.0250
 IR Inten    --      1.3450                17.3378                 4.6652

                     10                     11                     12
                      A                      A                      A
 Frequencies --    161.1144               172.3189               193.1593
 Red. masses --      2.2318                 2.7171                 2.0370
 Frc consts  --      0.0341                 0.0475                 0.0448
 IR Inten    --      1.0080                 6.8488                 3.6382

                     13                     14                     15
                      A                      A                      A
 Frequencies --    209.6195               233.8480               235.7506
 Red. masses --      3.5150                 8.4064                 2.9313
 Frc consts  --      0.0910                 0.2709                 0.0960
 IR Inten    --      1.3689                 9.9190                 5.2468

                     16                     17                     18
                      A                      A                      A
 Frequencies --    258.6494               285.9992               328.5511
 Red. masses --      2.3898                 4.7744                 3.8489
 Frc consts  --      0.0942                 0.2301                 0.2448
 IR Inten    --      9.3959                33.1995                 4.4373

                     19                     20                     21
                      A                      A                      A
 Frequencies --    357.8719               405.3413               471.1225
 Red. masses --      9.2772                 3.0094                 3.9359
 Frc consts  --      0.7000                 0.2913                 0.5147
 IR Inten    --     39.4341                11.4382                78.7376

                     22                     23                     24
                      A                      A                      A
 Frequencies --    509.3682               628.5495               670.8980
 Red. masses --      9.0733                 3.1323                 3.7855
 Frc consts  --      1.3870                 0.7291                 1.0039
 IR Inten    --     92.3940                 4.9771                61.6585

                     25                     26                     27
                      A                      A                      A
 Frequencies --    755.3314               776.7391               790.0666
 Red. masses --     10.5280                 2.6065                 4.5740
 Frc consts  --      3.5389                 0.9265                 1.6822
 IR Inten    --    144.8200                69.1920               115.6946

                     28                     29                     30
                      A                      A                      A
 Frequencies --    938.6460              1012.3242              1047.9508
 Red. masses --      4.7198                 1.1121                 2.5473
 Frc consts  --      2.4501                 0.6715                 1.6482
 IR Inten    --     45.5142                58.4416                52.7753

                     31                     32                     33
                      A                      A                      A
 Frequencies --   1080.3118              1087.5704              1101.8918
 Red. masses --      2.4235                 1.3785                 1.6560
 Frc consts  --      1.6664                 0.9606                 1.1847
 IR Inten    --      4.5492                21.1287               114.8614

                     34                     35                     36
                      A                      A                      A
 Frequencies --   1131.9471              1172.1252              1207.5987
 Red. masses --      1.2310                 1.4118                 2.7945
 Frc consts  --      0.9293                 1.1428                 2.4010
 IR Inten    --      0.7830                 3.3410               271.1259

                     37                     38                     39
                      A                      A                      A
 Frequencies --   1229.3732              1316.1914              1358.0701
 Red. masses --      1.3899                 5.2939                 1.3781
 Frc consts  --      1.2377                 5.4034                 1.4975
 IR Inten    --     52.9729                60.6615                61.7010

                     40                     41                     42
                      A                      A                      A
 Frequencies --   1389.4711              1440.6047              1446.6596
 Red. masses --      5.0907                 1.8470                 1.1593
 Frc consts  --      5.7907                 2.2584                 1.4295
 IR Inten    --    957.2834               128.3517                10.6697

                     43                     44                     45
                      A                      A                      A
 Frequencies --   1457.9798              1473.9126              1484.2641
 Red. masses --      1.2195                 1.2503                 1.0635
 Frc consts  --      1.5274                 1.6004                 1.3804
 IR Inten    --     13.4345                41.3980                 4.3258

                     46                     47                     48
                      A                      A                      A
 Frequencies --   1487.6600              1489.1731              1500.5318
 Red. masses --      1.0553                 1.0411                 1.0323
 Frc consts  --      1.3761                 1.3603                 1.3694
 IR Inten    --     32.9792                24.6431                10.7098

                     49                     50                     51
                      A                      A                      A
 Frequencies --   1501.3539              1536.6244              1612.3017
 Red. masses --      1.0521                 1.7561                 1.4605
 Frc consts  --      1.3972                 2.4431                 2.2369
 IR Inten    --     18.4907               213.0420               444.1587

                     52                     53                     54
                      A                      A                      A
 Frequencies --   1649.2908              3041.5965              3046.5315
 Red. masses --      2.5896                 1.0414                 1.0385
 Frc consts  --      4.1502                 5.6763                 5.6791
 IR Inten    --    382.1723                58.4469               105.2623

                     55                     56                     57
                      A                      A                      A
 Frequencies --   3071.8431              3104.0704              3114.5389
 Red. masses --      1.0336                 1.1034                 1.0979
 Frc consts  --      5.7463                 6.2640                 6.2750
 IR Inten    --     31.9428                56.6571                19.9767

                     58                     59                     60
                      A                      A                      A
 Frequencies --   3150.3320              3171.5886              3174.2244
 Red. masses --      1.1039                 1.1059                 1.0998
 Frc consts  --      6.4549                 6.5541                 6.5290
 IR Inten    --     11.1774                11.7307                10.6416

                     61                     62                     63
                      A                      A                      A
 Frequencies --   3177.3871              3427.1966              3581.7342
 Red. masses --      1.1008                 1.0600                 1.0892
 Frc consts  --      6.5476                 7.3358                 8.2329
 IR Inten    --      9.2738               136.3816               119.0381

 - Thermochemistry -
 -------------------
 Temperature   298.150 Kelvin.  Pressure   1.00000 Atm.
 Atom     1 has atomic number  6 and mass  12.00000

 Molecular mass:   319.89266 amu.
 Principal axes and moments of inertia in atomic units:
                           1         2         3
     Eigenvalues --  3032.110364962.016156097.89551
           X            0.99885   0.01225  -0.04627
           Y           -0.00943   0.99812   0.06057
           Z            0.04692  -0.06006   0.99709
 This molecule is an asymmetric top.
 Rotational symmetry number  1.
 Warning -- assumption of classical behavior for rotation
           may cause significant error
 Rotational temperatures (Kelvin)      0.02857     0.01746     0.01420
 Rotational constants (GHZ):           0.59521     0.36371     0.29596
    1 imaginary frequencies ignored.
 Zero-point vibrational energy     457521.1 (Joules/Mol)
                                  109.35017 (Kcal/Mol)
 Warning -- explicit consideration of  21 degrees of freedom as
           vibrations may cause significant error
 Vibrational temperatures:     67.89    92.46   115.98   133.91   169.17
          (Kelvin)            186.25   203.68   228.29   231.81   247.93
                              277.91   301.60   336.46   339.19   372.14
                              411.49   472.71   514.90   583.20   677.84
                              732.87   904.34   965.27  1086.75  1117.55
                             1136.73  1350.50  1456.51  1507.77  1554.33
                             1564.77  1585.38  1628.62  1686.43  1737.47
                             1768.79  1893.71  1953.96  1999.14  2072.71
                             2081.42  2097.71  2120.63  2135.53  2140.41
                             2142.59  2158.93  2160.11  2210.86  2319.74
                             2372.96  4376.18  4383.28  4419.70  4466.06
                             4481.13  4532.63  4563.21  4567.00  4571.55
                             4930.97  5153.32

 Zero-point correction=                           0.174261 (Hartree/Particle)
 Thermal correction to Energy=                    0.189586
 Thermal correction to Enthalpy=                  0.190531
 Thermal correction to Gibbs Free Energy=         0.130051
 Sum of electronic and zero-point Energies=          -6028.431396
 Sum of electronic and thermal Energies=             -6028.416070
 Sum of electronic and thermal Enthalpies=           -6028.415126
 Sum of electronic and thermal Free Energies=        -6028.475605

                     E (Thermal)             CV                S
                      KCal/Mol        Cal/Mol-Kelvin    Cal/Mol-Kelvin
 Total                  118.967             51.218            127.290
 Electronic               0.000              0.000              0.000
 Translational            0.889              2.981             43.184
 Rotational               0.889              2.981             32.884
 Vibrational            117.190             45.256             51.222
 Vibration     1          0.595              1.979              4.932
 Vibration     2          0.597              1.971              4.322
 Vibration     3          0.600              1.962              3.876
 Vibration     4          0.602              1.954              3.594
 Vibration     5          0.608              1.935              3.140
 Vibration     6          0.612              1.924              2.954
 Vibration     7          0.615              1.912              2.783
 Vibration     8          0.621              1.893              2.566
 Vibration     9          0.622              1.890              2.537
 Vibration    10          0.626              1.877              2.410
 Vibration    11          0.635              1.849              2.197
 Vibration    12          0.642              1.826              2.047
 Vibration    13          0.654              1.789              1.849
 Vibration    14          0.655              1.786              1.835
 Vibration    15          0.667              1.748              1.671
 Vibration    16          0.684              1.700              1.498
 Vibration    17          0.712              1.618              1.267
 Vibration    18          0.733              1.559              1.131
 Vibration    19          0.770              1.459              0.943
 Vibration    20          0.828              1.314              0.734
 Vibration    21          0.865              1.229              0.635

 Optimization completed.
    -- Stationary point found.
 Normal termination of Gaussian 16 at Sun Feb 21 23:54:29 2021.
