 Gaussian 16, Revision A.03,
 Gaussian 16:  ES64L-G16RevA.03 25-Dec-2016

 ----------------------------------------------------------------------
 # wB97XD def2tzvp, opt=(ts, noeigen, calcfc, maxcycles=70, maxstep=8),
  freq=noraman, scrf=(iefpcm, solvent=water)
 ----------------------------------------------------------------------

 ------------------------
 1_iteration/TS-720-1.out
 ------------------------
 Symbolic Z-matrix:
 Charge =  0 Multiplicity = 1

 SCF Done:  E(RwB97XD) =  -3591.38039854     A.U. after   15 cycles
 SCF Done:  E(RwB97XD) =  -3591.38093315     A.U. after   12 cycles
 SCF Done:  E(RwB97XD) =  -3591.38126493     A.U. after   12 cycles
 SCF Done:  E(RwB97XD) =  -3591.38109700     A.U. after   12 cycles
 SCF Done:  E(RwB97XD) =  -3591.38037344     A.U. after   12 cycles
 SCF Done:  E(RwB97XD) =  -3591.37940810     A.U. after   12 cycles
 SCF Done:  E(RwB97XD) =  -3591.37884289     A.U. after   12 cycles
 SCF Done:  E(RwB97XD) =  -3591.37857727     A.U. after   12 cycles
 SCF Done:  E(RwB97XD) =  -3591.37863031     A.U. after   12 cycles
 SCF Done:  E(RwB97XD) =  -3591.37883411     A.U. after   12 cycles
 SCF Done:  E(RwB97XD) =  -3591.37878514     A.U. after   12 cycles
 SCF Done:  E(RwB97XD) =  -3591.37881167     A.U. after   12 cycles
 SCF Done:  E(RwB97XD) =  -3591.37884000     A.U. after   11 cycles
 SCF Done:  E(RwB97XD) =  -3591.37883761     A.U. after   10 cycles
 SCF Done:  E(RwB97XD) =  -3591.37884159     A.U. after    9 cycles
 SCF Done:  E(RwB97XD) =  -3591.37880261     A.U. after   12 cycles
 SCF Done:  E(RwB97XD) =  -3591.37884295     A.U. after   12 cycles
 SCF Done:  E(RwB97XD) =  -3591.37884478     A.U. after    9 cycles
 SCF Done:  E(RwB97XD) =  -3591.37884495     A.U. after    9 cycles
 Optimization completed.
    -- Stationary point found.
 Normal termination of Gaussian 16 at Mon Feb 22 09:50:25 2021.

 ---------------------------------------------------------------------
 #N Geom=AllCheck Guess=TCheck SCRF=Check GenChk RwB97XD/def2TZVP Freq
 ---------------------------------------------------------------------

 Structure from the checkpoint file:  "/beegfs/scratch/user/q/tla25/Gau-22036.chk"
 ------------------------
 1_iteration/TS-720-1.out
 ------------------------
 Charge =  0 Multiplicity = 1

                         Standard orientation:
 ---------------------------------------------------------------------
 Center     Atomic      Atomic             Coordinates (Angstroms)
 Number     Number       Type             X           Y           Z
 ---------------------------------------------------------------------
      1          6           0        0.258808   -0.131774    0.156446
      2          6           0       -0.889690    0.200473    0.961842
      3          8           0       -0.811050    0.621755    2.116005
      4          6           0        1.567187    0.206099    0.476229
      5          6           0        1.115296    2.814191   -0.667635
      6          1           0        1.125381    3.454993   -1.549294
      7          1           0        0.114536    2.390749   -0.554458
      8          1           0        1.345280    3.412140    0.211195
      9          7           0        2.066996    1.720144   -0.776222
     10          1           0        2.036275    1.285685   -1.690722
     11          1           0        3.020216    2.011825   -0.596719
     12         35           0        2.977588   -0.995105   -0.116390
     13          6           0        1.939140    0.860349    1.771922
     14          1           0        1.292585    1.710914    1.969535
     15          1           0        1.805238    0.149551    2.587100
     16          1           0        2.979522    1.177432    1.748178
     17         17           0       -0.018531   -0.953686   -1.371128
     18          6           0       -2.272760    0.003343    0.396749
     19          6           0       -2.708158    0.695169   -0.728441
     20          6           0       -4.020888    0.576225   -1.157677
     21          6           0       -4.903228   -0.253207   -0.478953
     22          6           0       -4.472014   -0.949941    0.641047
     23          6           0       -3.165505   -0.810695    1.084841
     24          1           0       -2.021362    1.332753   -1.271258
     25          1           0       -4.354336    1.128968   -2.026831
     26          1           0       -5.925412   -0.353972   -0.821167
     27          1           0       -5.155952   -1.597921    1.174520
     28          1           0       -2.832221   -1.338235    1.970032
 ---------------------------------------------------------------------

 SCF Done:  E(RwB97XD) =  -3591.37884495     A.U. after    1 cycles

 The electronic state is 1-A.
 Alpha  occ. eigenvalues -- -483.13451-101.69431 -62.68307 -56.47421 -56.47073
 Alpha  occ. eigenvalues --  -56.47051 -19.22232 -14.48042 -10.40672 -10.37546
 Alpha  occ. eigenvalues --  -10.32633 -10.31752 -10.30067 -10.29483 -10.29377
 Alpha  occ. eigenvalues --  -10.29253 -10.29204 -10.29165 -10.29143  -9.57979
 Alpha  occ. eigenvalues --   -8.82421  -7.32616  -7.31761  -7.31748  -6.64568
 Alpha  occ. eigenvalues --   -6.63463  -6.63394  -2.74956  -2.74651  -2.74597
 Alpha  occ. eigenvalues --   -2.73702  -2.73701  -1.13340  -1.03777  -0.98241
 Alpha  occ. eigenvalues --   -0.96768  -0.92409  -0.86606  -0.85432  -0.85150
 Alpha  occ. eigenvalues --   -0.80073  -0.78845  -0.74099  -0.70794  -0.68432
 Alpha  occ. eigenvalues --   -0.63117  -0.63000  -0.59130  -0.57910  -0.56952
 Alpha  occ. eigenvalues --   -0.55958  -0.54924  -0.54780  -0.53429  -0.51566
 Alpha  occ. eigenvalues --   -0.51319  -0.50246  -0.48721  -0.47750  -0.47379
 Alpha  occ. eigenvalues --   -0.46432  -0.46250  -0.44513  -0.44168  -0.42928
 Alpha  occ. eigenvalues --   -0.41358  -0.40946  -0.37348  -0.36921  -0.34824
 Alpha  occ. eigenvalues --   -0.33812  -0.32328  -0.28893
 Alpha virt. eigenvalues --    0.00878   0.04368   0.05143   0.05892   0.10161
 Alpha virt. eigenvalues --    0.12040   0.12920   0.13417   0.14587   0.14662
 Alpha virt. eigenvalues --    0.16108   0.16951   0.17302   0.18509   0.19062

 Mulliken charges:
               1
     1  C   -0.203738
     2  C    0.273385
     3  O   -0.469401
     4  C    0.111126
     5  C   -0.286157
     6  H    0.158940
     7  H    0.129036
     8  H    0.166586
     9  N   -0.375185
    10  H    0.282678
    11  H    0.291048
    12  Br  -0.083691
    13  C   -0.350924
    14  H    0.154288
    15  H    0.156189
    16  H    0.151317
    17  Cl  -0.139572
    18  C    0.222782
    19  C   -0.257591
    20  C   -0.127485
    21  C   -0.151679
    22  C   -0.137699
    23  C   -0.252895
    24  H    0.161481
    25  H    0.144492
    26  H    0.145738
    27  H    0.144284
    28  H    0.142646
 Sum of Mulliken charges =  -0.00000

 Dipole moment (field-independent basis, Debye):
    X=              3.9343    Y=              5.0959    Z=             -3.7307  Tot=              7.4407
 Quadrupole moment (field-independent basis, Debye-Ang):
   XX=            -92.9774   YY=            -99.1872   ZZ=           -111.4691
   XY=             14.3173   XZ=              3.0184   YZ=            -10.2941

  Exact polarizability: 309.711  13.585 211.907  -3.177 -16.431 225.989
 Approx polarizability: 227.560   8.337 180.329  -2.130 -11.030 199.370

 ******    1 imaginary frequencies (negative Signs) ******

                      1                      2                      3
                      A                      A                      A
 Frequencies --   -357.6336                22.5580                44.6687
 Red. masses --      5.5642                 6.0414                 4.0119
 Frc consts  --      0.4193                 0.0018                 0.0047
 IR Inten    --    712.3867                 5.7649                 2.0609

                      4                      5                      6
                      A                      A                      A
 Frequencies --     56.4462                81.2988                93.4616
 Red. masses --      9.5261                 5.4478                 2.6604
 Frc consts  --      0.0179                 0.0212                 0.0137
 IR Inten    --      1.9015                 3.9337                 0.2133

                      7                      8                      9
                      A                      A                      A
 Frequencies --    124.8523               158.8488               172.9823
 Red. masses --      2.4819                 7.6225                 3.1095
 Frc consts  --      0.0228                 0.1133                 0.0548
 IR Inten    --      5.8150                 6.3595                 3.5352

                     10                     11                     12
                      A                      A                      A
 Frequencies --    187.6426               204.5336               224.8755
 Red. masses --      1.6326                 4.9806                 5.6836
 Frc consts  --      0.0339                 0.1228                 0.1693
 IR Inten    --      2.0099                 1.7173                11.7163

                     13                     14                     15
                      A                      A                      A
 Frequencies --    243.0090               274.0736               286.2153
 Red. masses --      5.3366                 3.2968                 1.8770
 Frc consts  --      0.1857                 0.1459                 0.0906
 IR Inten    --      4.9711                20.8031                 1.6809

                     16                     17                     18
                      A                      A                      A
 Frequencies --    302.5529               329.9818               378.3353
 Red. masses --      1.4931                 3.9000                 5.2245
 Frc consts  --      0.0805                 0.2502                 0.4406
 IR Inten    --      1.7338                 0.4352                23.7813

                     19                     20                     21
                      A                      A                      A
 Frequencies --    416.3216               420.2002               466.4580
 Red. masses --      2.9234                 4.4758                 4.3224
 Frc consts  --      0.2985                 0.4656                 0.5541
 IR Inten    --      0.8552                 8.0758                31.8122

                     22                     23                     24
                      A                      A                      A
 Frequencies --    508.4321               570.8428               601.3854
 Red. masses --      7.1431                 4.1851                 2.3428
 Frc consts  --      1.0879                 0.8035                 0.4992
 IR Inten    --     62.3147                24.2041                57.7477

                     25                     26                     27
                      A                      A                      A
 Frequencies --    634.3698               648.6684               717.3225
 Red. masses --      5.6816                 2.2464                 4.7398
 Frc consts  --      1.3471                 0.5569                 1.4369
 IR Inten    --      7.6755               141.3603                22.3714

                     28                     29                     30
                      A                      A                      A
 Frequencies --    724.3769               756.0500               818.9815
 Red. masses --      1.5797                 4.2663                 2.8595
 Frc consts  --      0.4884                 1.4368                 1.1300
 IR Inten    --     86.9420                74.1588                21.0531

                     31                     32                     33
                      A                      A                      A
 Frequencies --    877.5564               911.6053               959.9019
 Red. masses --      1.2493                 4.2921                 1.4968
 Frc consts  --      0.5668                 2.1015                 0.8126
 IR Inten    --      0.5618                18.0726                 2.8889

                     34                     35                     36
                      A                      A                      A
 Frequencies --    991.9201              1006.9435              1011.1589
 Red. masses --      1.0993                 1.6285                 1.3872
 Frc consts  --      0.6373                 0.9729                 0.8357
 IR Inten    --     82.3088               114.9313                 0.8801

                     37                     38                     39
                      A                      A                      A
 Frequencies --   1025.4649              1027.2283              1030.5942
 Red. masses --      2.0612                 3.4048                 1.3360
 Frc consts  --      1.2771                 2.1168                 0.8360
 IR Inten    --      9.4832                 5.3776                 0.8525

                     40                     41                     42
                      A                      A                      A
 Frequencies --   1057.3992              1059.4743              1087.7811
 Red. masses --      1.5534                 2.2494                 4.0082
 Frc consts  --      1.0233                 1.4877                 2.7944
 IR Inten    --     91.0802                17.9324                 8.0029

                     43                     44                     45
                      A                      A                      A
 Frequencies --   1101.7065              1113.4154              1172.2938
 Red. masses --      1.9474                 1.5857                 4.4896
 Frc consts  --      1.3926                 1.1582                 3.6352
 IR Inten    --     45.1096                13.9885               109.0216

                     46                     47                     48
                      A                      A                      A
 Frequencies --   1183.5634              1200.2625              1207.3457
 Red. masses --      1.1404                 1.4066                 1.1242
 Frc consts  --      0.9412                 1.1939                 0.9655
 IR Inten    --      0.1303                14.2094                 4.9289

                     49                     50                     51
                      A                      A                      A
 Frequencies --   1311.6763              1328.8804              1339.1918
 Red. masses --      4.7842                 5.1690                 1.3563
 Frc consts  --      4.8497                 5.3781                 1.4332
 IR Inten    --    288.1500               113.5784                29.8639

                     52                     53                     54
                      A                      A                      A
 Frequencies --   1359.5823              1399.5454              1426.9696
 Red. masses --      1.4383                 2.5832                 1.5110
 Frc consts  --      1.5664                 2.9811                 1.8128
 IR Inten    --      2.8978              1311.0805               246.5002

                     55                     56                     57
                      A                      A                      A
 Frequencies --   1452.9879              1464.5562              1481.0137
 Red. masses --      1.0899                 1.1582                 1.1533
 Frc consts  --      1.3556                 1.4637                 1.4904
 IR Inten    --     49.6123                 6.9657                78.8727

                     58                     59                     60
                      A                      A                      A
 Frequencies --   1489.1991              1493.5979              1507.2957
 Red. masses --      2.2203                 1.0438                 1.0327
 Frc consts  --      2.9012                 1.3719                 1.3824
 IR Inten    --     25.6388                24.5702                14.5529

                     61                     62                     63
                      A                      A                      A
 Frequencies --   1540.7789              1647.0394              1648.3167
 Red. masses --      2.3052                 1.0934                 6.1749
 Frc consts  --      3.2244                 1.7476                 9.8846
 IR Inten    --      1.7500                63.7409                74.8483

                     64                     65                     66
                      A                      A                      A
 Frequencies --   1665.8546              1674.0395              3058.4610
 Red. masses --     10.0210                 5.8600                 1.0353
 Frc consts  --     16.3846                 9.6756                 5.7056
 IR Inten    --    348.9110                 3.7778                36.2383

                     67                     68                     69
                      A                      A                      A
 Frequencies --   3081.2088              3128.0580              3157.8431
 Red. masses --      1.0358                 1.1023                 1.1021
 Frc consts  --      5.7939                 6.3551                 6.4752
 IR Inten    --      8.7124                12.7024                10.1928

                     70                     71                     72
                      A                      A                      A
 Frequencies --   3166.8348              3181.2116              3194.1061
 Red. masses --      1.1043                 1.1033                 1.0858
 Frc consts  --      6.5250                 6.5784                 6.5267
 IR Inten    --     14.5317                 4.2266                 1.8829

                     73                     74                     75
                      A                      A                      A
 Frequencies --   3199.2439              3206.4792              3213.8550
 Red. masses --      1.0880                 1.0918                 1.0954
 Frc consts  --      6.5613                 6.6136                 6.6660
 IR Inten    --      0.4341                11.3662                38.1156

                     76                     77                     78
                      A                      A                      A
 Frequencies --   3222.7229              3532.1205              3616.9646
 Red. masses --      1.0990                 1.0503                 1.0967
 Frc consts  --      6.7248                 7.7205                 8.4532
 IR Inten    --     18.3207                59.7031                52.5053

 - Thermochemistry -
 -------------------
 Temperature   298.150 Kelvin.  Pressure   1.00000 Atm.
 Atom     1 has atomic number  6 and mass  12.00000

 Molecular mass:   288.98690 amu.
 Principal axes and moments of inertia in atomic units:
                           1         2         3
     Eigenvalues --  2202.939398081.300528295.55015
           X            0.99944   0.03334   0.00028
           Y           -0.03241   0.97360  -0.22594
           Z           -0.00781   0.22580   0.97414
 This molecule is an asymmetric top.
 Rotational symmetry number  1.
 Warning -- assumption of classical behavior for rotation
           may cause significant error
 Rotational temperatures (Kelvin)      0.03932     0.01072     0.01044
 Rotational constants (GHZ):           0.81924     0.22332     0.21756
    1 imaginary frequencies ignored.
 Zero-point vibrational energy     578304.7 (Joules/Mol)
                                  138.21814 (Kcal/Mol)
 Warning -- explicit consideration of  23 degrees of freedom as
           vibrations may cause significant error
 Vibrational temperatures:     32.46    64.27    81.21   116.97   134.47
          (Kelvin)            179.63   228.55   248.88   269.98   294.28
                              323.55   349.64   394.33   411.80   435.31
                              474.77   544.34   598.99   604.57   671.13
                              731.52   821.32   865.26   912.72   933.29
                             1032.07  1042.22  1087.79  1178.33  1262.61
                             1311.60  1381.08  1427.15  1448.77  1454.83
                             1475.42  1477.95  1482.80  1521.36  1524.35
                             1565.07  1585.11  1601.96  1686.67  1702.88
                             1726.91  1737.10  1887.21  1911.96  1926.80
                             1956.14  2013.63  2053.09  2090.53  2107.17
                             2130.85  2142.63  2148.95  2168.66  2216.84
                             2369.72  2371.56  2396.79  2408.57  4400.44
                             4433.17  4500.58  4543.43  4556.37  4577.05
                             4595.61  4603.00  4613.41  4624.02  4636.78
                             5081.93  5204.01

 Zero-point correction=                           0.220265 (Hartree/Particle)
 Thermal correction to Energy=                    0.235977
 Thermal correction to Enthalpy=                  0.236921
 Thermal correction to Gibbs Free Energy=         0.175118
 Sum of electronic and zero-point Energies=          -3591.158580
 Sum of electronic and thermal Energies=             -3591.142868
 Sum of electronic and thermal Enthalpies=           -3591.141924
 Sum of electronic and thermal Free Energies=        -3591.203727

                     E (Thermal)             CV                S
                      KCal/Mol        Cal/Mol-Kelvin    Cal/Mol-Kelvin
 Total                  148.078             56.727            130.076
 Electronic               0.000              0.000              0.000
 Translational            0.889              2.981             42.881
 Rotational               0.889              2.981             33.357
 Vibrational            146.300             50.765             53.838
 Vibration     1          0.593              1.985              6.395
 Vibration     2          0.595              1.980              5.040
 Vibration     3          0.596              1.975              4.578
 Vibration     4          0.600              1.962              3.859
 Vibration     5          0.602              1.954              3.586
 Vibration     6          0.610              1.928              3.024
 Vibration     7          0.621              1.893              2.563
 Vibration     8          0.626              1.876              2.403
 Vibration     9          0.632              1.857              2.251
 Vibration    10          0.640              1.833              2.092
 Vibration    11          0.650              1.803              1.919
 Vibration    12          0.659              1.774              1.781
 Vibration    13          0.676              1.721              1.570
 Vibration    14          0.684              1.699              1.496
 Vibration    15          0.694              1.669              1.403
 Vibration    16          0.713              1.616              1.260
 Vibration    17          0.749              1.516              1.046
 Vibration    18          0.780              1.435              0.905
 Vibration    19          0.783              1.426              0.891
 Vibration    20          0.824              1.324              0.748
 Vibration    21          0.864              1.231              0.637
 Vibration    22          0.927              1.094              0.503
 Vibration    23          0.960              1.029              0.447

 Optimization completed.
    -- Stationary point found.
 Normal termination of Gaussian 16 at Mon Feb 22 10:46:27 2021.
