 Gaussian 16, Revision A.03,
 Gaussian 16:  ES64L-G16RevA.03 25-Dec-2016

 ----------------------------------------------------------------------
 # wB97XD def2tzvp, opt=(ts, noeigen, calcfc, maxcycles=70, maxstep=1),
  freq=noraman, scrf=(iefpcm, solvent=water)
 ----------------------------------------------------------------------

 ------------------------
 0_iteration/TS-753-0.out
 ------------------------
 Symbolic Z-matrix:
 Charge =  0 Multiplicity = 1

 SCF Done:  E(RwB97XD) =  -5894.60898247     A.U. after   15 cycles
 SCF Done:  E(RwB97XD) =  -5894.60887395     A.U. after   10 cycles
 SCF Done:  E(RwB97XD) =  -5894.60876977     A.U. after   10 cycles
 SCF Done:  E(RwB97XD) =  -5894.60866980     A.U. after   10 cycles
 SCF Done:  E(RwB97XD) =  -5894.60857417     A.U. after   10 cycles
 SCF Done:  E(RwB97XD) =  -5894.60848314     A.U. after   10 cycles
 SCF Done:  E(RwB97XD) =  -5894.60839702     A.U. after   11 cycles
 SCF Done:  E(RwB97XD) =  -5894.60831611     A.U. after   11 cycles
 SCF Done:  E(RwB97XD) =  -5894.60824060     A.U. after   11 cycles
 SCF Done:  E(RwB97XD) =  -5894.60816958     A.U. after   11 cycles
 SCF Done:  E(RwB97XD) =  -5894.60934767     A.U. after   10 cycles
 SCF Done:  E(RwB97XD) =  -5894.60935442     A.U. after   10 cycles
 SCF Done:  E(RwB97XD) =  -5894.60935770     A.U. after   10 cycles
 SCF Done:  E(RwB97XD) =  -5894.60935812     A.U. after    9 cycles
 SCF Done:  E(RwB97XD) =  -5894.60935821     A.U. after    9 cycles
 SCF Done:  E(RwB97XD) =  -5894.60935821     A.U. after    8 cycles
 SCF Done:  E(RwB97XD) =  -5894.60935550     A.U. after   11 cycles
 SCF Done:  E(RwB97XD) =  -5894.60935823     A.U. after   10 cycles
 SCF Done:  E(RwB97XD) =  -5894.60935823     A.U. after    6 cycles
 Optimization completed.
    -- Stationary point found.
 Normal termination of Gaussian 16 at Sun Feb 21 19:03:43 2021.

 ---------------------------------------------------------------------
 #N Geom=AllCheck Guess=TCheck SCRF=Check GenChk RwB97XD/def2TZVP Freq
 ---------------------------------------------------------------------

 Structure from the checkpoint file:  "/beegfs/scratch/user/q/tla25/Gau-93366.chk"
 ------------------------
 0_iteration/TS-753-0.out
 ------------------------
 Charge =  0 Multiplicity = 1

                         Standard orientation:
 ---------------------------------------------------------------------
 Center     Atomic      Atomic             Coordinates (Angstroms)
 Number     Number       Type             X           Y           Z
 ---------------------------------------------------------------------
      1          6           0       -1.200093    0.049391   -0.329472
      2          6           0       -1.995584   -1.071386   -0.735733
      3          8           0       -3.201531   -1.048119   -0.926780
      4          6           0        0.147213    0.009384   -0.026148
      5          6           0       -0.561168   -1.126216    2.505261
      6          1           0       -0.218342   -2.110541    2.191609
      7          1           0       -0.607230   -1.092322    3.593678
      8          1           0       -1.561176   -0.953067    2.105914
      9          7           0        0.335109   -0.111853    1.976432
     10          1           0        0.093536    0.814805    2.308925
     11          1           0        1.307000   -0.290445    2.201681
     12         35           0        1.212271    1.596867   -0.237280
     13         35           0        1.143543   -1.550471   -0.506198
     14         17           0       -2.065483    1.530030   -0.023116
     15          1           0       -1.429787   -2.001907   -0.891313
 ---------------------------------------------------------------------

 SCF Done:  E(RwB97XD) =  -5894.60935823     A.U. after    1 cycles

 The electronic state is 1-A.
 Alpha  occ. eigenvalues -- -483.15620-483.15042-101.70200 -62.70451 -62.69886
 Alpha  occ. eigenvalues --  -56.49598 -56.49198 -56.49188 -56.49027 -56.48637
 Alpha  occ. eigenvalues --  -56.48621 -19.23111 -14.49152 -10.45289 -10.36899
 Alpha  occ. eigenvalues --  -10.33783 -10.32155  -9.58720  -8.84557  -8.83999
 Alpha  occ. eigenvalues --   -7.33373  -7.32499  -7.32479  -6.66802  -6.66230
 Alpha  occ. eigenvalues --   -6.65525  -6.65497  -6.64987  -6.64936  -2.77175
 Alpha  occ. eigenvalues --   -2.76806  -2.76785  -2.76604  -2.76253  -2.76213
 Alpha  occ. eigenvalues --   -2.75753  -2.75753  -2.75208  -2.75208  -1.13736
 Alpha  occ. eigenvalues --   -1.04827  -0.99625  -0.94622  -0.89192  -0.83816
 Alpha  occ. eigenvalues --   -0.79396  -0.73422  -0.64055  -0.63152  -0.59074
 Alpha  occ. eigenvalues --   -0.57941  -0.55957  -0.54981  -0.51140  -0.49817
 Alpha  occ. eigenvalues --   -0.48534  -0.48267  -0.46899  -0.43104  -0.41440
 Alpha  occ. eigenvalues --   -0.40896  -0.39395  -0.37940  -0.37049  -0.34164
 Alpha  occ. eigenvalues --   -0.29972
 Alpha virt. eigenvalues --    0.00183   0.02606   0.04460   0.10478   0.12034
 Alpha virt. eigenvalues --    0.13372   0.14919   0.15383   0.17853   0.18111
 Alpha virt. eigenvalues --    0.19717   0.21593   0.22253   0.23395   0.24080

 Mulliken charges:
               1
     1  C   -0.113805
     2  C    0.084713
     3  O   -0.445083
     4  C    0.098967
     5  C   -0.306345
     6  H    0.161699
     7  H    0.167348
     8  H    0.164711
     9  N   -0.370117
    10  H    0.291235
    11  H    0.299827
    12  Br  -0.013783
    13  Br  -0.007044
    14  Cl  -0.123202
    15  H    0.110881
 Sum of Mulliken charges =   0.00000

 Dipole moment (field-independent basis, Debye):
    X=              7.0791    Y=             -0.9639    Z=              6.9049  Tot=              9.9358
 Quadrupole moment (field-independent basis, Debye-Ang):
   XX=           -106.3721   YY=            -82.5732   ZZ=            -73.0371
   XY=             -3.4218   XZ=             -4.5425   YZ=             -1.7632

  Exact polarizability: 192.793   3.328 167.588  18.000   5.014 145.025
 Approx polarizability: 156.988   1.573 142.537  12.474   5.386 122.805

 ******    1 imaginary frequencies (negative Signs) ******

                      1                      2                      3
                      A                      A                      A
 Frequencies --   -363.4575                45.1550                60.1484
 Red. masses --      5.8744                 2.1343                 8.0085
 Frc consts  --      0.4572                 0.0026                 0.0171
 IR Inten    --    763.5728                 0.3858                 0.7244

                      4                      5                      6
                      A                      A                      A
 Frequencies --    102.2533               125.8738               144.4534
 Red. masses --      3.0426                 3.2062                 3.1402
 Frc consts  --      0.0187                 0.0299                 0.0386
 IR Inten    --      7.4014                 3.4588                 2.0834

                      7                      8                      9
                      A                      A                      A
 Frequencies --    171.2045               175.9614               208.0767
 Red. masses --      5.9435                 4.2537                 6.4107
 Frc consts  --      0.1026                 0.0776                 0.1635
 IR Inten    --      0.9625                 8.9133                11.9732

                     10                     11                     12
                      A                      A                      A
 Frequencies --    243.9278               266.4299               282.9566
 Red. masses --      4.3288                 4.2636                16.7610
 Frc consts  --      0.1518                 0.1783                 0.7907
 IR Inten    --      9.8397                17.7140                 6.0786

                     13                     14                     15
                      A                      A                      A
 Frequencies --    305.7237               362.4505               517.7886
 Red. masses --      4.9136                 5.2414                 4.9048
 Frc consts  --      0.2706                 0.4057                 0.7748
 IR Inten    --      2.7599                 0.3163                91.7341

                     16                     17                     18
                      A                      A                      A
 Frequencies --    622.4194               667.1673               776.3565
 Red. masses --      1.4841                 7.4641                 6.5345
 Frc consts  --      0.3388                 1.9575                 2.3205
 IR Inten    --      8.6695               108.1581               181.7950

                     19                     20                     21
                      A                      A                      A
 Frequencies --    804.2224               988.9267              1012.6670
 Red. masses --      6.9674                 1.0813                 1.3659
 Frc consts  --      2.6551                 0.6231                 0.8253
 IR Inten    --    150.9928                49.2416                40.3423

                     22                     23                     24
                      A                      A                      A
 Frequencies --   1015.9566              1084.7640              1202.4010
 Red. masses --      1.3170                 4.6624                 1.4380
 Frc consts  --      0.8009                 3.2324                 1.2249
 IR Inten    --     60.1867                21.7654                 7.8739

                     25                     26                     27
                      A                      A                      A
 Frequencies --   1215.1693              1339.5912              1376.8499
 Red. masses --      5.2016                 1.3359                 2.2340
 Frc consts  --      4.5254                 1.4124                 2.4952
 IR Inten    --    394.1287                 2.8346               636.1971

                     28                     29                     30
                      A                      A                      A
 Frequencies --   1447.1801              1467.1307              1490.5311
 Red. masses --      1.3825                 1.7673                 1.0426
 Frc consts  --      1.7059                 2.2413                 1.3647
 IR Inten    --    198.3507               291.6900                21.5188

                     31                     32                     33
                      A                      A                      A
 Frequencies --   1499.1900              1639.5463              1700.6182
 Red. masses --      1.0328                 1.0914                 9.7047
 Frc consts  --      1.3677                 1.7286                16.5366
 IR Inten    --     17.6563                59.5638               926.7847

                     34                     35                     36
                      A                      A                      A
 Frequencies --   3011.1161              3066.3454              3142.3693
 Red. masses --      1.0843                 1.0332                 1.1044
 Frc consts  --      5.7925                 5.7234                 6.4250
 IR Inten    --     57.5423                22.3614                 8.2043

                     37                     38                     39
                      A                      A                      A
 Frequencies --   3163.4625              3522.8621              3609.9237
 Red. masses --      1.1054                 1.0502                 1.0972
 Frc consts  --      6.5180                 7.6794                 8.4243
 IR Inten    --      9.9050                79.0734                59.9906

 - Thermochemistry -
 -------------------
 Temperature   298.150 Kelvin.  Pressure   1.00000 Atm.
 Atom     1 has atomic number  6 and mass  12.00000

 Molecular mass:   276.85046 amu.
 Principal axes and moments of inertia in atomic units:
                           1         2         3
     Eigenvalues --  2637.101592916.714844068.33806
           X            0.99530   0.09624   0.01116
           Y           -0.09579   0.99477  -0.03548
           Z           -0.01452   0.03424   0.99931
 This molecule is an asymmetric top.
 Rotational symmetry number  1.
 Warning -- assumption of classical behavior for rotation
           may cause significant error
 Rotational temperatures (Kelvin)      0.03284     0.02970     0.02129
 Rotational constants (GHZ):           0.68437     0.61876     0.44361
    1 imaginary frequencies ignored.
 Zero-point vibrational energy     262455.7 (Joules/Mol)
                                   62.72842 (Kcal/Mol)
 Warning -- explicit consideration of  14 degrees of freedom as
           vibrations may cause significant error
 Vibrational temperatures:     64.97    86.54   147.12   181.10   207.84
          (Kelvin)            246.33   253.17   299.38   350.96   383.33
                              407.11   439.87   521.49   744.98   895.52
                              959.90  1117.00  1157.10  1422.84  1457.00
                             1461.73  1560.73  1729.99  1748.36  1927.37
                             1980.98  2082.17  2110.87  2144.54  2157.00
                             2358.94  2446.81  4332.32  4411.79  4521.17
                             4551.52  5068.61  5193.88

 Zero-point correction=                           0.099964 (Hartree/Particle)
 Thermal correction to Energy=                    0.111301
 Thermal correction to Enthalpy=                  0.112246
 Thermal correction to Gibbs Free Energy=         0.060078
 Sum of electronic and zero-point Energies=          -5894.509394
 Sum of electronic and thermal Energies=             -5894.498057
 Sum of electronic and thermal Enthalpies=           -5894.497113
 Sum of electronic and thermal Free Energies=        -5894.549280

                     E (Thermal)             CV                S
                      KCal/Mol        Cal/Mol-Kelvin    Cal/Mol-Kelvin
 Total                   69.843             36.582            109.796
 Electronic               0.000              0.000              0.000
 Translational            0.889              2.981             42.753
 Rotational               0.889              2.981             31.815
 Vibrational             68.065             30.621             35.228
 Vibration     1          0.595              1.979              5.019
 Vibration     2          0.597              1.973              4.452
 Vibration     3          0.604              1.947              3.411
 Vibration     4          0.611              1.927              3.008
 Vibration     5          0.616              1.909              2.744
 Vibration     6          0.626              1.878              2.422
 Vibration     7          0.628              1.872              2.371
 Vibration     8          0.641              1.828              2.060
 Vibration     9          0.659              1.773              1.774
 Vibration    10          0.672              1.735              1.619
 Vibration    11          0.682              1.705              1.516
 Vibration    12          0.696              1.663              1.385
 Vibration    13          0.736              1.550              1.112
 Vibration    14          0.873              1.211              0.615

 Optimization completed.
    -- Stationary point found.
 Normal termination of Gaussian 16 at Sun Feb 21 19:14:26 2021.
