 Gaussian 16, Revision A.03,
 Gaussian 16:  ES64L-G16RevA.03 25-Dec-2016

 ----------------------------------------------------------------------
 # wB97XD def2tzvp, opt=(ts, noeigen, calcfc, maxcycles=70, maxstep=8),
  freq=noraman, scrf=(iefpcm, solvent=water)
 ----------------------------------------------------------------------

 ------------------------
 1_iteration/TS-789-1.out
 ------------------------
 Symbolic Z-matrix:
 Charge =  0 Multiplicity = 1

 SCF Done:  E(RwB97XD) =  -5989.29626741     A.U. after   15 cycles
 SCF Done:  E(RwB97XD) =  -5989.29626742     A.U. after    7 cycles
 Optimization completed.
    -- Stationary point found.
 Normal termination of Gaussian 16 at Mon Feb 22 05:38:25 2021.

 ---------------------------------------------------------------------
 #N Geom=AllCheck Guess=TCheck SCRF=Check GenChk RwB97XD/def2TZVP Freq
 ---------------------------------------------------------------------

 Structure from the checkpoint file:  "/beegfs/scratch/user/q/tla25/Gau-46842.chk"
 ------------------------
 1_iteration/TS-789-1.out
 ------------------------
 Charge =  0 Multiplicity = 1

                         Standard orientation:
 ---------------------------------------------------------------------
 Center     Atomic      Atomic             Coordinates (Angstroms)
 Number     Number       Type             X           Y           Z
 ---------------------------------------------------------------------
      1          6           0       -0.499652    0.380086   -0.258547
      2          6           0       -1.964547    0.311014   -0.167488
      3          8           0       -2.659073    1.322857   -0.086216
      4          6           0        0.379765   -0.689646   -0.158523
      5          6           0        0.296967   -0.549845    2.608826
      6          1           0        0.060488   -1.017165    3.563469
      7          1           0        1.288856   -0.106173    2.655516
      8          1           0       -0.437740    0.225576    2.396089
      9          7           0        0.256797   -1.530968    1.529739
     10          1           0        0.989110   -2.229131    1.609162
     11          1           0       -0.638329   -2.009576    1.509343
     12         35           0        2.270684   -0.361798   -0.232276
     13         17           0        0.056066   -2.181289   -1.123072
     14         35           0        0.159082    2.164803   -0.138891
     15          7           0       -2.554749   -0.919554   -0.096899
     16          6           0       -3.998649   -1.023301   -0.078160
     17          1           0       -2.059149   -1.708838   -0.470643
     18          1           0       -4.405759   -0.478461    0.772268
     19          1           0       -4.453169   -0.624565   -0.988845
     20          1           0       -4.264270   -2.073976    0.019902
 ---------------------------------------------------------------------

 SCF Done:  E(RwB97XD) =  -5989.29626742     A.U. after    1 cycles

 The electronic state is 1-A.
 Alpha  occ. eigenvalues -- -483.15057-483.12443-101.71818 -62.69899 -62.67272
 Alpha  occ. eigenvalues --  -56.49045 -56.48650 -56.48630 -56.46399 -56.46030
 Alpha  occ. eigenvalues --  -56.46021 -19.20798 -14.50837 -14.45132 -10.46033
 Alpha  occ. eigenvalues --  -10.39056 -10.32531 -10.32180 -10.30757  -9.60417
 Alpha  occ. eigenvalues --   -8.84011  -8.81388  -7.35069  -7.34189  -7.34155
 Alpha  occ. eigenvalues --   -6.66254  -6.64995  -6.64937  -6.63570  -6.62389
 Alpha  occ. eigenvalues --   -6.62367  -2.76626  -2.76273  -2.76227  -2.75209
 Alpha  occ. eigenvalues --   -2.75209  -2.73954  -2.73610  -2.73593  -2.72637
 Alpha  occ. eigenvalues --   -2.72637  -1.13925  -1.06587  -1.02004  -0.99509
 Alpha  occ. eigenvalues --   -0.92423  -0.89421  -0.83235  -0.80123  -0.78816
 Alpha  occ. eigenvalues --   -0.70124  -0.66652  -0.64972  -0.60685  -0.59200
 Alpha  occ. eigenvalues --   -0.56689  -0.56122  -0.54004  -0.52778  -0.51283
 Alpha  occ. eigenvalues --   -0.49233  -0.48917  -0.47905  -0.47098  -0.46051
 Alpha  occ. eigenvalues --   -0.42665  -0.41439  -0.39916  -0.39575  -0.38512
 Alpha  occ. eigenvalues --   -0.36650  -0.34539  -0.33542  -0.28185
 Alpha virt. eigenvalues --    0.02649   0.02705   0.05158   0.10001   0.12156
 Alpha virt. eigenvalues --    0.13277   0.14164   0.15528   0.15967   0.17133
 Alpha virt. eigenvalues --    0.17709   0.19213   0.20094   0.20641   0.21381

 Mulliken charges:
               1
     1  C   -0.264218
     2  C    0.310716
     3  O   -0.508033
     4  C    0.112718
     5  C   -0.298625
     6  H    0.170305
     7  H    0.164209
     8  H    0.165697
     9  N   -0.298942
    10  H    0.302948
    11  H    0.286929
    12  Br  -0.014467
    13  Cl  -0.077140
    14  Br  -0.109339
    15  N   -0.328937
    16  C   -0.254139
    17  H    0.239317
    18  H    0.133549
    19  H    0.126278
    20  H    0.141173
 Sum of Mulliken charges =  -0.00000

 Dipole moment (field-independent basis, Debye):
    X=              2.4351    Y=             -9.4616    Z=              5.3311  Tot=             11.1298
 Quadrupole moment (field-independent basis, Debye-Ang):
   XX=            -99.6296   YY=            -95.9245   ZZ=            -88.2068
   XY=             12.7829   XZ=              2.3541   YZ=             -5.9474

  Exact polarizability: 209.542  -5.704 205.802   5.966  -1.774 155.874
 Approx polarizability: 165.772  -3.768 173.851   3.358  -0.200 134.584

 ******    1 imaginary frequencies (negative Signs) ******

                      1                      2                      3
                      A                      A                      A
 Frequencies --   -379.1833                41.5674                66.2008
 Red. masses --      5.7506                 6.7463                 2.7850
 Frc consts  --      0.4871                 0.0069                 0.0072
 IR Inten    --    619.8203                 5.5707                 3.1400

                      4                      5                      6
                      A                      A                      A
 Frequencies --     75.7045               109.1143               133.6157
 Red. masses --      4.8555                 3.2085                 4.5420
 Frc consts  --      0.0164                 0.0225                 0.0478
 IR Inten    --      8.5746                 2.8701                 5.7221

                      7                      8                      9
                      A                      A                      A
 Frequencies --    147.0884               155.6786               159.7481
 Red. masses --      1.9207                 2.0675                 2.6984
 Frc consts  --      0.0245                 0.0295                 0.0406
 IR Inten    --      3.0668                 1.6064                 3.0323

                     10                     11                     12
                      A                      A                      A
 Frequencies --    175.4208               203.1886               233.4651
 Red. masses --      1.9298                 3.8923                 5.1016
 Frc consts  --      0.0350                 0.0947                 0.1638
 IR Inten    --      6.2299                15.0871                 2.0528

                     13                     14                     15
                      A                      A                      A
 Frequencies --    246.5692               277.1790               287.8260
 Red. masses --      6.2356                 7.2239                 5.7805
 Frc consts  --      0.2234                 0.3270                 0.2821
 IR Inten    --      5.7100                 5.6240                15.0986

                     16                     17                     18
                      A                      A                      A
 Frequencies --    305.1589               351.2643               398.6873
 Red. masses --      4.0014                 9.2919                 6.8123
 Frc consts  --      0.2195                 0.6755                 0.6380
 IR Inten    --      6.8373                35.0385                33.4022

                     19                     20                     21
                      A                      A                      A
 Frequencies --    504.3788               520.8702               653.8287
 Red. masses --      2.8835                 1.6836                 2.0898
 Frc consts  --      0.4322                 0.2691                 0.5264
 IR Inten    --      2.1451               293.5040                 8.2423

                     22                     23                     24
                      A                      A                      A
 Frequencies --    715.5415               753.3426               775.3480
 Red. masses --      9.6423                 2.2378                 9.0943
 Frc consts  --      2.9087                 0.7483                 3.2212
 IR Inten    --    256.1011                60.7808                49.5878

                     25                     26                     27
                      A                      A                      A
 Frequencies --    865.2401               954.8754              1015.7628
 Red. masses --      4.1224                 3.6089                 1.1090
 Frc consts  --      1.8183                 1.9387                 0.6742
 IR Inten    --     57.0476                 2.4978                20.5819

                     28                     29                     30
                      A                      A                      A
 Frequencies --   1064.9759              1083.7773              1141.2302
 Red. masses --      1.3463                 3.0554                 2.2885
 Frc consts  --      0.8997                 2.1145                 1.7561
 IR Inten    --     24.2815                82.0029                10.6620

                     31                     32                     33
                      A                      A                      A
 Frequencies --   1154.2019              1183.2882              1243.1698
 Red. masses --      1.7956                 1.7859                 1.4009
 Frc consts  --      1.4093                 1.4733                 1.2756
 IR Inten    --      3.6644                94.9367                43.8308

                     34                     35                     36
                      A                      A                      A
 Frequencies --   1284.4487              1347.2724              1382.1143
 Red. masses --      2.7998                 1.3239                 6.4130
 Frc consts  --      2.7216                 1.4159                 7.2177
 IR Inten    --    682.6759                 2.0451               648.9326

                     37                     38                     39
                      A                      A                      A
 Frequencies --   1456.6429              1458.8204              1477.7921
 Red. masses --      1.1969                 1.2064                 1.0565
 Frc consts  --      1.4963                 1.5127                 1.3594
 IR Inten    --     19.6555                 7.9550                25.4152

                     40                     41                     42
                      A                      A                      A
 Frequencies --   1491.6719              1498.8118              1501.1218
 Red. masses --      1.0413                 1.0316                 1.0830
 Frc consts  --      1.3651                 1.3654                 1.4379
 IR Inten    --     26.5086                11.2989                17.7795

                     43                     44                     45
                      A                      A                      A
 Frequencies --   1550.6453              1633.7361              1671.0819
 Red. masses --      1.6551                 1.1004                 8.1195
 Frc consts  --      2.3447                 1.7304                13.3590
 IR Inten    --    441.4687               108.0373               633.6380

                     46                     47                     48
                      A                      A                      A
 Frequencies --   3048.3093              3078.7035              3123.1139
 Red. masses --      1.0417                 1.0325                 1.0951
 Frc consts  --      5.7030                 5.7662                 6.2934
 IR Inten    --     83.0879                18.5049                35.9626

                     49                     50                     51
                      A                      A                      A
 Frequencies --   3161.2780              3161.7799              3177.6477
 Red. masses --      1.1053                 1.1044                 1.1063
 Frc consts  --      6.5083                 6.5047                 6.5819
 IR Inten    --      5.3618                20.7259                 7.3531

                     52                     53                     54
                      A                      A                      A
 Frequencies --   3511.7732              3595.6604              3658.5626
 Red. masses --      1.0505                 1.0969                 1.0768
 Frc consts  --      7.6328                 8.3557                 8.4920
 IR Inten    --     68.3850                79.2142               122.4269

 - Thermochemistry -
 -------------------
 Temperature   298.150 Kelvin.  Pressure   1.00000 Atm.
 Atom     1 has atomic number  6 and mass  12.00000

 Molecular mass:   305.87701 amu.
 Principal axes and moments of inertia in atomic units:
                           1         2         3
     Eigenvalues --  3056.119543996.808345643.07166
           X            0.99602   0.08846   0.01061
           Y           -0.08821   0.99585  -0.02238
           Z           -0.01255   0.02136   0.99969
 This molecule is an asymmetric top.
 Rotational symmetry number  1.
 Warning -- assumption of classical behavior for rotation
           may cause significant error
 Rotational temperatures (Kelvin)      0.02834     0.02167     0.01535
 Rotational constants (GHZ):           0.59053     0.45155     0.31982
    1 imaginary frequencies ignored.
 Zero-point vibrational energy     384409.8 (Joules/Mol)
                                   91.87614 (Kcal/Mol)
 Warning -- explicit consideration of  19 degrees of freedom as
           vibrations may cause significant error
 Vibrational temperatures:     59.81    95.25   108.92   156.99   192.24
          (Kelvin)            211.63   223.99   229.84   252.39   292.34
                              335.90   354.76   398.80   414.12   439.06
                              505.39   573.62   725.69   749.42   940.71
                             1029.50  1083.89  1115.55  1244.89  1373.85
                             1461.46  1532.26  1559.31  1641.98  1660.64
                             1702.49  1788.64  1848.04  1938.42  1988.55
                             2095.78  2098.92  2126.21  2146.18  2156.46
                             2159.78  2231.03  2350.58  2404.31  4385.84
                             4429.57  4493.46  4548.37  4549.10  4571.93
                             5052.66  5173.35  5263.86

 Zero-point correction=                           0.146414 (Hartree/Particle)
 Thermal correction to Energy=                    0.160295
 Thermal correction to Enthalpy=                  0.161239
 Thermal correction to Gibbs Free Energy=         0.103740
 Sum of electronic and zero-point Energies=          -5989.149853
 Sum of electronic and thermal Energies=             -5989.135973
 Sum of electronic and thermal Enthalpies=           -5989.135029
 Sum of electronic and thermal Free Energies=        -5989.192527

                     E (Thermal)             CV                S
                      KCal/Mol        Cal/Mol-Kelvin    Cal/Mol-Kelvin
 Total                  100.586             46.257            121.016
 Electronic               0.000              0.000              0.000
 Translational            0.889              2.981             43.051
 Rotational               0.889              2.981             32.600
 Vibrational             98.809             40.295             45.365
 Vibration     1          0.594              1.981              5.183
 Vibration     2          0.598              1.970              4.263
 Vibration     3          0.599              1.965              3.999
 Vibration     4          0.606              1.942              3.285
 Vibration     5          0.613              1.920              2.893
 Vibration     6          0.617              1.906              2.710
 Vibration     7          0.620              1.896              2.602
 Vibration     8          0.622              1.892              2.553
 Vibration     9          0.627              1.873              2.377
 Vibration    10          0.639              1.835              2.104
 Vibration    11          0.654              1.790              1.852
 Vibration    12          0.661              1.768              1.755
 Vibration    13          0.678              1.716              1.551
 Vibration    14          0.685              1.696              1.487
 Vibration    15          0.696              1.664              1.388
 Vibration    16          0.728              1.573              1.161
 Vibration    17          0.765              1.473              0.967
 Vibration    18          0.860              1.240              0.647
 Vibration    19          0.876              1.204              0.608

 Optimization completed.
    -- Stationary point found.
 Normal termination of Gaussian 16 at Mon Feb 22 06:01:40 2021.
