 Gaussian 16, Revision A.03,
 Gaussian 16:  ES64L-G16RevA.03 25-Dec-2016

 ----------------------------------------------------------------------
 # wB97XD def2tzvp, opt=(ts, noeigen, calcfc, maxcycles=70, maxstep=5),
  freq=noraman, scrf=(iefpcm, solvent=water)
 ----------------------------------------------------------------------

 ------------------------
 2_iteration/TS-727-2.out
 ------------------------
 Symbolic Z-matrix:
 Charge =  0 Multiplicity = 1

 SCF Done:  E(RwB97XD) =  -5952.48111530     A.U. after   15 cycles
 SCF Done:  E(RwB97XD) =  -5952.48112123     A.U. after   10 cycles
 SCF Done:  E(RwB97XD) =  -5952.48112131     A.U. after    7 cycles
 Optimization completed.
    -- Stationary point found.
 Normal termination of Gaussian 16 at Sun Jun 13 21:19:05 2021.

 ---------------------------------------------------------------------
 #N Geom=AllCheck Guess=TCheck SCRF=Check GenChk RwB97XD/def2TZVP Freq
 ---------------------------------------------------------------------

 Structure from the checkpoint file:  "/beegfs/scratch/user/q/tla25/Gau-86031.chk"
 ------------------------
 2_iteration/TS-727-2.out
 ------------------------
 Charge =  0 Multiplicity = 1

                         Standard orientation:
 ---------------------------------------------------------------------
 Center     Atomic      Atomic             Coordinates (Angstroms)
 Number     Number       Type             X           Y           Z
 ---------------------------------------------------------------------
      1          6           0        0.548982    0.416723   -0.145791
      2          6           0       -0.805215    0.973928   -0.201657
      3          8           0       -0.989886    2.183163   -0.306211
      4          6           0        0.859260   -0.899995    0.114469
      5          6           0        0.425607   -0.436962    2.846241
      6          1           0        1.496358   -0.279209    2.961735
      7          1           0       -0.038763    0.484463    2.497497
      8          1           0       -0.006517   -0.712993    3.807311
      9          7           0        0.198087   -1.474450    1.852122
     10          1           0        0.668488   -2.343473    2.080054
     11          1           0       -0.791044   -1.668334    1.742803
     12         35           0        2.713029   -1.351600    0.316258
     13         35           0       -0.004899   -2.409194   -0.881272
     14          6           0        1.635607    1.437112   -0.277017
     15          6           0        2.229897    1.653460   -1.517277
     16          6           0        3.233984    2.598382   -1.672259
     17          6           0        3.656454    3.347649   -0.583783
     18          6           0        3.064520    3.148495    0.655968
     19          6           0        2.061225    2.202931    0.804642
     20          1           0        1.902812    1.066882   -2.367571
     21          1           0        3.686722    2.748827   -2.644504
     22          1           0        4.441114    4.084586   -0.700655
     23          1           0        3.385456    3.731127    1.510634
     24          1           0        1.604180    2.055612    1.774900
     25          7           0       -1.869094    0.102889   -0.071707
     26          6           0       -3.231427    0.440760   -0.057401
     27          6           0       -3.712873    1.625183    0.497664
     28          6           0       -5.077855    1.868455    0.523510
     29          6           0       -5.979140    0.945163    0.013615
     30          6           0       -5.499274   -0.239134   -0.527463
     31          6           0       -4.138039   -0.489345   -0.566632
     32          1           0       -1.687652   -0.857453   -0.315766
     33          1           0       -3.021421    2.347210    0.902287
     34          1           0       -5.438464    2.793495    0.956217
     35          1           0       -7.042536    1.144350    0.040196
     36          1           0       -6.186443   -0.973984   -0.927657
     37          1           0       -3.770975   -1.414517   -0.996188
 ---------------------------------------------------------------------

 SCF Done:  E(RwB97XD) =  -5952.48112131     A.U. after    1 cycles

 The electronic state is 1-A.
 Alpha  occ. eigenvalues -- -483.14778-483.14209 -62.69602 -62.69046 -56.48742
 Alpha  occ. eigenvalues --  -56.48359 -56.48340 -56.48161 -56.47811 -56.47798
 Alpha  occ. eigenvalues --  -19.21204 -14.50094 -14.46462 -10.44603 -10.39424
 Alpha  occ. eigenvalues --  -10.33741 -10.32375 -10.30126 -10.29142 -10.29027
 Alpha  occ. eigenvalues --  -10.29006 -10.28819 -10.28782 -10.28734 -10.28595
 Alpha  occ. eigenvalues --  -10.28583 -10.28563 -10.28538 -10.28477  -8.83700
 Alpha  occ. eigenvalues --   -8.83138  -6.65920  -6.65272  -6.64698  -6.64640
 Alpha  occ. eigenvalues --   -6.64171  -6.64129  -2.76297  -2.75952  -2.75908
 Alpha  occ. eigenvalues --   -2.75650  -2.75353  -2.75318  -2.74919  -2.74919
 Alpha  occ. eigenvalues --   -2.74430  -2.74428  -1.14325  -1.05561  -1.04136
 Alpha  occ. eigenvalues --   -0.97570  -0.95811  -0.95093  -0.88332  -0.88060
 Alpha  occ. eigenvalues --   -0.85311  -0.84971  -0.84828  -0.81805  -0.79778
 Alpha  occ. eigenvalues --   -0.73622  -0.71730  -0.70880  -0.70161  -0.67895
 Alpha  occ. eigenvalues --   -0.65399  -0.64454  -0.63070  -0.60879  -0.59115
 Alpha  occ. eigenvalues --   -0.58120  -0.57755  -0.55618  -0.54775  -0.54217
 Alpha  occ. eigenvalues --   -0.53671  -0.52798  -0.51940  -0.51577  -0.51216
 Alpha  occ. eigenvalues --   -0.50609  -0.50424  -0.48821  -0.48075  -0.47119
 Alpha  occ. eigenvalues --   -0.46465  -0.46066  -0.44822  -0.43186  -0.42645
 Alpha  occ. eigenvalues --   -0.42521  -0.40642  -0.39424  -0.39045  -0.38088
 Alpha  occ. eigenvalues --   -0.37043  -0.35167  -0.33679  -0.33442  -0.32507
 Alpha  occ. eigenvalues --   -0.30918  -0.28474
 Alpha virt. eigenvalues --    0.00470   0.02876   0.05032   0.05280   0.05512
 Alpha virt. eigenvalues --    0.06033   0.07298   0.09978   0.12638   0.13149
 Alpha virt. eigenvalues --    0.14012   0.14488   0.15492   0.15767   0.16157

 Mulliken charges:
               1
     1  C   -0.264188
     2  C    0.343938
     3  O   -0.496626
     4  C    0.043637
     5  C   -0.309380
     6  H    0.167844
     7  H    0.159162
     8  H    0.174188
     9  N   -0.309001
    10  H    0.299971
    11  H    0.287861
    12  Br  -0.016383
    13  Br  -0.101114
    14  C    0.263448
    15  C   -0.230332
    16  C   -0.161941
    17  C   -0.125772
    18  C   -0.171337
    19  C   -0.224995
    20  H    0.136713
    21  H    0.139188
    22  H    0.142744
    23  H    0.138759
    24  H    0.146459
    25  N   -0.286628
    26  C    0.283851
    27  C   -0.297264
    28  C   -0.096501
    29  C   -0.187237
    30  C   -0.104700
    31  C   -0.287048
    32  H    0.220197
    33  H    0.148296
    34  H    0.142835
    35  H    0.141799
    36  H    0.143728
    37  H    0.145828
 Sum of Mulliken charges =  -0.00000

 Dipole moment (field-independent basis, Debye):
    X=              0.4787    Y=             -6.8558    Z=              6.1642  Tot=              9.2320
 Quadrupole moment (field-independent basis, Debye-Ang):
   XX=           -142.2173   YY=           -150.3279   ZZ=           -132.9662
   XY=              9.9323   XZ=              0.4442   YZ=             -1.2802

  Exact polarizability: 405.357  16.645 367.859   1.672  21.519 298.209
 Approx polarizability: 306.080  13.435 299.257   0.654  19.105 255.900

 ******    1 imaginary frequencies (negative Signs) ******

                      1                      2                      3
                      A                      A                      A
 Frequencies --   -396.9667                25.3754                26.5822
 Red. masses --      5.6628                 4.6561                 5.0306
 Frc consts  --      0.5258                 0.0018                 0.0021
 IR Inten    --    561.2567                 0.1896                 1.7305

                      4                      5                      6
                      A                      A                      A
 Frequencies --     36.9049                48.9435                58.7789
 Red. masses --      3.9397                 6.2200                 6.5647
 Frc consts  --      0.0032                 0.0088                 0.0134
 IR Inten    --      0.8624                 3.8055                 1.9055

                      7                      8                      9
                      A                      A                      A
 Frequencies --     72.0289                89.1225                92.0408
 Red. masses --      7.4862                 3.4462                 7.9815
 Frc consts  --      0.0229                 0.0161                 0.0398
 IR Inten    --      1.8401                 1.6599                 6.2914

                     10                     11                     12
                      A                      A                      A
 Frequencies --    123.6325               137.2892               156.4705
 Red. masses --      4.0781                 3.7533                 2.3119
 Frc consts  --      0.0367                 0.0417                 0.0333
 IR Inten    --      8.6245                 3.6833                 0.0366

                     13                     14                     15
                      A                      A                      A
 Frequencies --    169.3898               182.4401               192.6233
 Red. masses --      5.0275                 3.1253                 4.3844
 Frc consts  --      0.0850                 0.0613                 0.0958
 IR Inten    --      4.5680                 4.6641                 0.6489

                     16                     17                     18
                      A                      A                      A
 Frequencies --    222.9340               237.2249               245.8007
 Red. masses --      5.6182                 3.1264                 4.8304
 Frc consts  --      0.1645                 0.1037                 0.1719
 IR Inten    --      8.8437                17.0855                 4.2704

                     19                     20                     21
                      A                      A                      A
 Frequencies --    260.0461               270.5516               340.8298
 Red. masses --      4.6781                 5.7750                 7.7052
 Frc consts  --      0.1864                 0.2491                 0.5274
 IR Inten    --     27.1998                 5.5662                19.3302

                     22                     23                     24
                      A                      A                      A
 Frequencies --    380.3034               390.7994               422.2983
 Red. masses --      5.5308                 5.1297                 2.8539
 Frc consts  --      0.4713                 0.4616                 0.2999
 IR Inten    --      4.3492                15.1487                 0.0311

                     25                     26                     27
                      A                      A                      A
 Frequencies --    424.8824               519.1658               523.6561
 Red. masses --      2.9639                 3.8979                 3.0978
 Frc consts  --      0.3152                 0.6190                 0.5005
 IR Inten    --      0.7296                 4.9333                 8.2763

                     28                     29                     30
                      A                      A                      A
 Frequencies --    531.3464               572.5833               590.2330
 Red. masses --      7.1304                 3.5954                 1.4803
 Frc consts  --      1.1861                 0.6945                 0.3038
 IR Inten    --    116.9154                19.3383               108.2387

                     31                     32                     33
                      A                      A                      A
 Frequencies --    631.3504               634.3309               641.0106
 Red. masses --      6.1066                 4.8830                 6.4827
 Frc consts  --      1.4341                 1.1576                 1.5694
 IR Inten    --    133.7909                10.4742                50.4606

                     34                     35                     36
                      A                      A                      A
 Frequencies --    658.2280               712.1072               720.4032
 Red. masses --      1.6904                 5.5525                 1.8877
 Frc consts  --      0.4315                 1.6589                 0.5772
 IR Inten    --     40.2755                80.4202                60.1586

                     37                     38                     39
                      A                      A                      A
 Frequencies --    726.5202               759.6360               782.3476
 Red. masses --      1.4780                 2.9470                 2.2721
 Frc consts  --      0.4596                 1.0019                 0.8194
 IR Inten    --    149.0433               113.4948                32.6731

                     40                     41                     42
                      A                      A                      A
 Frequencies --    791.1070               822.1062               847.2603
 Red. masses --      4.2669                 2.8910                 4.8907
 Frc consts  --      1.5734                 1.1512                 2.0685
 IR Inten    --    124.0681                17.8846                23.5412

                     43                     44                     45
                      A                      A                      A
 Frequencies --    863.4515               875.7036               914.1693
 Red. masses --      1.2685                 1.2511                 3.8725
 Frc consts  --      0.5572                 0.5653                 1.9067
 IR Inten    --      0.8379                 0.2324                34.0356

                     46                     47                     48
                      A                      A                      A
 Frequencies --    942.8384               956.1344              1004.3006
 Red. masses --      1.6537                 1.4996                 1.3571
 Frc consts  --      0.8661                 0.8077                 0.8065
 IR Inten    --      3.9887                 2.3311                 0.1504

                     49                     50                     51
                      A                      A                      A
 Frequencies --   1007.5656              1010.5244              1019.5421
 Red. masses --      1.1368                 1.3359                 3.0126
 Frc consts  --      0.6800                 0.8038                 1.8450
 IR Inten    --     18.6492                 4.0844                 5.5770

                     52                     53                     54
                      A                      A                      A
 Frequencies --   1020.9748              1025.1802              1027.3787
 Red. masses --      1.5813                 4.4136                 1.4716
 Frc consts  --      0.9712                 2.7330                 0.9152
 IR Inten    --      0.2970                 5.6796                 0.5526

                     55                     56                     57
                      A                      A                      A
 Frequencies --   1028.6567              1043.4328              1062.8780
 Red. masses --      3.9541                 1.2205                 2.1509
 Frc consts  --      2.4651                 0.7829                 1.4316
 IR Inten    --      5.8003                89.4594                16.1511

                     58                     59                     60
                      A                      A                      A
 Frequencies --   1068.4651              1084.7922              1109.2176
 Red. masses --      1.9598                 5.0996                 1.5463
 Frc consts  --      1.3182                 3.5358                 1.1209
 IR Inten    --     11.7527                46.5536                12.4631

                     61                     62                     63
                      A                      A                      A
 Frequencies --   1125.1935              1181.8531              1183.8255
 Red. masses --      1.5433                 1.1366                 1.1308
 Frc consts  --      1.1512                 0.9354                 0.9337
 IR Inten    --     10.8792                 0.1094                 5.5456

                     64                     65                     66
                      A                      A                      A
 Frequencies --   1206.2802              1211.6943              1216.4067
 Red. masses --      1.1190                 1.6964                 1.5682
 Frc consts  --      0.9594                 1.4675                 1.3671
 IR Inten    --      1.7496               158.0067                51.9522

                     67                     68                     69
                      A                      A                      A
 Frequencies --   1223.7126              1268.2534              1305.9075
 Red. masses --      1.5036                 2.8127                 5.2760
 Frc consts  --      1.3266                 2.6656                 5.3013
 IR Inten    --     43.8134               752.5327               346.1921

                     70                     71                     72
                      A                      A                      A
 Frequencies --   1308.6969              1339.6102              1345.7658
 Red. masses --      4.4231                 4.2639                 1.3509
 Frc consts  --      4.4633                 4.5083                 1.4415
 IR Inten    --      7.2051               286.7752                22.8643

                     73                     74                     75
                      A                      A                      A
 Frequencies --   1355.9249              1367.6061              1437.8666
 Red. masses --      1.4555                 1.4935                 2.9215
 Frc consts  --      1.5766                 1.6458                 3.5587
 IR Inten    --      0.8508                42.4999               477.8341

                     76                     77                     78
                      A                      A                      A
 Frequencies --   1464.1395              1479.9113              1487.7654
 Red. masses --      1.4808                 2.1382                 2.1700
 Frc consts  --      1.8703                 2.7591                 2.8299
 IR Inten    --    134.0283               235.4556                 7.7134

                     79                     80                     81
                      A                      A                      A
 Frequencies --   1494.3650              1499.0848              1544.5983
 Red. masses --      1.0552                 1.0392                 2.4544
 Frc consts  --      1.3883                 1.3760                 3.4501
 IR Inten    --     53.7650                14.9448                56.8129

                     82                     83                     84
                      A                      A                      A
 Frequencies --   1548.9807              1566.8070              1632.9148
 Red. masses --      2.3818                 1.9547                 1.0953
 Frc consts  --      3.3670                 2.8272                 1.7208
 IR Inten    --    185.0942               516.8794                89.1679

                     85                     86                     87
                      A                      A                      A
 Frequencies --   1647.3977              1663.5409              1669.1967
 Red. masses --      5.7761                 6.4380                 5.1097
 Frc consts  --      9.2360                10.4971                 8.3880
 IR Inten    --      0.9660               156.5031                81.9177

                     88                     89                     90
                      A                      A                      A
 Frequencies --   1673.0383              1688.7125              3074.8426
 Red. masses --      5.2390                 7.1327                 1.0324
 Frc consts  --      8.6399                11.9843                 5.7509
 IR Inten    --     78.1726               649.2411                21.4916

                     91                     92                     93
                      A                      A                      A
 Frequencies --   3157.4486              3169.6282              3188.9615
 Red. masses --      1.1049                 1.1062                 1.0882
 Frc consts  --      6.4902                 6.5479                 6.5201
 IR Inten    --      7.6640                 8.6251                11.7548

                     94                     95                     96
                      A                      A                      A
 Frequencies --   3189.5027              3195.0952              3198.6300
 Red. masses --      1.0860                 1.0882                 1.0882
 Frc consts  --      6.5093                 6.5450                 6.5598
 IR Inten    --      4.1324                 0.3929                 1.7425

                     97                     98                     99
                      A                      A                      A
 Frequencies --   3204.3333              3208.1597              3212.2590
 Red. masses --      1.0920                 1.0932                 1.0947
 Frc consts  --      6.6062                 6.6289                 6.6551
 IR Inten    --     22.1441                28.0068                44.1186

                    100                    101                    102
                      A                      A                      A
 Frequencies --   3220.4476              3222.4798              3262.8442
 Red. masses --      1.0986                 1.0979                 1.0924
 Frc consts  --      6.7128                 6.7173                 6.8518
 IR Inten    --     17.1301                23.1798                 1.5177

                    103                    104                    105
                      A                      A                      A
 Frequencies --   3519.1292              3600.6381              3604.4522
 Red. masses --      1.0505                 1.0768                 1.0965
 Frc consts  --      7.6654                 8.2251                 8.3937
 IR Inten    --     64.2463               239.3920                39.5016

 - Thermochemistry -
 -------------------
 Temperature   298.150 Kelvin.  Pressure   1.00000 Atm.
 Atom     1 has atomic number  6 and mass  12.00000

 Molecular mass:   409.96294 amu.
 Principal axes and moments of inertia in atomic units:
                           1         2         3
     Eigenvalues --  6099.14018********************
           X            0.99942   0.03378  -0.00507
           Y           -0.03388   0.99922  -0.02026
           Z            0.00438   0.02042   0.99978
 This molecule is an asymmetric top.
 Rotational symmetry number  1.
 Warning -- assumption of classical behavior for rotation
           may cause significant error
 Rotational temperatures (Kelvin)      0.01420     0.00719     0.00558
 Rotational constants (GHZ):           0.29590     0.14979     0.11629
    1 imaginary frequencies ignored.
 Zero-point vibrational energy     762642.0 (Joules/Mol)
                                  182.27582 (Kcal/Mol)
 Warning -- explicit consideration of  29 degrees of freedom as
           vibrations may cause significant error
 Vibrational temperatures:     36.51    38.25    53.10    70.42    84.57
          (Kelvin)            103.63   128.23   132.43   177.88   197.53
                              225.13   243.71   262.49   277.14   320.75
                              341.31   353.65   374.15   389.26   490.38
                              547.17   562.27   607.59   611.31   746.96
                              753.42   764.49   823.82   849.21   908.37
                              912.66   922.27   947.04  1024.56  1036.50
                             1045.30  1092.95  1125.62  1138.23  1182.83
                             1219.02  1242.31  1259.94  1315.29  1356.53
                             1375.66  1444.96  1449.66  1453.92  1466.89
                             1468.96  1475.01  1478.17  1480.01  1501.27
                             1529.24  1537.28  1560.77  1595.92  1618.90
                             1700.42  1703.26  1735.57  1743.36  1750.14
                             1760.65  1824.73  1878.91  1882.92  1927.40
                             1936.26  1950.87  1967.68  2068.77  2106.57
                             2129.26  2140.56  2150.06  2156.85  2222.33
                             2228.64  2254.29  2349.40  2370.24  2393.46
                             2401.60  2407.13  2429.68  4424.01  4542.86
                             4560.39  4588.20  4588.98  4597.03  4602.12
                             4610.32  4615.83  4621.72  4633.51  4636.43
                             4694.51  5063.24  5180.52  5186.00

 Zero-point correction=                           0.290475 (Hartree/Particle)
 Thermal correction to Energy=                    0.310849
 Thermal correction to Enthalpy=                  0.311793
 Thermal correction to Gibbs Free Energy=         0.237939
 Sum of electronic and zero-point Energies=          -5952.190646
 Sum of electronic and thermal Energies=             -5952.170272
 Sum of electronic and thermal Enthalpies=           -5952.169328
 Sum of electronic and thermal Free Energies=        -5952.243183

                     E (Thermal)             CV                S
                      KCal/Mol        Cal/Mol-Kelvin    Cal/Mol-Kelvin
 Total                  195.061             74.665            155.440
 Electronic               0.000              0.000              0.000
 Translational            0.889              2.981             43.924
 Rotational               0.889              2.981             35.388
 Vibrational            193.283             68.703             76.129
 Vibration     1          0.593              1.985              6.162
 Vibration     2          0.593              1.984              6.069
 Vibration     3          0.594              1.982              5.419
 Vibration     4          0.595              1.978              4.860
 Vibration     5          0.596              1.974              4.498
 Vibration     6          0.598              1.967              4.097
 Vibration     7          0.602              1.957              3.679
 Vibration     8          0.602              1.955              3.616
 Vibration     9          0.610              1.929              3.043
 Vibration    10          0.614              1.916              2.841
 Vibration    11          0.620              1.895              2.592
 Vibration    12          0.625              1.880              2.442
 Vibration    13          0.630              1.864              2.303
 Vibration    14          0.635              1.850              2.202
 Vibration    15          0.649              1.806              1.935
 Vibration    16          0.656              1.784              1.824
 Vibration    17          0.660              1.770              1.760
 Vibration    18          0.668              1.746              1.661
 Vibration    19          0.674              1.727              1.593
 Vibration    20          0.720              1.594              1.208
 Vibration    21          0.750              1.512              1.038
 Vibration    22          0.758              1.490              0.997
 Vibration    23          0.785              1.422              0.884
 Vibration    24          0.787              1.416              0.876
 Vibration    25          0.874              1.208              0.612
 Vibration    26          0.879              1.198              0.602
 Vibration    27          0.886              1.181              0.584
 Vibration    28          0.929              1.091              0.499
 Vibration    29          0.948              1.053              0.467

 Optimization completed.
    -- Stationary point found.
 Normal termination of Gaussian 16 at Sun Jun 13 22:28:15 2021.
