 Gaussian 16, Revision A.03,
 Gaussian 16:  ES64L-G16RevA.03 25-Dec-2016

 ----------------------------------------------------------------------
 # wB97XD def2tzvp, opt=(ts, noeigen, calcfc, maxcycles=70, maxstep=3),
  freq=noraman, scrf=(iefpcm, solvent=water)
 ----------------------------------------------------------------------

 ------------------------
 3_iteration/TS-728-3.out
 ------------------------
 Symbolic Z-matrix:
 Charge =  0 Multiplicity = 1

 SCF Done:  E(RwB97XD) =  -5897.10299071     A.U. after   15 cycles
 SCF Done:  E(RwB97XD) =  -5897.10299078     A.U. after    7 cycles
 Optimization completed.
    -- Stationary point found.
 Normal termination of Gaussian 16 at Tue Feb 23 00:12:58 2021.

 ---------------------------------------------------------------------
 #N Geom=AllCheck Guess=TCheck SCRF=Check GenChk RwB97XD/def2TZVP Freq
 ---------------------------------------------------------------------

 Structure from the checkpoint file:  "/beegfs/scratch/user/q/tla25/Gau-20743.chk"
 ------------------------
 3_iteration/TS-728-3.out
 ------------------------
 Charge =  0 Multiplicity = 1

                         Standard orientation:
 ---------------------------------------------------------------------
 Center     Atomic      Atomic             Coordinates (Angstroms)
 Number     Number       Type             X           Y           Z
 ---------------------------------------------------------------------
      1          6           0        0.435097    0.560567   -0.086391
      2          6           0       -0.552428    1.597083   -0.309956
      3          8           0       -0.221371    2.729318   -0.661975
      4          6           0        0.164584   -0.799621    0.020582
      5          6           0        0.187295   -0.690376    2.856044
      6          1           0       -0.300653   -0.866780    3.814077
      7          1           0        1.209097   -1.062571    2.893729
      8          1           0        0.207968    0.381301    2.659462
      9          7           0       -0.524360   -1.342966    1.769824
     10          1           0       -0.471234   -2.354332    1.822842
     11          1           0       -1.503345   -1.076545    1.746810
     12         35           0        1.687460   -1.988055   -0.007812
     13         35           0       -1.279990   -1.624971   -0.996908
     14          6           0        1.850867    1.052086   -0.095923
     15          6           0        2.564378    1.072380   -1.292941
     16          6           0        3.866645    1.543465   -1.340130
     17          6           0        4.479039    2.011662   -0.185221
     18          6           0        3.775223    2.011396    1.009501
     19          6           0        2.470257    1.539258    1.050105
     20          1           0        2.088882    0.706471   -2.195188
     21          1           0        4.404976    1.545962   -2.279862
     22          1           0        5.497425    2.377992   -0.218154
     23          1           0        4.241141    2.380139    1.914909
     24          1           0        1.930511    1.551985    1.988036
     25          6           0       -2.021253    1.373633   -0.075295
     26          6           0       -2.514170    1.163215    1.206400
     27          6           0       -3.879306    1.027616    1.422070
     28          6           0       -4.759809    1.101610    0.354273
     29          6           0       -4.273297    1.340083   -0.925460
     30          6           0       -2.913282    1.488695   -1.136747
     31          1           0       -1.835770    1.141008    2.050576
     32          1           0       -4.251717    0.869792    2.426177
     33          1           0       -5.823564    0.986595    0.518242
     34          1           0       -4.958438    1.410855   -1.760759
     35          1           0       -2.534294    1.673749   -2.134133
 ---------------------------------------------------------------------

 SCF Done:  E(RwB97XD) =  -5897.10299078     A.U. after    1 cycles

 The electronic state is 1-A.
 Alpha  occ. eigenvalues -- -483.14502-483.14177 -62.69329 -62.69009 -56.48468
 Alpha  occ. eigenvalues --  -56.48144 -56.48086 -56.48067 -56.47765 -56.47751
 Alpha  occ. eigenvalues --  -19.22258 -14.49677 -10.44752 -10.37166 -10.32370
 Alpha  occ. eigenvalues --  -10.30374 -10.30131 -10.29860 -10.29615 -10.29528
 Alpha  occ. eigenvalues --  -10.29464 -10.29402 -10.28837 -10.28796 -10.28744
 Alpha  occ. eigenvalues --  -10.28721 -10.28671 -10.28585  -8.83426  -8.83105
 Alpha  occ. eigenvalues --   -6.65639  -6.65307  -6.64426  -6.64368  -6.64104
 Alpha  occ. eigenvalues --   -6.64062  -2.76015  -2.75682  -2.75676  -2.75631
 Alpha  occ. eigenvalues --   -2.75346  -2.75312  -2.74650  -2.74649  -2.74340
 Alpha  occ. eigenvalues --   -2.74340  -1.13177  -1.05270  -0.97667  -0.97144
 Alpha  occ. eigenvalues --   -0.95445  -0.88340  -0.88238  -0.86469  -0.85749
 Alpha  occ. eigenvalues --   -0.84859  -0.82118  -0.79734  -0.73699  -0.71211
 Alpha  occ. eigenvalues --   -0.70998  -0.70172  -0.68292  -0.64691  -0.63920
 Alpha  occ. eigenvalues --   -0.61409  -0.59058  -0.58137  -0.57456  -0.55744
 Alpha  occ. eigenvalues --   -0.55355  -0.54932  -0.53845  -0.53636  -0.52648
 Alpha  occ. eigenvalues --   -0.51593  -0.50691  -0.50424  -0.48789  -0.48384
 Alpha  occ. eigenvalues --   -0.48188  -0.46916  -0.46208  -0.45730  -0.44703
 Alpha  occ. eigenvalues --   -0.43215  -0.42633  -0.42493  -0.40509  -0.38882
 Alpha  occ. eigenvalues --   -0.37755  -0.37049  -0.34554  -0.34408  -0.33481
 Alpha  occ. eigenvalues --   -0.33345  -0.31821  -0.29413
 Alpha virt. eigenvalues --    0.01152   0.01486   0.04407   0.05084   0.05436
 Alpha virt. eigenvalues --    0.05884   0.06633   0.10389   0.12510   0.13394
 Alpha virt. eigenvalues --    0.13814   0.14240   0.14881   0.15572   0.16555

 Mulliken charges:
               1
     1  C   -0.364956
     2  C    0.274313
     3  O   -0.460959
     4  C    0.177260
     5  C   -0.315208
     6  H    0.176670
     7  H    0.171076
     8  H    0.143985
     9  N   -0.327075
    10  H    0.296301
    11  H    0.285701
    12  Br  -0.032820
    13  Br  -0.054740
    14  C    0.282271
    15  C   -0.261212
    16  C   -0.143086
    17  C   -0.132918
    18  C   -0.173935
    19  C   -0.203350
    20  H    0.138608
    21  H    0.139911
    22  H    0.142729
    23  H    0.138594
    24  H    0.143269
    25  C    0.184246
    26  C   -0.351030
    27  C   -0.125070
    28  C   -0.149051
    29  C   -0.130045
    30  C   -0.247102
    31  H    0.197191
    32  H    0.145414
    33  H    0.146901
    34  H    0.145549
    35  H    0.142568
 Sum of Mulliken charges =   0.00000

 Dipole moment (field-independent basis, Debye):
    X=             -2.5929    Y=             -6.7031    Z=              6.6134  Tot=              9.7669
 Quadrupole moment (field-independent basis, Debye-Ang):
   XX=           -125.7384   YY=           -159.1213   ZZ=           -121.0062
   XY=              3.7325   XZ=             -2.6426   YZ=             -2.6024

  Exact polarizability: 387.284  19.917 301.366   1.363 -14.329 327.788
 Approx polarizability: 299.268  16.615 248.171   0.841 -10.445 282.879

 ******    1 imaginary frequencies (negative Signs) ******

                      1                      2                      3
                      A                      A                      A
 Frequencies --   -363.7550                24.4098                36.9237
 Red. masses --      5.8910                 5.0838                 5.5356
 Frc consts  --      0.4593                 0.0018                 0.0044
 IR Inten    --    760.5812                 1.8135                 0.9533

                      4                      5                      6
                      A                      A                      A
 Frequencies --     45.4526                57.0131                69.1956
 Red. masses --      5.9877                 5.5737                 5.1272
 Frc consts  --      0.0073                 0.0107                 0.0145
 IR Inten    --      4.9346                 0.7363                 0.3951

                      7                      8                      9
                      A                      A                      A
 Frequencies --     72.1798                99.3234               120.7360
 Red. masses --      6.4288                 3.2634                 7.2225
 Frc consts  --      0.0197                 0.0190                 0.0620
 IR Inten    --      2.5580                 1.0495                 1.7956

                     10                     11                     12
                      A                      A                      A
 Frequencies --    131.1695               164.2687               173.1461
 Red. masses --      3.5731                 7.2609                 4.8501
 Frc consts  --      0.0362                 0.1154                 0.0857
 IR Inten    --      3.0847                 0.8542                 0.2810

                     13                     14                     15
                      A                      A                      A
 Frequencies --    195.8719               203.8508               210.0044
 Red. masses --      4.8410                 4.1648                 1.5735
 Frc consts  --      0.1094                 0.1020                 0.0409
 IR Inten    --      5.4555                 5.4180                 7.7875

                     16                     17                     18
                      A                      A                      A
 Frequencies --    235.4869               245.2909               262.1435
 Red. masses --      5.0644                 3.7776                 3.1381
 Frc consts  --      0.1655                 0.1339                 0.1271
 IR Inten    --      4.0578                10.8997                13.2478

                     19                     20                     21
                      A                      A                      A
 Frequencies --    272.4541               320.4090               377.7313
 Red. masses --      5.2011                 7.5225                 5.4381
 Frc consts  --      0.2275                 0.4550                 0.4572
 IR Inten    --     22.4372                11.8593                18.1503

                     22                     23                     24
                      A                      A                      A
 Frequencies --    404.7964               421.4232               422.9279
 Red. masses --      5.5010                 2.9649                 2.8470
 Frc consts  --      0.5311                 0.3102                 0.3000
 IR Inten    --     18.8825                 2.2426                 0.1075

                     25                     26                     27
                      A                      A                      A
 Frequencies --    519.0069               537.6600               555.4864
 Red. masses --      4.1023                 6.0003                 4.6381
 Frc consts  --      0.6511                 1.0220                 0.8432
 IR Inten    --      1.4050                59.2867                46.0159

                     28                     29                     30
                      A                      A                      A
 Frequencies --    619.3379               635.3511               639.0895
 Red. masses --      5.0277                 6.2519                 3.1294
 Frc consts  --      1.1362                 1.4869                 0.7531
 IR Inten    --     92.6667                 0.5926                 5.2971

                     31                     32                     33
                      A                      A                      A
 Frequencies --    641.6299               686.5181               724.0415
 Red. masses --      2.2855                 4.5225                 1.6291
 Frc consts  --      0.5544                 1.2558                 0.5032
 IR Inten    --     11.8809               100.4380                84.6650

                     34                     35                     36
                      A                      A                      A
 Frequencies --    731.8041               749.5564               770.7588
 Red. masses --      1.6436                 3.6503                 3.3140
 Frc consts  --      0.5186                 1.2083                 1.1599
 IR Inten    --     96.3449                94.3527                91.1016

                     37                     38                     39
                      A                      A                      A
 Frequencies --    781.8287               813.9547               838.9012
 Red. masses --      3.1532                 3.8852                 3.5688
 Frc consts  --      1.1356                 1.5166                 1.4798
 IR Inten    --    101.3736                20.7888               147.0793

                     40                     41                     42
                      A                      A                      A
 Frequencies --    874.1337               884.2854               892.5438
 Red. masses --      1.2524                 1.3457                 3.4414
 Frc consts  --      0.5638                 0.6200                 1.6153
 IR Inten    --      0.1474                 1.6284                 6.3690

                     43                     44                     45
                      A                      A                      A
 Frequencies --    956.5902               967.0300              1005.1295
 Red. masses --      1.5172                 1.4912                 1.1319
 Frc consts  --      0.8180                 0.8216                 0.6737
 IR Inten    --     18.9157                12.6365                19.7909

                     46                     47                     48
                      A                      A                      A
 Frequencies --   1009.2672              1016.8518              1027.0049
 Red. masses --      1.3816                 1.5210                 2.7888
 Frc consts  --      0.8292                 0.9266                 1.7331
 IR Inten    --      0.2689                 7.1497                22.8240

                     49                     50                     51
                      A                      A                      A
 Frequencies --   1027.2481              1027.5543              1032.5354
 Red. masses --      2.1879                 2.0977                 1.2273
 Frc consts  --      1.3603                 1.3050                 0.7709
 IR Inten    --      1.1739                 1.6534                48.9142

                     52                     53                     54
                      A                      A                      A
 Frequencies --   1035.4299              1057.3566              1062.2287
 Red. masses --      1.3453                 2.5753                 2.1435
 Frc consts  --      0.8498                 1.6964                 1.4250
 IR Inten    --     30.3177                 7.5420                16.2588

                     55                     56                     57
                      A                      A                      A
 Frequencies --   1086.6080              1111.0897              1111.7378
 Red. masses --      4.9067                 1.5522                 1.6046
 Frc consts  --      3.4134                 1.1290                 1.1685
 IR Inten    --     46.6215                17.5180                24.2575

                     58                     59                     60
                      A                      A                      A
 Frequencies --   1124.7900              1181.9769              1185.0265
 Red. masses --      3.0133                 1.1331                 1.1395
 Frc consts  --      2.2461                 0.9327                 0.9428
 IR Inten    --     54.2088                 0.0776                 0.3692

                     61                     62                     63
                      A                      A                      A
 Frequencies --   1207.1106              1208.1888              1216.5386
 Red. masses --      1.1220                 1.1224                 1.4001
 Frc consts  --      0.9633                 0.9653                 1.2208
 IR Inten    --      3.2974                 0.3394                24.4288

                     64                     65                     66
                      A                      A                      A
 Frequencies --   1240.1485              1309.1349              1319.5275
 Red. masses --      4.0880                 4.4805                 4.1164
 Frc consts  --      3.7043                 4.5242                 4.2228
 IR Inten    --    125.8730                10.4483               217.0351

                     67                     68                     69
                      A                      A                      A
 Frequencies --   1335.8138              1342.5290              1357.4337
 Red. masses --      5.8593                 1.3865                 1.4489
 Frc consts  --      6.1601                 1.4723                 1.5730
 IR Inten    --   1078.4338                55.9633                 0.9461

                     70                     71                     72
                      A                      A                      A
 Frequencies --   1358.9506              1405.4080              1456.1647
 Red. masses --      1.4909                 5.6827                 1.2366
 Frc consts  --      1.6222                 6.6131                 1.5449
 IR Inten    --     43.3456               442.0235                19.0769

                     73                     74                     75
                      A                      A                      A
 Frequencies --   1487.3567              1488.6920              1495.2245
 Red. masses --      2.1935                 2.1950                 1.0373
 Frc consts  --      2.8590                 2.8661                 1.3664
 IR Inten    --      5.8065                15.6363                14.9931

                     76                     77                     78
                      A                      A                      A
 Frequencies --   1501.1514              1541.9049              1544.2631
 Red. masses --      1.0500                 2.3262                 2.4054
 Frc consts  --      1.3941                 3.2585                 3.3797
 IR Inten    --     43.7846                 4.7605                41.9093

                     79                     80                     81
                      A                      A                      A
 Frequencies --   1636.8372              1644.7524              1648.0559
 Red. masses --      1.0950                 8.0989                 5.9047
 Frc consts  --      1.7286                12.9086                 9.4492
 IR Inten    --     78.4980               366.0848                26.2146

                     82                     83                     84
                      A                      A                      A
 Frequencies --   1652.8520              1672.8759              1675.1475
 Red. masses --      7.2237                 6.1038                 5.8828
 Frc consts  --     11.6273                10.0642                 9.7262
 IR Inten    --    226.3672                61.8452                 0.6829

                     85                     86                     87
                      A                      A                      A
 Frequencies --   3071.8546              3150.6570              3169.5930
 Red. masses --      1.0328                 1.1044                 1.1057
 Frc consts  --      5.7419                 6.4595                 6.5446
 IR Inten    --     24.5870                 8.3955                 9.7435

                     88                     89                     90
                      A                      A                      A
 Frequencies --   3190.3270              3195.4623              3196.7006
 Red. masses --      1.0861                 1.0859                 1.0882
 Frc consts  --      6.5129                 6.5328                 6.5520
 IR Inten    --      3.8341                 2.8616                 0.8856

                     91                     92                     93
                      A                      A                      A
 Frequencies --   3199.6636              3205.9938              3207.4915
 Red. masses --      1.0878                 1.0925                 1.0915
 Frc consts  --      6.5617                 6.6158                 6.6158
 IR Inten    --      0.4160                25.4101                 9.1531

                     94                     95                     96
                      A                      A                      A
 Frequencies --   3214.9143              3215.0631              3222.9240
 Red. masses --      1.0952                 1.0948                 1.0974
 Frc consts  --      6.6696                 6.6673                 6.7161
 IR Inten    --     38.8685                37.8761                15.1614

                     97                     98                     99
                      A                      A                      A
 Frequencies --   3224.4352              3507.2483              3594.7983
 Red. masses --      1.0989                 1.0514                 1.0965
 Frc consts  --      6.7318                 7.6201                 8.3487
 IR Inten    --     16.5341                66.8878               100.9131

 - Thermochemistry -
 -------------------
 Temperature   298.150 Kelvin.  Pressure   1.00000 Atm.
 Atom     1 has atomic number  6 and mass  12.00000

 Molecular mass:   394.95204 amu.
 Principal axes and moments of inertia in atomic units:
                           1         2         3
     Eigenvalues --  5259.380979468.90762**********
           X            0.99974   0.01983  -0.01114
           Y           -0.02024   0.99906  -0.03824
           Z            0.01037   0.03845   0.99921
 This molecule is an asymmetric top.
 Rotational symmetry number  1.
 Warning -- assumption of classical behavior for rotation
           may cause significant error
 Rotational temperatures (Kelvin)      0.01647     0.00915     0.00745
 Rotational constants (GHZ):           0.34315     0.19060     0.15534
    1 imaginary frequencies ignored.
 Zero-point vibrational energy     716567.6 (Joules/Mol)
                                  171.26376 (Kcal/Mol)
 Warning -- explicit consideration of  27 degrees of freedom as
           vibrations may cause significant error
 Vibrational temperatures:     35.12    53.12    65.40    82.03    99.56
          (Kelvin)            103.85   142.90   173.71   188.72   236.35
                              249.12   281.82   293.30   302.15   338.81
                              352.92   377.17   392.00   461.00   543.47
                              582.41   606.33   608.50   746.74   773.57
                              799.22   891.09   914.13   919.51   923.16
                              987.75  1041.73  1052.90  1078.44  1108.95
                             1124.88  1171.10  1206.99  1257.68  1272.29
                             1284.17  1376.32  1391.34  1446.16  1452.11
                             1463.02  1477.63  1477.98  1478.42  1485.59
                             1489.75  1521.30  1528.31  1563.39  1598.61
                             1599.54  1618.32  1700.60  1704.99  1736.76
                             1738.31  1750.33  1784.30  1883.55  1898.51
                             1921.94  1931.60  1953.04  1955.23  2022.07
                             2095.10  2139.97  2141.90  2151.29  2159.82
                             2218.46  2221.85  2355.04  2366.43  2371.18
                             2378.09  2406.90  2410.16  4419.71  4533.09
                             4560.34  4590.17  4597.56  4599.34  4603.60
                             4612.71  4614.86  4625.54  4625.76  4637.07
                             4639.24  5046.15  5172.11

 Zero-point correction=                           0.272926 (Hartree/Particle)
 Thermal correction to Energy=                    0.292082
 Thermal correction to Enthalpy=                  0.293026
 Thermal correction to Gibbs Free Energy=         0.222650
 Sum of electronic and zero-point Energies=          -5896.830065
 Sum of electronic and thermal Energies=             -5896.810909
 Sum of electronic and thermal Enthalpies=           -5896.809964
 Sum of electronic and thermal Free Energies=        -5896.880341

                     E (Thermal)             CV                S
                      KCal/Mol        Cal/Mol-Kelvin    Cal/Mol-Kelvin
 Total                  183.284             70.299            148.120
 Electronic               0.000              0.000              0.000
 Translational            0.889              2.981             43.812
 Rotational               0.889              2.981             34.713
 Vibrational            181.507             64.337             69.594
 Vibration     1          0.593              1.985              6.239
 Vibration     2          0.594              1.982              5.418
 Vibration     3          0.595              1.979              5.006
 Vibration     4          0.596              1.975              4.558
 Vibration     5          0.598              1.969              4.176
 Vibration     6          0.598              1.967              4.093
 Vibration     7          0.604              1.950              3.468
 Vibration     8          0.609              1.932              3.089
 Vibration     9          0.612              1.922              2.929
 Vibration    10          0.623              1.886              2.500
 Vibration    11          0.627              1.876              2.401
 Vibration    12          0.636              1.846              2.172
 Vibration    13          0.640              1.834              2.098
 Vibration    14          0.642              1.826              2.044
 Vibration    15          0.655              1.786              1.837
 Vibration    16          0.660              1.771              1.764
 Vibration    17          0.669              1.742              1.647
 Vibration    18          0.675              1.724              1.581
 Vibration    19          0.706              1.634              1.308
 Vibration    20          0.748              1.518              1.048
 Vibration    21          0.770              1.460              0.945
 Vibration    22          0.784              1.424              0.887
 Vibration    23          0.785              1.420              0.882
 Vibration    24          0.874              1.208              0.612
 Vibration    25          0.893              1.167              0.570
 Vibration    26          0.911              1.128              0.533
 Vibration    27          0.979              0.991              0.418

 Optimization completed.
    -- Stationary point found.
 Normal termination of Gaussian 16 at Tue Feb 23 02:42:52 2021.
