 Gaussian 16, Revision A.03,
 Gaussian 16:  ES64L-G16RevA.03 25-Dec-2016

 ----------------------------------------------------------------------
 # wB97XD def2tzvp, opt=(ts, noeigen, calcfc, maxcycles=70, maxstep=1),
  freq=noraman, scrf=(iefpcm, solvent=water)
 ----------------------------------------------------------------------

 ------------------------
 0_iteration/TS-749-0.out
 ------------------------
 Symbolic Z-matrix:
 Charge =  0 Multiplicity = 1

 SCF Done:  E(RwB97XD) =  -8103.29582734     A.U. after   15 cycles
 SCF Done:  E(RwB97XD) =  -8103.29575054     A.U. after   10 cycles
 SCF Done:  E(RwB97XD) =  -8103.29568304     A.U. after   10 cycles
 SCF Done:  E(RwB97XD) =  -8103.29563332     A.U. after   10 cycles
 SCF Done:  E(RwB97XD) =  -8103.29559144     A.U. after   10 cycles
 SCF Done:  E(RwB97XD) =  -8103.29554727     A.U. after   10 cycles
 SCF Done:  E(RwB97XD) =  -8103.29552996     A.U. after   11 cycles
 SCF Done:  E(RwB97XD) =  -8103.29549633     A.U. after   11 cycles
 SCF Done:  E(RwB97XD) =  -8103.29546240     A.U. after   10 cycles
 SCF Done:  E(RwB97XD) =  -8103.29544602     A.U. after   12 cycles
 SCF Done:  E(RwB97XD) =  -8103.29891181     A.U. after   11 cycles
 SCF Done:  E(RwB97XD) =  -8103.29890509     A.U. after   10 cycles
 SCF Done:  E(RwB97XD) =  -8103.29890517     A.U. after   10 cycles
 SCF Done:  E(RwB97XD) =  -8103.29890922     A.U. after   10 cycles
 SCF Done:  E(RwB97XD) =  -8103.29890857     A.U. after   10 cycles
 SCF Done:  E(RwB97XD) =  -8103.29889765     A.U. after   10 cycles
 SCF Done:  E(RwB97XD) =  -8103.29890649     A.U. after    9 cycles
 SCF Done:  E(RwB97XD) =  -8103.29890904     A.U. after   10 cycles
 SCF Done:  E(RwB97XD) =  -8103.29890932     A.U. after    8 cycles
 Optimization completed.
    -- Stationary point found.
 Normal termination of Gaussian 16 at Mon Feb 22 03:48:30 2021.

 ---------------------------------------------------------------------
 #N Geom=AllCheck Guess=TCheck SCRF=Check GenChk RwB97XD/def2TZVP Freq
 ---------------------------------------------------------------------

 Structure from the checkpoint file:  "/beegfs/scratch/user/q/tla25/Gau-18361.chk"
 ------------------------
 0_iteration/TS-749-0.out
 ------------------------
 Charge =  0 Multiplicity = 1

                         Standard orientation:
 ---------------------------------------------------------------------
 Center     Atomic      Atomic             Coordinates (Angstroms)
 Number     Number       Type             X           Y           Z
 ---------------------------------------------------------------------
      1          6           0       -0.538075    0.580993   -0.224452
      2          6           0       -2.001165    0.440165   -0.132130
      3          8           0       -2.755183    1.402223   -0.259594
      4          6           0        0.403754   -0.391760    0.053759
      5          6           0        0.211638    0.171227    2.775307
      6          1           0       -0.566034    0.844953    2.417011
      7          1           0       -0.026003   -0.142736    3.790764
      8          1           0        1.168326    0.688645    2.768771
      9          7           0        0.276486   -0.976027    1.878403
     10          1           0        1.058679   -1.589368    2.081495
     11          1           0       -0.578158   -1.520759    1.925070
     12         35           0        2.266314    0.049155   -0.015724
     13         35           0        0.210413   -2.201415   -0.744107
     14         35           0        0.004535    2.396185   -0.445329
     15          7           0       -2.515545   -0.784118    0.183658
     16          6           0       -3.950747   -0.972285    0.219176
     17          1           0       -1.968957   -1.601394   -0.023498
     18          1           0       -4.401266   -0.298885    0.946831
     19          1           0       -4.415107   -0.786260   -0.752592
     20          1           0       -4.153221   -1.998393    0.519127
 ---------------------------------------------------------------------

 SCF Done:  E(RwB97XD) =  -8103.29890932     A.U. after    1 cycles

 The electronic state is 1-A.
 Alpha  occ. eigenvalues -- -483.15131-483.14729-483.12552 -62.69967 -62.69569
 Alpha  occ. eigenvalues --  -62.67379 -56.49115 -56.48719 -56.48698 -56.48696
 Alpha  occ. eigenvalues --  -56.48327 -56.48316 -56.46508 -56.46137 -56.46127
 Alpha  occ. eigenvalues --  -19.20994 -14.50522 -14.45330 -10.45337 -10.39237
 Alpha  occ. eigenvalues --  -10.32512 -10.32441 -10.30834  -8.84078  -8.83668
 Alpha  occ. eigenvalues --   -8.81494  -6.66323  -6.65840  -6.65063  -6.65001
 Alpha  occ. eigenvalues --   -6.64677  -6.64641  -6.63680  -6.62493  -6.62468
 Alpha  occ. eigenvalues --   -2.76696  -2.76342  -2.76294  -2.76213  -2.75895
 Alpha  occ. eigenvalues --   -2.75865  -2.75274  -2.75274  -2.74927  -2.74925
 Alpha  occ. eigenvalues --   -2.74063  -2.73718  -2.73699  -2.72739  -2.72738
 Alpha  occ. eigenvalues --   -1.14140  -1.05920  -1.02082  -0.97208  -0.90352
 Alpha  occ. eigenvalues --   -0.88529  -0.83108  -0.79909  -0.78829  -0.70067
 Alpha  occ. eigenvalues --   -0.66648  -0.64775  -0.59994  -0.58437  -0.56590
 Alpha  occ. eigenvalues --   -0.55551  -0.53793  -0.52149  -0.51246  -0.49172
 Alpha  occ. eigenvalues --   -0.48457  -0.47728  -0.46781  -0.45373  -0.41297
 Alpha  occ. eigenvalues --   -0.39948  -0.39553  -0.38558  -0.37925  -0.36620
 Alpha  occ. eigenvalues --   -0.34524  -0.33643  -0.28312
 Alpha virt. eigenvalues --    0.00487   0.02721   0.04156   0.09912   0.11885
 Alpha virt. eigenvalues --    0.13250   0.13980   0.15172   0.15772   0.16995
 Alpha virt. eigenvalues --    0.17580   0.19191   0.19936   0.20553   0.21243

 Mulliken charges:
               1
     1  C   -0.255811
     2  C    0.317356
     3  O   -0.502471
     4  C    0.090605
     5  C   -0.294269
     6  H    0.163907
     7  H    0.169286
     8  H    0.163261
     9  N   -0.309513
    10  H    0.302415
    11  H    0.285947
    12  Br  -0.007245
    13  Br  -0.083068
    14  Br  -0.104683
    15  N   -0.326607
    16  C   -0.254746
    17  H    0.241541
    18  H    0.134616
    19  H    0.127385
    20  H    0.142095
 Sum of Mulliken charges =  -0.00000

 Dipole moment (field-independent basis, Debye):
    X=              2.6960    Y=             -8.0507    Z=              6.8635  Tot=             10.9174
 Quadrupole moment (field-independent basis, Debye-Ang):
   XX=           -106.6603   YY=           -106.1526   ZZ=            -91.1202
   XY=             13.7667   XZ=             -0.1280   YZ=             -2.9344

  Exact polarizability: 218.344  -5.921 226.539   6.945  -3.658 170.962
 Approx polarizability: 173.556  -4.342 186.728   4.436  -3.866 145.535

 ******    1 imaginary frequencies (negative Signs) ******

                      1                      2                      3
                      A                      A                      A
 Frequencies --   -387.8819                38.3527                61.7008
 Red. masses --      5.6348                 7.9678                 4.5473
 Frc consts  --      0.4995                 0.0069                 0.0102
 IR Inten    --    551.9075                 7.2494                12.6485

                      4                      5                      6
                      A                      A                      A
 Frequencies --     73.6343               103.8193               121.0787
 Red. masses --      2.8853                 2.8963                 4.8558
 Frc consts  --      0.0092                 0.0184                 0.0419
 IR Inten    --      0.1096                 3.0767                 4.6253

                      7                      8                      9
                      A                      A                      A
 Frequencies --    138.7862               149.3710               153.5956
 Red. masses --      1.4893                 2.0110                11.0661
 Frc consts  --      0.0169                 0.0264                 0.1538
 IR Inten    --      4.9738                 0.2763                 0.9499

                     10                     11                     12
                      A                      A                      A
 Frequencies --    164.6514               174.5796               184.7686
 Red. masses --      1.8320                 4.3596                 9.3761
 Frc consts  --      0.0293                 0.0783                 0.1886
 IR Inten    --      0.7542                 2.6337                 9.3460

                     13                     14                     15
                      A                      A                      A
 Frequencies --    225.1547               260.1388               277.0744
 Red. masses --      2.7967                 6.3329                 7.7896
 Frc consts  --      0.0835                 0.2525                 0.3523
 IR Inten    --     13.3515                24.3945                 9.3626

                     16                     17                     18
                      A                      A                      A
 Frequencies --    286.4155               304.1168               391.6316
 Red. masses --      6.1617                 3.9341                 6.2061
 Frc consts  --      0.2978                 0.2144                 0.5608
 IR Inten    --     15.3326                 4.9851                40.1248

                     19                     20                     21
                      A                      A                      A
 Frequencies --    476.6108               505.4108               635.9715
 Red. masses --      1.5965                 3.2288                 2.0080
 Frc consts  --      0.2137                 0.4859                 0.4785
 IR Inten    --     42.2443               227.4692                37.2524

                     22                     23                     24
                      A                      A                      A
 Frequencies --    676.2800               739.7802               776.6657
 Red. masses --      6.7343                 2.5982                 9.3344
 Frc consts  --      1.8147                 0.8378                 3.3175
 IR Inten    --    256.3644                60.3770                47.7931

                     25                     26                     27
                      A                      A                      A
 Frequencies --    853.7493               952.0468              1009.5082
 Red. masses --      4.6686                 3.6312                 1.0929
 Frc consts  --      2.0049                 1.9392                 0.6562
 IR Inten    --     36.1891                 2.0293                20.6395

                     28                     29                     30
                      A                      A                      A
 Frequencies --   1052.8324              1078.3962              1137.8041
 Red. masses --      1.1331                 4.9169                 2.6979
 Frc consts  --      0.7400                 3.3690                 2.0578
 IR Inten    --     72.7650                63.6504                11.7620

                     31                     32                     33
                      A                      A                      A
 Frequencies --   1153.9306              1183.4478              1229.3779
 Red. masses --      1.6429                 1.7476                 1.3998
 Frc consts  --      1.2889                 1.4421                 1.2465
 IR Inten    --      5.1292                82.1246                32.5619

                     34                     35                     36
                      A                      A                      A
 Frequencies --   1282.4311              1343.9328              1392.9176
 Red. masses --      2.7900                 1.3225                 6.4520
 Frc consts  --      2.7035                 1.4074                 7.3756
 IR Inten    --    621.2696                 0.8270               680.2947

                     37                     38                     39
                      A                      A                      A
 Frequencies --   1457.3419              1459.4317              1477.5502
 Red. masses --      1.1941                 1.2141                 1.0575
 Frc consts  --      1.4942                 1.5236                 1.3603
 IR Inten    --     18.6589                11.6011                25.6957

                     40                     41                     42
                      A                      A                      A
 Frequencies --   1491.2739              1499.1545              1501.0439
 Red. masses --      1.0440                 1.0322                 1.0841
 Frc consts  --      1.3680                 1.3668                 1.4391
 IR Inten    --     25.3448                11.0919                18.0079

                     43                     44                     45
                      A                      A                      A
 Frequencies --   1549.6829              1631.6281              1676.0465
 Red. masses --      1.6614                 1.1005                 8.4317
 Frc consts  --      2.3508                 1.7261                13.9552
 IR Inten    --    417.0271               105.9104               660.9432

                     46                     47                     48
                      A                      A                      A
 Frequencies --   3049.2744              3076.6743              3122.8173
 Red. masses --      1.0409                 1.0327                 1.0964
 Frc consts  --      5.7025                 5.7593                 6.2994
 IR Inten    --     81.0821                21.2711                35.2072

                     49                     50                     51
                      A                      A                      A
 Frequencies --   3157.3577              3162.8919              3176.3370
 Red. masses --      1.1051                 1.1041                 1.1060
 Frc consts  --      6.4909                 6.5076                 6.5743
 IR Inten    --      5.9393                20.3695                 7.8552

                     52                     53                     54
                      A                      A                      A
 Frequencies --   3515.3917              3601.0508              3641.2414
 Red. masses --      1.0503                 1.0971                 1.0771
 Frc consts  --      7.6476                 8.3819                 8.4143
 IR Inten    --     64.1746                70.9399               143.4187

 - Thermochemistry -
 -------------------
 Temperature   298.150 Kelvin.  Pressure   1.00000 Atm.
 Atom     1 has atomic number  6 and mass  12.00000

 Molecular mass:   349.82650 amu.
 Principal axes and moments of inertia in atomic units:
                           1         2         3
     Eigenvalues --  4080.258554219.738386583.67821
           X           -0.69600   0.71804  -0.00164
           Y            0.71800   0.69592  -0.01348
           Z            0.00854   0.01056   0.99991
 This molecule is an asymmetric top.
 Rotational symmetry number  1.
 Warning -- assumption of classical behavior for rotation
           may cause significant error
 Rotational temperatures (Kelvin)      0.02123     0.02053     0.01316
 Rotational constants (GHZ):           0.44231     0.42769     0.27412
    1 imaginary frequencies ignored.
 Zero-point vibrational energy     381825.0 (Joules/Mol)
                                   91.25836 (Kcal/Mol)
 Warning -- explicit consideration of  19 degrees of freedom as
           vibrations may cause significant error
 Vibrational temperatures:     55.18    88.77   105.94   149.37   174.21
          (Kelvin)            199.68   214.91   220.99   236.90   251.18
                              265.84   323.95   374.28   398.65   412.09
                              437.56   563.47   685.74   727.17   915.02
                              973.02  1064.38  1117.45  1228.35  1369.78
                             1452.46  1514.79  1551.57  1637.05  1660.25
                             1702.72  1768.80  1845.13  1933.62  2004.10
                             2096.79  2099.80  2125.87  2145.61  2156.95
                             2159.67  2229.65  2347.55  2411.46  4387.23
                             4426.65  4493.04  4542.73  4550.70  4570.04
                             5057.86  5181.11  5238.93

 Zero-point correction=                           0.145429 (Hartree/Particle)
 Thermal correction to Energy=                    0.159759
 Thermal correction to Enthalpy=                  0.160704
 Thermal correction to Gibbs Free Energy=         0.101522
 Sum of electronic and zero-point Energies=          -8103.153480
 Sum of electronic and thermal Energies=             -8103.139150
 Sum of electronic and thermal Enthalpies=           -8103.138206
 Sum of electronic and thermal Free Energies=        -8103.197387

                     E (Thermal)             CV                S
                      KCal/Mol        Cal/Mol-Kelvin    Cal/Mol-Kelvin
 Total                  100.251             46.932            124.558
 Electronic               0.000              0.000              0.000
 Translational            0.889              2.981             43.451
 Rotational               0.889              2.981             33.094
 Vibrational             98.473             40.970             48.013
 Vibration     1          0.594              1.982              5.342
 Vibration     2          0.597              1.973              4.402
 Vibration     3          0.599              1.966              4.054
 Vibration     4          0.605              1.946              3.381
 Vibration     5          0.609              1.932              3.083
 Vibration     6          0.614              1.915              2.821
 Vibration     7          0.618              1.903              2.680
 Vibration     8          0.619              1.899              2.627
 Vibration     9          0.623              1.886              2.496
 Vibration    10          0.627              1.874              2.386
 Vibration    11          0.631              1.861              2.280
 Vibration    12          0.650              1.803              1.917
 Vibration    13          0.668              1.746              1.661
 Vibration    14          0.678              1.716              1.552
 Vibration    15          0.684              1.699              1.495
 Vibration    16          0.695              1.666              1.394
 Vibration    17          0.759              1.488              0.994
 Vibration    18          0.833              1.302              0.719
 Vibration    19          0.861              1.238              0.645

 Optimization completed.
    -- Stationary point found.
 Normal termination of Gaussian 16 at Mon Feb 22 04:11:22 2021.
