 Gaussian 16, Revision C.01,
 Gaussian 16:  ES64L-G16RevC.01  3-Jul-2019

 ----------------------------------------------------------------------
 # wb97xd def2tzvp opt=(ts, noeigen, calcfc, maxcycles=100, maxstep=10)
  freq=noraman scrf=(iefpcm, solvent=water)
 ----------------------------------------------------------------------

 ----------
 TS-742.out
 ----------
 Symbolic Z-matrix:
 Charge =  0 Multiplicity = 1

 SCF Done:  E(RwB97XD) =  -5608.30370005     A.U. after   16 cycles
 SCF Done:  E(RwB97XD) =  -5608.30393937     A.U. after   13 cycles
 SCF Done:  E(RwB97XD) =  -5608.30399574     A.U. after   12 cycles
 SCF Done:  E(RwB97XD) =  -5608.30408713     A.U. after   13 cycles
 SCF Done:  E(RwB97XD) =  -5608.30425698     A.U. after   12 cycles
 SCF Done:  E(RwB97XD) =  -5608.30432607     A.U. after   14 cycles
 SCF Done:  E(RwB97XD) =  -5608.30438997     A.U. after   13 cycles
 SCF Done:  E(RwB97XD) =  -5608.30438214     A.U. after   14 cycles
 SCF Done:  E(RwB97XD) =  -5608.30442129     A.U. after   12 cycles
 SCF Done:  E(RwB97XD) =  -5608.30441665     A.U. after   13 cycles
 SCF Done:  E(RwB97XD) =  -5608.30442502     A.U. after   13 cycles
 SCF Done:  E(RwB97XD) =  -5608.30442689     A.U. after   10 cycles
 SCF Done:  E(RwB97XD) =  -5608.30441408     A.U. after   13 cycles
 SCF Done:  E(RwB97XD) =  -5608.30443095     A.U. after   13 cycles
 SCF Done:  E(RwB97XD) =  -5608.30443035     A.U. after   12 cycles
 SCF Done:  E(RwB97XD) =  -5608.30443177     A.U. after   11 cycles
 SCF Done:  E(RwB97XD) =  -5608.30443186     A.U. after    8 cycles
 Optimization completed.
    -- Stationary point found.
 Normal termination of Gaussian 16 at Thu Jun  2 22:09:05 2022.

 ---------------------------------------------------------------------
 #N Geom=AllCheck Guess=TCheck SCRF=Check GenChk RwB97XD/def2TZVP Freq
 ---------------------------------------------------------------------

 Structure from the checkpoint file:  "/local/jobs/107283/Gau-2537852.chk"
 ----------
 TS-742.out
 ----------
 Charge =  0 Multiplicity = 1

                         Standard orientation:
 ---------------------------------------------------------------------
 Center     Atomic      Atomic             Coordinates (Angstroms)
 Number     Number       Type             X           Y           Z
 ---------------------------------------------------------------------
      1          6           0       -0.462022    0.829790    0.476728
      2          6           0       -1.869299    0.355259    0.692975
      3          8           0       -2.240713   -0.079922    1.782060
      4          6           0        0.530426   -0.050127    0.253879
      5          6           0        2.089452    0.851188    2.343467
      6          1           0        2.746976    0.614035    3.178415
      7          1           0        2.588931    1.547545    1.673520
      8          1           0        1.171585    1.296611    2.720071
      9          7           0        1.746010   -0.360017    1.602841
     10          1           0        2.566909   -0.814920    1.214515
     11          1           0        1.262986   -1.022780    2.201622
     12         35           0        2.050018    0.569044   -1.108576
     13         35           0        0.067823   -1.875301   -0.152126
     14          6           0       -0.284845    2.323577    0.561193
     15          1           0        0.737387    2.616191    0.327611
     16          1           0       -0.947387    2.833186   -0.146003
     17          1           0       -0.522378    2.707517    1.557452
     18          7           0       -2.728588    0.511930   -0.340511
     19          6           0       -2.330191    0.872725   -1.684352
     20          6           0       -4.131996    0.197176   -0.173965
     21          1           0       -1.250508    0.977476   -1.742156
     22          1           0       -2.642038    0.093428   -2.384436
     23          1           0       -2.801064    1.812337   -1.984190
     24          1           0       -4.374312    0.162443    0.883617
     25          1           0       -4.735602    0.964375   -0.662062
     26          1           0       -4.371290   -0.770000   -0.625741
 ---------------------------------------------------------------------

 SCF Done:  E(RwB97XD) =  -5608.30443186     A.U. after    1 cycles

 The electronic state is 1-A.
 Alpha  occ. eigenvalues -- -483.13986-483.10753 -62.68825 -62.65612 -56.47948
 Alpha  occ. eigenvalues --  -56.47581 -56.47578 -56.44681 -56.44393 -56.44389
 Alpha  occ. eigenvalues --  -19.21021 -14.50698 -14.46527 -10.42560 -10.38592
 Alpha  occ. eigenvalues --  -10.32350 -10.30925 -10.30574 -10.28013 -10.27052
 Alpha  occ. eigenvalues --   -8.82931  -8.79706  -6.65102  -6.63931  -6.63922
 Alpha  occ. eigenvalues --   -6.61702  -6.60800  -6.60786  -2.75487  -2.75147
 Alpha  occ. eigenvalues --   -2.75137  -2.74193  -2.74192  -2.72092  -2.71855
 Alpha  occ. eigenvalues --   -2.71843  -2.71114  -2.71114  -1.13866  -1.05958
 Alpha  occ. eigenvalues --   -1.03769  -0.94434  -0.87599  -0.84710  -0.81826
 Alpha  occ. eigenvalues --   -0.79947  -0.79534  -0.76973  -0.67708  -0.64849
 Alpha  occ. eigenvalues --   -0.62041  -0.58819  -0.58062  -0.56907  -0.56291
 Alpha  occ. eigenvalues --   -0.54440  -0.52094  -0.50969  -0.49854  -0.48850
 Alpha  occ. eigenvalues --   -0.48641  -0.48269  -0.46777  -0.46542  -0.45803
 Alpha  occ. eigenvalues --   -0.44977  -0.43879  -0.38853  -0.38117  -0.36466
 Alpha  occ. eigenvalues --   -0.35360  -0.34516  -0.32392  -0.26511
 Alpha virt. eigenvalues --    0.00953   0.06281   0.09469   0.10046   0.11347
 Alpha virt. eigenvalues --    0.12034   0.13586   0.15058   0.15799   0.16407
 Alpha virt. eigenvalues --    0.16930   0.17605   0.18868   0.19063   0.19803

 Mulliken charges:
               1
     1  C   -0.220333
     2  C    0.266189
     3  O   -0.499882
     4  C    0.035954
     5  C   -0.302449
     6  H    0.173163
     7  H    0.160664
     8  H    0.160892
     9  N   -0.237099
    10  H    0.294315
    11  H    0.287634
    12  Br  -0.295821
    13  Br  -0.060571
    14  C   -0.365802
    15  H    0.135857
    16  H    0.139352
    17  H    0.140387
    18  N   -0.097571
    19  C   -0.310486
    20  C   -0.279615
    21  H    0.165163
    22  H    0.142155
    23  H    0.148124
    24  H    0.144661
    25  H    0.136301
    26  H    0.138819
 Sum of Mulliken charges =  -0.00000

 Dipole moment (field-independent basis, Debye):
    X=              2.4368    Y=              0.7038    Z=              1.7221  Tot=              3.0658
 Quadrupole moment (field-independent basis, Debye-Ang):
   XX=            -90.1965   YY=            -96.0703   ZZ=            -96.7907
   XY=             -5.2272   XZ=             24.8506   YZ=              0.0346

  Exact polarizability:     235.870      -0.941     196.721      -9.944      -4.554     214.710
 Approx polarizability:     179.954      -0.559     164.445      -7.755      -4.878     176.165

 ******    1 imaginary frequencies (negative Signs) ******

                      1                      2                      3
                      A                      A                      A
 Frequencies --   -500.6317                23.7131                44.3498
 Red. masses --      7.0050                 4.4865                 5.0568
 Frc consts  --      1.0344                 0.0015                 0.0059
 IR Inten    --    621.7146                 9.5100                 3.2641

                      4                      5                      6
                      A                      A                      A
 Frequencies --     63.1669                77.4714                87.2859
 Red. masses --      1.1857                 2.9506                 3.2221
 Frc consts  --      0.0028                 0.0104                 0.0145
 IR Inten    --      1.7961                 0.4956                 0.7804

                      7                      8                      9
                      A                      A                      A
 Frequencies --    122.4085               135.0417               139.5952
 Red. masses --      2.2808                 5.0145                 2.5350
 Frc consts  --      0.0201                 0.0539                 0.0291
 IR Inten    --      6.1789                18.8851                 1.9218

                     10                     11                     12
                      A                      A                      A
 Frequencies --    148.5219               156.6226               181.9781
 Red. masses --      1.7037                 1.9260                 2.6639
 Frc consts  --      0.0221                 0.0278                 0.0520
 IR Inten    --     16.1193                12.5699                 2.5028

                     13                     14                     15
                      A                      A                      A
 Frequencies --    208.1196               227.6678               244.1150
 Red. masses --      2.0087                 2.2461                 2.9126
 Frc consts  --      0.0513                 0.0686                 0.1023
 IR Inten    --      7.4198                 6.8127                20.3029

                     16                     17                     18
                      A                      A                      A
 Frequencies --    261.7940               269.2136               299.1909
 Red. masses --      1.8487                 2.2416                 3.5197
 Frc consts  --      0.0747                 0.0957                 0.1856
 IR Inten    --     10.6564                 9.7533                11.8781

                     19                     20                     21
                      A                      A                      A
 Frequencies --    337.0105               371.7366               392.3853
 Red. masses --      3.5673                 5.1817                 3.8840
 Frc consts  --      0.2387                 0.4219                 0.3523
 IR Inten    --     11.4798                16.8104                60.9492

                     22                     23                     24
                      A                      A                      A
 Frequencies --    439.7991               521.3942               604.5620
 Red. masses --      3.0028                 4.7078                 4.1650
 Frc consts  --      0.3422                 0.7541                 0.8969
 IR Inten    --    119.7970               205.7004                41.8332

                     25                     26                     27
                      A                      A                      A
 Frequencies --    694.4574               758.2479               784.4048
 Red. masses --      5.4711                 1.7847                 3.0365
 Frc consts  --      1.5546                 0.6046                 1.1008
 IR Inten    --     64.0015               150.1504                25.2289

                     28                     29                     30
                      A                      A                      A
 Frequencies --    798.4358               963.2117              1014.1340
 Red. masses --      6.5366                 3.0097                 1.3034
 Frc consts  --      2.4552                 1.6452                 0.7898
 IR Inten    --    111.0510                22.0849                92.3420

                     31                     32                     33
                      A                      A                      A
 Frequencies --   1030.7465              1059.7969              1067.6032
 Red. masses --      1.3750                 1.3781                 1.5925
 Frc consts  --      0.8607                 0.9119                 1.0695
 IR Inten    --    112.6560                42.6774                17.6942

                     34                     35                     36
                      A                      A                      A
 Frequencies --   1080.3043              1084.4257              1119.2487
 Red. masses --      1.3868                 2.3873                 2.1005
 Frc consts  --      0.9536                 1.6541                 1.5504
 IR Inten    --     11.0909                87.1114               135.8361

                     37                     38                     39
                      A                      A                      A
 Frequencies --   1130.3445              1178.8984              1236.8392
 Red. masses --      1.2505                 1.3936                 3.7677
 Frc consts  --      0.9413                 1.1412                 3.3959
 IR Inten    --      2.0983                 6.8336               136.3702

                     40                     41                     42
                      A                      A                      A
 Frequencies --   1250.9833              1312.6037              1345.8919
 Red. masses --      1.3857                 5.7440                 1.2990
 Frc consts  --      1.2777                 5.8308                 1.3864
 IR Inten    --     82.1545                88.4546                 0.9140

                     43                     44                     45
                      A                      A                      A
 Frequencies --   1407.7803              1429.6293              1444.3823
 Red. masses --      1.2601                 1.3256                 1.6322
 Frc consts  --      1.4714                 1.5963                 2.0062
 IR Inten    --      9.0948                92.3536               163.4315

                     46                     47                     48
                      A                      A                      A
 Frequencies --   1451.1254              1469.5252              1476.6678
 Red. masses --      1.1845                 1.1982                 1.0438
 Frc consts  --      1.4695                 1.5245                 1.3411
 IR Inten    --      9.3962                77.6770                20.1919

                     49                     50                     51
                      A                      A                      A
 Frequencies --   1482.3532              1485.9619              1495.1360
 Red. masses --      1.0709                 1.0714                 1.0499
 Frc consts  --      1.3865                 1.3939                 1.3828
 IR Inten    --      2.6947                 2.4509                25.4464

                     52                     53                     54
                      A                      A                      A
 Frequencies --   1499.8811              1500.3537              1502.4522
 Red. masses --      1.0364                 1.0445                 1.0589
 Frc consts  --      1.3737                 1.3854                 1.4084
 IR Inten    --     19.3735                12.9768                35.3095

                     55                     56                     57
                      A                      A                      A
 Frequencies --   1544.0073              1593.1225              1630.0375
 Red. masses --      1.5937                 5.6636                 1.0890
 Frc consts  --      2.2385                 8.4692                 1.7048
 IR Inten    --    194.6015               541.4453                72.5976

                     58                     59                     60
                      A                      A                      A
 Frequencies --   1673.9652              3027.0612              3039.2766
 Red. masses --      9.2546                 1.0398                 1.0387
 Frc consts  --     15.2792                 5.6134                 5.6528
 IR Inten    --    770.4892               100.6504                44.3102

                     61                     62                     63
                      A                      A                      A
 Frequencies --   3043.0509              3076.8766              3082.2858
 Red. masses --      1.0409                 1.1001                 1.0334
 Frc consts  --      5.6791                 6.1361                 5.7845
 IR Inten    --    121.9507                36.8093                30.6069

                     64                     65                     66
                      A                      A                      A
 Frequencies --   3095.6906              3106.6210              3145.9198
 Red. masses --      1.1038                 1.1003                 1.0970
 Frc consts  --      6.2325                 6.2568                 6.3965
 IR Inten    --     58.7568                23.8010                18.2853

                     67                     68                     69
                      A                      A                      A
 Frequencies --   3166.0109              3177.9922              3183.4411
 Red. masses --      1.1051                 1.0980                 1.1062
 Frc consts  --      6.5264                 6.5336                 6.6050
 IR Inten    --      5.1858                 7.8527                 7.8076

                     70                     71                     72
                      A                      A                      A
 Frequencies --   3184.6960              3495.5035              3584.8100
 Red. masses --      1.0990                 1.0504                 1.0978
 Frc consts  --      6.5672                 7.5618                 8.3117
 IR Inten    --      6.1639                50.8401                57.2337

 - Thermochemistry -
 -------------------
 Temperature   298.150 Kelvin.  Pressure   1.00000 Atm.
 Atom     1 has atomic number  6 and mass  12.00000

 Molecular mass:   299.94729 amu.
 Principal axes and moments of inertia in atomic units:
                           1         2         3
     Eigenvalues --  2757.513424908.364845249.77623
           X            0.99621  -0.03729   0.07857
           Y            0.03160   0.99687   0.07247
           Z           -0.08102  -0.06971   0.99427
 This molecule is an asymmetric top.
 Rotational symmetry number  1.
 Warning -- assumption of classical behavior for rotation
           may cause significant error
 Rotational temperatures (Kelvin)      0.03141     0.01765     0.01650
 Rotational constants (GHZ):           0.65448     0.36769     0.34377
    1 imaginary frequencies ignored.
 Zero-point vibrational energy     554848.0 (Joules/Mol)
                                  132.61185 (Kcal/Mol)
 Warning -- explicit consideration of  23 degrees of freedom as
           vibrations may cause significant error
 Vibrational temperatures:     34.12    63.81    90.88   111.46   125.58
          (Kelvin)            176.12   194.29   200.85   213.69   225.35
                              261.83   299.44   327.56   351.23   376.66
                              387.34   430.47   484.88   534.85   564.55
                              632.77   750.17   869.83   999.17  1090.95
                             1128.58  1148.77  1385.85  1459.11  1483.01
                             1524.81  1536.04  1554.32  1560.25  1610.35
                             1626.31  1696.17  1779.54  1799.89  1888.54
                             1936.44  2025.48  2056.92  2078.14  2087.85
                             2114.32  2124.60  2132.78  2137.97  2151.17
                             2157.99  2158.67  2161.69  2221.48  2292.15
                             2345.26  2408.46  4355.27  4372.84  4378.27
                             4426.94  4434.72  4454.01  4469.73  4526.28
                             4555.18  4572.42  4580.26  4582.07  5029.25
                             5157.74

 Zero-point correction=                           0.211330 (Hartree/Particle)
 Thermal correction to Energy=                    0.227501
 Thermal correction to Enthalpy=                  0.228445
 Thermal correction to Gibbs Free Energy=         0.165293
 Sum of electronic and zero-point Energies=          -5608.093101
 Sum of electronic and thermal Energies=             -5608.076931
 Sum of electronic and thermal Enthalpies=           -5608.075987
 Sum of electronic and thermal Free Energies=        -5608.139139

                     E (Thermal)             CV                S
                      KCal/Mol        Cal/Mol-Kelvin    Cal/Mol-Kelvin
 Total                  142.759             53.826            132.915
 Electronic               0.000              0.000              0.000
 Translational            0.889              2.981             42.992
 Rotational               0.889              2.981             32.630
 Vibrational            140.981             47.864             57.293
 Vibration     1          0.593              1.985              6.296
 Vibration     2          0.595              1.980              5.055
 Vibration     3          0.597              1.972              4.356
 Vibration     4          0.599              1.964              3.954
 Vibration     5          0.601              1.958              3.720
 Vibration     6          0.610              1.930              3.062
 Vibration     7          0.613              1.918              2.873
 Vibration     8          0.615              1.914              2.809
 Vibration     9          0.618              1.904              2.691
 Vibration    10          0.620              1.895              2.590
 Vibration    11          0.630              1.864              2.308
 Vibration    12          0.641              1.828              2.060
 Vibration    13          0.651              1.799              1.897
 Vibration    14          0.659              1.773              1.773
 Vibration    15          0.669              1.743              1.650
 Vibration    16          0.674              1.730              1.601
 Vibration    17          0.692              1.675              1.421
 Vibration    18          0.718              1.602              1.226
 Vibration    19          0.743              1.530              1.073
 Vibration    20          0.760              1.486              0.991
 Vibration    21          0.800              1.383              0.827
 Vibration    22          0.876              1.203              0.607
 Vibration    23          0.963              1.022              0.442

 Optimization completed.
    -- Stationary point found.
 Normal termination of Gaussian 16 at Thu Jun  2 22:33:03 2022.
