 Gaussian 16, Revision A.03,
 Gaussian 16:  ES64L-G16RevA.03 25-Dec-2016

 ----------------------------------------------------------------------
 # wB97XD def2tzvp, opt=(ts, noeigen, calcfc, maxcycles=70, maxstep=3),
  freq=noraman, scrf=(iefpcm, solvent=water)
 ----------------------------------------------------------------------

 ------------------------
 0_iteration/TS-715-0.out
 ------------------------
 Symbolic Z-matrix:
 Charge =  0 Multiplicity = 1

 SCF Done:  E(RwB97XD) =  -3415.71217261     A.U. after   15 cycles
 SCF Done:  E(RwB97XD) =  -3415.71200744     A.U. after   12 cycles
 SCF Done:  E(RwB97XD) =  -3415.71188622     A.U. after   12 cycles
 SCF Done:  E(RwB97XD) =  -3415.71180787     A.U. after   12 cycles
 SCF Done:  E(RwB97XD) =  -3415.71177580     A.U. after   12 cycles
 SCF Done:  E(RwB97XD) =  -3415.71179708     A.U. after   11 cycles
 SCF Done:  E(RwB97XD) =  -3415.71189797     A.U. after   10 cycles
 SCF Done:  E(RwB97XD) =  -3415.71210210     A.U. after   10 cycles
 SCF Done:  E(RwB97XD) =  -3415.71237365     A.U. after   11 cycles
 SCF Done:  E(RwB97XD) =  -3415.71268223     A.U. after   11 cycles
 SCF Done:  E(RwB97XD) =  -3415.71331438     A.U. after   11 cycles
 SCF Done:  E(RwB97XD) =  -3415.71358835     A.U. after   11 cycles
 SCF Done:  E(RwB97XD) =  -3415.71379861     A.U. after   11 cycles
 SCF Done:  E(RwB97XD) =  -3415.71392017     A.U. after   11 cycles
 SCF Done:  E(RwB97XD) =  -3415.71394211     A.U. after   10 cycles
 SCF Done:  E(RwB97XD) =  -3415.71394578     A.U. after    9 cycles
 SCF Done:  E(RwB97XD) =  -3415.71394714     A.U. after    9 cycles
 SCF Done:  E(RwB97XD) =  -3415.71394722     A.U. after    9 cycles
 SCF Done:  E(RwB97XD) =  -3415.71394710     A.U. after    7 cycles
 Optimization completed.
    -- Stationary point found.
 Normal termination of Gaussian 16 at Mon Apr 12 18:17:30 2021.

 ---------------------------------------------------------------------
 #N Geom=AllCheck Guess=TCheck SCRF=Check GenChk RwB97XD/def2TZVP Freq
 ---------------------------------------------------------------------

 Structure from the checkpoint file:  "/beegfs/scratch/user/q/tla25/Gau-92921.chk"
 ------------------------
 0_iteration/TS-715-0.out
 ------------------------
 Charge =  0 Multiplicity = 1

                         Standard orientation:
 ---------------------------------------------------------------------
 Center     Atomic      Atomic             Coordinates (Angstroms)
 Number     Number       Type             X           Y           Z
 ---------------------------------------------------------------------
      1          6           0        0.821961   -0.340454   -0.120073
      2          6           0        2.146661   -0.049576   -0.643198
      3          8           0        2.377690    0.867713   -1.438978
      4          6           0       -0.306164    0.436996   -0.328228
      5          6           0        0.492797    2.159670    1.741283
      6          1           0        0.592423    3.060396    1.140566
      7          1           0        0.424729    2.434152    2.793258
      8          1           0        1.373239    1.531626    1.593121
      9          7           0       -0.678936    1.410051    1.306980
     10          1           0       -1.493658    1.999565    1.179815
     11          1           0       -0.919828    0.684327    1.972322
     12         35           0       -2.032810   -0.514906   -0.377506
     13          6           0       -0.328020    1.568672   -1.316434
     14          1           0        0.503281    2.243810   -1.136763
     15          1           0       -0.218741    1.171678   -2.324790
     16          1           0       -1.271739    2.106721   -1.252670
     17         17           0        0.685345   -1.669513    1.031355
     18          7           0        3.173045   -0.839910   -0.218950
     19          1           0        3.015339   -1.677465    0.309553
     20          1           0        4.048720   -0.735918   -0.699249
 ---------------------------------------------------------------------

 SCF Done:  E(RwB97XD) =  -3415.71394710     A.U. after    1 cycles

 The electronic state is 1-A.
 Alpha  occ. eigenvalues -- -483.12844-101.69462 -62.67706 -56.46813 -56.46473
 Alpha  occ. eigenvalues --  -56.46456 -19.20074 -14.48995 -14.43865 -10.40364
 Alpha  occ. eigenvalues --  -10.38828 -10.31880 -10.31586 -10.28805  -9.58007
 Alpha  occ. eigenvalues --   -8.81820  -7.32622  -7.31808  -7.31782  -6.63944
 Alpha  occ. eigenvalues --   -6.62867  -6.62814  -2.74330  -2.74035  -2.73994
 Alpha  occ. eigenvalues --   -2.73122  -2.73121  -1.12972  -1.04599  -1.00036
 Alpha  occ. eigenvalues --   -0.96887  -0.91676  -0.84718  -0.79592  -0.79107
 Alpha  occ. eigenvalues --   -0.71819  -0.64387  -0.63573  -0.60330  -0.58098
 Alpha  occ. eigenvalues --   -0.56862  -0.55630  -0.53821  -0.51078  -0.50478
 Alpha  occ. eigenvalues --   -0.49769  -0.48152  -0.46915  -0.45596  -0.44500
 Alpha  occ. eigenvalues --   -0.41576  -0.41118  -0.37245  -0.36825  -0.35162
 Alpha  occ. eigenvalues --   -0.33680  -0.27912
 Alpha virt. eigenvalues --    0.03318   0.06222   0.10219   0.12364   0.13274
 Alpha virt. eigenvalues --    0.14364   0.15135   0.15529   0.17178   0.18205
 Alpha virt. eigenvalues --    0.19315   0.19872   0.20555   0.21568   0.21907

 Mulliken charges:
               1
     1  C   -0.186825
     2  C    0.313498
     3  O   -0.531183
     4  C    0.111602
     5  C   -0.301969
     6  H    0.162606
     7  H    0.161647
     8  H    0.156645
     9  N   -0.334446
    10  H    0.293994
    11  H    0.286246
    12  Br  -0.124904
    13  C   -0.347476
    14  H    0.153178
    15  H    0.151525
    16  H    0.147989
    17  Cl  -0.173007
    18  N   -0.471097
    19  H    0.263627
    20  H    0.268350
 Sum of Mulliken charges =  -0.00000

 Dipole moment (field-independent basis, Debye):
    X=             -2.2468    Y=              3.1782    Z=              5.1777  Tot=              6.4774
 Quadrupole moment (field-independent basis, Debye-Ang):
   XX=            -79.1426   YY=            -72.9157   ZZ=            -78.4029
   XY=            -12.2967   XZ=              2.6886   YZ=              8.1764

  Exact polarizability: 190.175  -6.512 157.216  -6.418  -3.847 141.077
 Approx polarizability: 147.287  -2.157 133.028  -5.294  -6.743 121.947

 ******    1 imaginary frequencies (negative Signs) ******

                      1                      2                      3
                      A                      A                      A
 Frequencies --   -368.0024                58.1001                61.3010
 Red. masses --      5.4408                 5.1629                 5.6696
 Frc consts  --      0.4341                 0.0103                 0.0126
 IR Inten    --    607.3265                21.5453                 2.3771

                      4                      5                      6
                      A                      A                      A
 Frequencies --     80.1862               132.0739               161.4449
 Red. masses --      2.2139                 2.9121                 9.1926
 Frc consts  --      0.0084                 0.0299                 0.1412
 IR Inten    --      4.1307                10.3111                 4.5151

                      7                      8                      9
                      A                      A                      A
 Frequencies --    175.9227               192.7113               223.7307
 Red. masses --      2.3095                 1.8910                 1.2862
 Frc consts  --      0.0421                 0.0414                 0.0379
 IR Inten    --      1.7713                 9.2835               371.3653

                     10                     11                     12
                      A                      A                      A
 Frequencies --    238.7301               279.8003               287.4525
 Red. masses --      5.7006                 2.4403                 3.1298
 Frc consts  --      0.1914                 0.1126                 0.1524
 IR Inten    --     13.4960                16.9213                22.3489

                     13                     14                     15
                      A                      A                      A
 Frequencies --    317.6019               330.6922               368.0256
 Red. masses --      3.4026                 2.1925                 1.8706
 Frc consts  --      0.2022                 0.1413                 0.1493
 IR Inten    --     16.4620                 5.8989                 2.3187

                     16                     17                     18
                      A                      A                      A
 Frequencies --    434.3353               464.2305               502.4925
 Red. masses --      5.0429                 5.0569                 2.1497
 Frc consts  --      0.5605                 0.6421                 0.3198
 IR Inten    --     35.0315                12.0245                54.1955

                     19                     20                     21
                      A                      A                      A
 Frequencies --    545.6517               581.3694               677.3685
 Red. masses --      1.4890                 3.1215                 1.4752
 Frc consts  --      0.2612                 0.6216                 0.3988
 IR Inten    --     32.2986               114.4871                33.7691

                     22                     23                     24
                      A                      A                      A
 Frequencies --    752.3266               778.2289               981.8513
 Red. masses --      3.6494                 7.3262                 4.6059
 Frc consts  --      1.2170                 2.6142                 2.6161
 IR Inten    --     86.0155                42.8767                71.5211

                     25                     26                     27
                      A                      A                      A
 Frequencies --   1007.9383              1038.7289              1062.6231
 Red. masses --      1.0924                 1.1423                 1.5610
 Frc consts  --      0.6539                 0.7261                 1.0385
 IR Inten    --     14.8338                52.8003               157.8645

                     28                     29                     30
                      A                      A                      A
 Frequencies --   1068.5967              1081.6622              1089.4591
 Red. masses --      1.7591                 3.8415                 1.8081
 Frc consts  --      1.1835                 2.6481                 1.2644
 IR Inten    --     18.8332                 5.7077                33.2439

                     31                     32                     33
                      A                      A                      A
 Frequencies --   1133.6605              1220.3480              1340.3672
 Red. masses --      3.8633                 1.3912                 1.3255
 Frc consts  --      2.9253                 1.2207                 1.4031
 IR Inten    --     90.8674                30.2742                 0.1413

                     34                     35                     36
                      A                      A                      A
 Frequencies --   1374.8080              1415.7531              1439.2341
 Red. masses --      4.1398                 1.4089                 2.3748
 Frc consts  --      4.6102                 1.6638                 2.8983
 IR Inten    --    571.3735               365.2275               639.0633

                     37                     38                     39
                      A                      A                      A
 Frequencies --   1464.6208              1474.7062              1489.4495
 Red. masses --      1.1757                 1.0668                 1.1996
 Frc consts  --      1.4860                 1.3669                 1.5680
 IR Inten    --     53.3059                10.1965                75.2093

                     40                     41                     42
                      A                      A                      A
 Frequencies --   1494.8807              1508.3336              1593.4407
 Red. masses --      1.1094                 1.0337                 1.3317
 Frc consts  --      1.4606                 1.3856                 1.9922
 IR Inten    --     87.5634                17.3660               321.2579

                     43                     44                     45
                      A                      A                      A
 Frequencies --   1642.0473              1663.3314              3066.0816
 Red. masses --      1.0895                 5.7338                 1.0348
 Frc consts  --      1.7308                 9.3465                 5.7317
 IR Inten    --     59.2623               582.1158                32.6273

                     46                     47                     48
                      A                      A                      A
 Frequencies --   3084.8757              3140.3325              3160.4536
 Red. masses --      1.0363                 1.1032                 1.1032
 Frc consts  --      5.8102                 6.4101                 6.4923
 IR Inten    --     12.7371                 9.9275                12.3380

                     49                     50                     51
                      A                      A                      A
 Frequencies --   3174.4102              3189.5805              3523.7610
 Red. masses --      1.1046                 1.1015                 1.0507
 Frc consts  --      6.5584                 6.6023                 7.6869
 IR Inten    --     13.1531                 2.5319                54.9558

                     52                     53                     54
                      A                      A                      A
 Frequencies --   3606.7528              3629.4565              3755.5559
 Red. masses --      1.0968                 1.0456                 1.1048
 Frc consts  --      8.4065                 8.1149                 9.1805
 IR Inten    --     56.7905                82.1843                94.6891

 - Thermochemistry -
 -------------------
 Temperature   298.150 Kelvin.  Pressure   1.00000 Atm.
 Atom     1 has atomic number  6 and mass  12.00000

 Molecular mass:   227.96650 amu.
 Principal axes and moments of inertia in atomic units:
                           1         2         3
     Eigenvalues --  1740.274163125.283943475.37221
           X            0.99921  -0.03612  -0.01682
           Y            0.03753   0.99497   0.09284
           Z            0.01338  -0.09340   0.99554
 This molecule is an asymmetric top.
 Rotational symmetry number  1.
 Warning -- assumption of classical behavior for rotation
           may cause significant error
 Rotational temperatures (Kelvin)      0.04977     0.02771     0.02492
 Rotational constants (GHZ):           1.03704     0.57746     0.51929
    1 imaginary frequencies ignored.
 Zero-point vibrational energy     410085.1 (Joules/Mol)
                                   98.01270 (Kcal/Mol)
 Warning -- explicit consideration of  19 degrees of freedom as
           vibrations may cause significant error
 Vibrational temperatures:     83.59    88.20   115.37   190.02   232.28
          (Kelvin)            253.11   277.27   321.90   343.48   402.57
                              413.58   456.96   475.79   529.51   624.91
                              667.92   722.97   785.07   836.46   974.58
                             1082.43  1119.70  1412.66  1450.20  1494.50
                             1528.88  1537.47  1556.27  1567.49  1631.08
                             1755.81  1928.49  1978.04  2036.95  2070.74
                             2107.26  2121.77  2142.99  2150.80  2170.16
                             2292.61  2362.54  2393.16  4411.41  4438.45
                             4518.24  4547.19  4567.27  4589.09  5069.91
                             5189.31  5221.98  5403.41

 Zero-point correction=                           0.156193 (Hartree/Particle)
 Thermal correction to Energy=                    0.168666
 Thermal correction to Enthalpy=                  0.169610
 Thermal correction to Gibbs Free Energy=         0.116559
 Sum of electronic and zero-point Energies=          -3415.557754
 Sum of electronic and thermal Energies=             -3415.545281
 Sum of electronic and thermal Enthalpies=           -3415.544337
 Sum of electronic and thermal Free Energies=        -3415.597388

                     E (Thermal)             CV                S
                      KCal/Mol        Cal/Mol-Kelvin    Cal/Mol-Kelvin
 Total                  105.840             43.400            111.657
 Electronic               0.000              0.000              0.000
 Translational            0.889              2.981             42.174
 Rotational               0.889              2.981             31.314
 Vibrational            104.062             37.438             38.168
 Vibration     1          0.596              1.974              4.521
 Vibration     2          0.597              1.973              4.415
 Vibration     3          0.600              1.963              3.886
 Vibration     4          0.612              1.921              2.916
 Vibration     5          0.622              1.890              2.533
 Vibration     6          0.628              1.872              2.371
 Vibration     7          0.635              1.850              2.202
 Vibration     8          0.649              1.805              1.929
 Vibration     9          0.657              1.781              1.812
 Vibration    10          0.680              1.711              1.535
 Vibration    11          0.685              1.697              1.489
 Vibration    12          0.704              1.640              1.322
 Vibration    13          0.713              1.614              1.257
 Vibration    14          0.741              1.538              1.088
 Vibration    15          0.795              1.395              0.845
 Vibration    16          0.822              1.329              0.754
 Vibration    17          0.858              1.244              0.652
 Vibration    18          0.901              1.149              0.553
 Vibration    19          0.938              1.072              0.483

 Optimization completed.
    -- Stationary point found.
 Normal termination of Gaussian 16 at Mon Apr 12 18:24:25 2021.
