 Gaussian 16, Revision A.03,
 Gaussian 16:  ES64L-G16RevA.03 25-Dec-2016

 ----------------------------------------------------------------------
 # wB97XD def2tzvp, opt=(ts, noeigen, calcfc, maxcycles=70, maxstep=3),
  freq=noraman, scrf=(iefpcm, solvent=water)
 ----------------------------------------------------------------------

 ------------------------
 0_iteration/TS-700-0.out
 ------------------------
 Symbolic Z-matrix:
 Charge =  0 Multiplicity = 1

 SCF Done:  E(RwB97XD) =  -3054.58710255     A.U. after   14 cycles
 SCF Done:  E(RwB97XD) =  -3054.58710419     A.U. after   12 cycles
 SCF Done:  E(RwB97XD) =  -3054.58712983     A.U. after   11 cycles
 SCF Done:  E(RwB97XD) =  -3054.58722721     A.U. after   11 cycles
 SCF Done:  E(RwB97XD) =  -3054.58735885     A.U. after   11 cycles
 SCF Done:  E(RwB97XD) =  -3054.58749538     A.U. after   11 cycles
 SCF Done:  E(RwB97XD) =  -3054.58761243     A.U. after   11 cycles
 SCF Done:  E(RwB97XD) =  -3054.58769986     A.U. after   11 cycles
 SCF Done:  E(RwB97XD) =  -3054.58777710     A.U. after   11 cycles
 SCF Done:  E(RwB97XD) =  -3054.58783391     A.U. after   11 cycles
 SCF Done:  E(RwB97XD) =  -3054.58788409     A.U. after   11 cycles
 SCF Done:  E(RwB97XD) =  -3054.58792151     A.U. after   11 cycles
 SCF Done:  E(RwB97XD) =  -3054.58793383     A.U. after   11 cycles
 SCF Done:  E(RwB97XD) =  -3054.58794192     A.U. after   10 cycles
 SCF Done:  E(RwB97XD) =  -3054.58791910     A.U. after   12 cycles
 SCF Done:  E(RwB97XD) =  -3054.58794275     A.U. after   11 cycles
 SCF Done:  E(RwB97XD) =  -3054.58794295     A.U. after    8 cycles
 SCF Done:  E(RwB97XD) =  -3054.58794296     A.U. after    7 cycles
 Optimization completed.
    -- Stationary point found.
 Normal termination of Gaussian 16 at Sun Mar 28 10:00:37 2021.

 ---------------------------------------------------------------------
 #N Geom=AllCheck Guess=TCheck SCRF=Check GenChk RwB97XD/def2TZVP Freq
 ---------------------------------------------------------------------

 Structure from the checkpoint file:  "/beegfs/scratch/user/q/tla25/Gau-63471.chk"
 ------------------------
 0_iteration/TS-700-0.out
 ------------------------
 Charge =  0 Multiplicity = 1

                         Standard orientation:
 ---------------------------------------------------------------------
 Center     Atomic      Atomic             Coordinates (Angstroms)
 Number     Number       Type             X           Y           Z
 ---------------------------------------------------------------------
      1          6           0        0.701238   -0.592224    0.426057
      2          6           0        2.109433   -0.405856    0.234156
      3          8           0        2.964089   -1.173231    0.667394
      4          6           0       -0.285834    0.229973   -0.115962
      5          6           0       -2.108760    2.195846    1.102486
      6          1           0       -2.457265    2.594553    2.055441
      7          1           0       -1.739714    3.013608    0.488655
      8          1           0       -2.937826    1.707317    0.594378
      9          7           0       -1.034974    1.220540    1.306396
     10          1           0       -0.200993    1.659837    1.682182
     11          1           0       -1.316508    0.504281    1.966426
     12         35           0       -1.957824   -0.753751   -0.640193
     13          6           0       -0.064449    1.328352   -1.118030
     14          1           0        0.619488    2.074952   -0.722074
     15          1           0        0.375738    0.911643   -2.022353
     16          1           0       -1.006559    1.803265   -1.381022
     17          6           0        0.338104   -1.769033    1.301097
     18          1           0       -0.652449   -1.661604    1.744460
     19          1           0        0.335826   -2.715883    0.750221
     20          1           0        1.055382   -1.873587    2.115008
     21          8           0        2.486047    0.687703   -0.476017
     22          6           0        3.877670    0.845946   -0.701958
     23          1           0        3.979350    1.752444   -1.294501
     24          1           0        4.420767    0.955642    0.237424
     25          1           0        4.287906   -0.002750   -1.250353
 ---------------------------------------------------------------------

 SCF Done:  E(RwB97XD) =  -3054.58794296     A.U. after    1 cycles

 The electronic state is 1-A.
 Alpha  occ. eigenvalues -- -483.11961 -62.66822 -56.45913 -56.45598 -56.45581
 Alpha  occ. eigenvalues --  -19.27555 -19.20407 -14.49539 -10.39969 -10.38979
 Alpha  occ. eigenvalues --  -10.32379 -10.32121 -10.28565 -10.26783 -10.26078
 Alpha  occ. eigenvalues --   -8.80929  -6.62998  -6.62005  -6.61951  -2.73390
 Alpha  occ. eigenvalues --   -2.73123  -2.73081  -2.72276  -2.72276  -1.18935
 Alpha  occ. eigenvalues --   -1.09026  -1.04927  -0.93667  -0.86006  -0.83327
 Alpha  occ. eigenvalues --   -0.81208  -0.79615  -0.74254  -0.68282  -0.63870
 Alpha  occ. eigenvalues --   -0.62931  -0.59350  -0.56854  -0.56058  -0.55345
 Alpha  occ. eigenvalues --   -0.55150  -0.51877  -0.51209  -0.49888  -0.49198
 Alpha  occ. eigenvalues --   -0.48424  -0.46543  -0.45831  -0.45180  -0.43791
 Alpha  occ. eigenvalues --   -0.43083  -0.41551  -0.37521  -0.37106  -0.36659
 Alpha  occ. eigenvalues --   -0.34493  -0.26604
 Alpha virt. eigenvalues --    0.04462   0.06544   0.09556   0.13029   0.13457
 Alpha virt. eigenvalues --    0.14571   0.15640   0.16271   0.16485   0.17906
 Alpha virt. eigenvalues --    0.18671   0.18752   0.19271   0.19888   0.20841

 Mulliken charges:
               1
     1  C   -0.178364
     2  C    0.407910
     3  O   -0.525339
     4  C    0.048071
     5  C   -0.297571
     6  H    0.161916
     7  H    0.165824
     8  H    0.155296
     9  N   -0.281361
    10  H    0.285754
    11  H    0.284674
    12  Br  -0.174005
    13  C   -0.374971
    14  H    0.151920
    15  H    0.152201
    16  H    0.157642
    17  C   -0.385946
    18  H    0.116746
    19  H    0.121412
    20  H    0.126815
    21  O   -0.306026
    22  C   -0.192111
    23  H    0.133278
    24  H    0.122553
    25  H    0.123683
 Sum of Mulliken charges =  -0.00000

 Dipole moment (field-independent basis, Debye):
    X=             -4.8630    Y=              7.9693    Z=              2.1732  Tot=              9.5855
 Quadrupole moment (field-independent basis, Debye-Ang):
   XX=            -87.3807   YY=            -76.9602   ZZ=            -74.2591
   XY=              4.4588   XZ=            -11.9070   YZ=              5.7306

  Exact polarizability: 225.855 -12.826 168.539   4.530  -0.214 144.463
 Approx polarizability: 166.206  -7.657 137.847   4.521  -0.190 122.612

 ******    1 imaginary frequencies (negative Signs) ******

                      1                      2                      3
                      A                      A                      A
 Frequencies --   -373.0044                39.5217                72.6733
 Red. masses --      6.5802                 3.8106                 4.0380
 Frc consts  --      0.5394                 0.0035                 0.0126
 IR Inten    --    808.0403                 2.8419                 0.2261

                      4                      5                      6
                      A                      A                      A
 Frequencies --     85.6084               107.5578               126.0475
 Red. masses --      1.7786                 1.6405                 2.3175
 Frc consts  --      0.0077                 0.0112                 0.0217
 IR Inten    --      0.8207                 7.3954                 5.6680

                      7                      8                      9
                      A                      A                      A
 Frequencies --    149.5688               168.1702               175.9817
 Red. masses --      3.3554                 2.3837                 1.4468
 Frc consts  --      0.0442                 0.0397                 0.0264
 IR Inten    --      3.2089                 1.3091                 0.5096

                     10                     11                     12
                      A                      A                      A
 Frequencies --    196.5066               210.5285               263.0325
 Red. masses --      2.4505                 1.4822                 3.1652
 Frc consts  --      0.0558                 0.0387                 0.1290
 IR Inten    --     20.4667                 4.0717                21.4338

                     13                     14                     15
                      A                      A                      A
 Frequencies --    271.0841               301.5564               323.1653
 Red. masses --      2.6120                 3.1727                 1.9435
 Frc consts  --      0.1131                 0.1700                 0.1196
 IR Inten    --     13.4286                17.3809                 5.6661

                     16                     17                     18
                      A                      A                      A
 Frequencies --    359.3572               391.9649               410.1380
 Red. masses --      2.7106                 3.1710                 1.6472
 Frc consts  --      0.2062                 0.2870                 0.1632
 IR Inten    --     15.2890                23.4537                 6.1808

                     19                     20                     21
                      A                      A                      A
 Frequencies --    432.3856               491.8372               580.6329
 Red. masses --      4.0726                 4.2813                 3.5037
 Frc consts  --      0.4486                 0.6102                 0.6960
 IR Inten    --     33.4042               158.7850                25.3964

                     22                     23                     24
                      A                      A                      A
 Frequencies --    639.6291               714.2527               782.4403
 Red. masses --      3.6126                 1.4578                 8.5018
 Frc consts  --      0.8708                 0.4382                 3.0667
 IR Inten    --    141.0091                88.0002                40.9693

                     25                     26                     27
                      A                      A                      A
 Frequencies --    820.6595               945.7182              1021.0694
 Red. masses --      3.9862                 1.9562                 1.6581
 Frc consts  --      1.5817                 1.0308                 1.0185
 IR Inten    --    195.4984               164.7553                27.3647

                     28                     29                     30
                      A                      A                      A
 Frequencies --   1032.4863              1051.0701              1064.8237
 Red. masses --      1.7140                 2.2597                 1.3495
 Frc consts  --      1.0765                 1.4709                 0.9015
 IR Inten    --    134.2503                18.6650                24.7032

                     31                     32                     33
                      A                      A                      A
 Frequencies --   1069.3140              1083.2002              1100.1412
 Red. masses --      1.4270                 1.6697                 1.8939
 Frc consts  --      0.9613                 1.1543                 1.3505
 IR Inten    --     90.0763                27.8796               248.0352

                     34                     35                     36
                      A                      A                      A
 Frequencies --   1142.5133              1177.1771              1183.2988
 Red. masses --      2.5311                 4.4243                 1.3048
 Frc consts  --      1.9466                 3.6123                 1.0764
 IR Inten    --     92.2649               240.0424                 5.7175

                     37                     38                     39
                      A                      A                      A
 Frequencies --   1215.8457              1254.4891              1349.9901
 Red. masses --      1.6157                 1.3463                 1.3090
 Frc consts  --      1.4072                 1.2483                 1.4056
 IR Inten    --    181.9973                49.6368                12.6407

                     40                     41                     42
                      A                      A                      A
 Frequencies --   1353.6178              1418.0793              1422.7543
 Red. masses --      4.6784                 1.2924                 1.2213
 Frc consts  --      5.0505                 1.5313                 1.4566
 IR Inten    --    922.9851                14.8605                29.6595

                     43                     44                     45
                      A                      A                      A
 Frequencies --   1455.0506              1466.4906              1476.8535
 Red. masses --      1.4614                 1.4046                 1.1432
 Frc consts  --      1.8229                 1.7797                 1.4691
 IR Inten    --    205.3818               226.2974                91.3687

                     46                     47                     48
                      A                      A                      A
 Frequencies --   1477.4647              1481.2009              1488.5893
 Red. masses --      1.1157                 1.0476                 1.1335
 Frc consts  --      1.4350                 1.3541                 1.4798
 IR Inten    --      9.8088                11.7382                36.7319

                     49                     50                     51
                      A                      A                      A
 Frequencies --   1493.7295              1499.3247              1500.1370
 Red. masses --      1.0654                 1.0441                 1.1027
 Frc consts  --      1.4006                 1.3829                 1.4621
 IR Inten    --     21.1214                17.9804                 7.5087

                     52                     53                     54
                      A                      A                      A
 Frequencies --   1511.5088              1515.8818              1638.7069
 Red. masses --      1.1982                 1.2113                 1.0919
 Frc consts  --      1.6129                 1.6399                 1.7275
 IR Inten    --    153.8838               241.0208               105.6814

                     55                     56                     57
                      A                      A                      A
 Frequencies --   1665.5269              3027.7106              3058.0202
 Red. masses --      9.8232                 1.0494                 1.0307
 Frc consts  --     16.0548                 5.6678                 5.6789
 IR Inten    --   1057.9184                82.6269                74.4145

                     58                     59                     60
                      A                      A                      A
 Frequencies --   3075.3897              3088.4551              3097.6287
 Red. masses --      1.0350                 1.0355                 1.0865
 Frc consts  --      5.7677                 5.8196                 6.1424
 IR Inten    --     36.5285                 8.6332                42.7907

                     61                     62                     63
                      A                      A                      A
 Frequencies --   3131.5318              3134.9135              3155.4828
 Red. masses --      1.1063                 1.1015                 1.1027
 Frc consts  --      6.3918                 6.3779                 6.4693
 IR Inten    --     44.4274                33.5602                10.0364

                     64                     65                     66
                      A                      A                      A
 Frequencies --   3162.9253              3166.9158              3179.4180
 Red. masses --      1.1052                 1.1028                 1.1039
 Frc consts  --      6.5143                 6.5164                 6.5745
 IR Inten    --     28.8798                10.4645                12.6133

                     67                     68                     69
                      A                      A                      A
 Frequencies --   3182.9718              3518.0209              3597.6973
 Red. masses --      1.1052                 1.0518                 1.0957
 Frc consts  --      6.5973                 7.6699                 8.3557
 IR Inten    --      5.0216                26.6984                47.1929

 - Thermochemistry -
 -------------------
 Temperature   298.150 Kelvin.  Pressure   1.00000 Atm.
 Atom     1 has atomic number  6 and mass  12.00000

 Molecular mass:   223.02079 amu.
 Principal axes and moments of inertia in atomic units:
                           1         2         3
     Eigenvalues --  1525.992913864.690834295.31369
           X            0.99884  -0.03305  -0.03502
           Y            0.03070   0.99739  -0.06541
           Z            0.03709   0.06426   0.99724
 This molecule is an asymmetric top.
 Rotational symmetry number  1.
 Warning -- assumption of classical behavior for rotation
           may cause significant error
 Rotational temperatures (Kelvin)      0.05676     0.02241     0.02016
 Rotational constants (GHZ):           1.18267     0.46698     0.42017
    1 imaginary frequencies ignored.
 Zero-point vibrational energy     551762.2 (Joules/Mol)
                                  131.87433 (Kcal/Mol)
 Warning -- explicit consideration of  20 degrees of freedom as
           vibrations may cause significant error
 Vibrational temperatures:     56.86   104.56   123.17   154.75   181.35
          (Kelvin)            215.20   241.96   253.20   282.73   302.90
                              378.45   390.03   433.87   464.96   517.03
                              563.95   590.10   622.11   707.64   835.40
                              920.28  1027.65  1125.76  1180.75  1360.68
                             1469.09  1485.52  1512.26  1532.04  1538.50
                             1558.48  1582.86  1643.82  1693.70  1702.50
                             1749.33  1804.93  1942.33  1947.55  2040.30
                             2047.03  2093.49  2109.95  2124.86  2125.74
                             2131.12  2141.75  2149.14  2157.19  2158.36
                             2174.72  2181.02  2357.73  2396.32  4356.20
                             4399.81  4424.80  4443.60  4456.80  4505.58
                             4510.44  4540.04  4550.74  4556.49  4574.47
                             4579.59  5061.65  5176.28

 Zero-point correction=                           0.210155 (Hartree/Particle)
 Thermal correction to Energy=                    0.223986
 Thermal correction to Enthalpy=                  0.224930
 Thermal correction to Gibbs Free Energy=         0.168859
 Sum of electronic and zero-point Energies=          -3054.377788
 Sum of electronic and thermal Energies=             -3054.363957
 Sum of electronic and thermal Enthalpies=           -3054.363013
 Sum of electronic and thermal Free Energies=        -3054.419084

                     E (Thermal)             CV                S
                      KCal/Mol        Cal/Mol-Kelvin    Cal/Mol-Kelvin
 Total                  140.553             48.215            118.013
 Electronic               0.000              0.000              0.000
 Translational            0.889              2.981             42.109
 Rotational               0.889              2.981             31.605
 Vibrational            138.776             42.253             44.299
 Vibration     1          0.594              1.981              5.283
 Vibration     2          0.599              1.967              4.080
 Vibration     3          0.601              1.959              3.758
 Vibration     4          0.606              1.943              3.313
 Vibration     5          0.611              1.927              3.005
 Vibration     6          0.618              1.903              2.678
 Vibration     7          0.625              1.882              2.456
 Vibration     8          0.628              1.872              2.371
 Vibration     9          0.636              1.845              2.166
 Vibration    10          0.643              1.825              2.039
 Vibration    11          0.670              1.741              1.642
 Vibration    12          0.675              1.727              1.589
 Vibration    13          0.694              1.671              1.408
 Vibration    14          0.708              1.629              1.294
 Vibration    15          0.734              1.556              1.125
 Vibration    16          0.759              1.487              0.993
 Vibration    17          0.774              1.448              0.926
 Vibration    18          0.793              1.400              0.851
 Vibration    19          0.848              1.268              0.679
 Vibration    20          0.937              1.073              0.484

 Optimization completed on the basis of negligible forces.
    -- Stationary point found.
 Normal termination of Gaussian 16 at Sun Mar 28 10:28:29 2021.
