 Gaussian 16, Revision A.03,
 Gaussian 16:  ES64L-G16RevA.03 25-Dec-2016

 ----------------------------------------------------------------------
 # wB97XD def2tzvp, opt=(ts, noeigen, calcfc, maxcycles=70, maxstep=5),
  freq=noraman, scrf=(iefpcm, solvent=water)
 ----------------------------------------------------------------------

 ------------------------
 2_iteration/TS-766-2.out
 ------------------------
 Symbolic Z-matrix:
 Charge =  0 Multiplicity = 1

 SCF Done:  E(RwB97XD) =  -3686.05047354     A.U. after   15 cycles
 SCF Done:  E(RwB97XD) =  -3686.05058332     A.U. after   11 cycles
 SCF Done:  E(RwB97XD) =  -3686.05058363     A.U. after    9 cycles
 SCF Done:  E(RwB97XD) =  -3686.05058367     A.U. after    6 cycles
 Optimization completed.
    -- Stationary point found.
 Normal termination of Gaussian 16 at Thu Apr  1 00:38:46 2021.

 ---------------------------------------------------------------------
 #N Geom=AllCheck Guess=TCheck SCRF=Check GenChk RwB97XD/def2TZVP Freq
 ---------------------------------------------------------------------

 Structure from the checkpoint file:  "/beegfs/scratch/user/q/tla25/Gau-68994.chk"
 ------------------------
 2_iteration/TS-766-2.out
 ------------------------
 Charge =  0 Multiplicity = 1

                         Standard orientation:
 ---------------------------------------------------------------------
 Center     Atomic      Atomic             Coordinates (Angstroms)
 Number     Number       Type             X           Y           Z
 ---------------------------------------------------------------------
      1          6           0        0.147947    0.401754   -0.133823
      2          6           0        0.729301    1.734618    0.122818
      3          8           0        0.145799    2.581372    0.824773
      4          6           0       -1.233834    0.340898   -0.182660
      5          6           0       -1.577620    0.069805    2.597721
      6          1           0       -0.525439   -0.185441    2.468166
      7          1           0       -1.698292    0.591672    3.547416
      8          1           0       -2.167916   -0.843596    2.611021
      9          7           0       -1.982270    0.908110    1.481180
     10          1           0       -1.485684    1.802495    1.491683
     11          1           0       -2.984160    1.044790    1.422967
     12         35           0       -2.101055   -1.360024   -0.395820
     13         17           0       -2.104821    1.576854   -1.160900
     14          6           0        1.031675   -0.784772    0.014162
     15          6           0        1.880388   -0.886547    1.118807
     16          6           0        2.758497   -1.950055    1.260627
     17          6           0        2.803449   -2.949451    0.299501
     18          6           0        1.973982   -2.861259   -0.809902
     19          6           0        1.111029   -1.786520   -0.955131
     20          1           0        1.854869   -0.114297    1.879266
     21          1           0        3.404240   -2.000351    2.128661
     22          1           0        3.484253   -3.784142    0.408845
     23          1           0        2.011187   -3.624827   -1.577198
     24          1           0        0.500297   -1.711103   -1.845558
     25          7           0        1.955321    2.010139   -0.384772
     26          6           0        2.562719    1.287960   -1.482712
     27          6           0        2.675638    3.178993    0.073259
     28          1           0        3.012045    2.008228   -2.168842
     29          1           0        3.341434    0.602047   -1.137442
     30          1           0        1.811364    0.722374   -2.026109
     31          1           0        2.539965    4.025956   -0.606283
     32          1           0        2.323871    3.465477    1.060155
     33          1           0        3.740061    2.943783    0.123203
 ---------------------------------------------------------------------

 SCF Done:  E(RwB97XD) =  -3686.05058367     A.U. after    1 cycles

 The electronic state is 1-A.
 Alpha  occ. eigenvalues -- -483.14060-101.69968 -62.68898 -56.48031 -56.47654
 Alpha  occ. eigenvalues --  -56.47642 -19.20995 -14.48019 -14.46042 -10.44026
 Alpha  occ. eigenvalues --  -10.38375 -10.31504 -10.30771 -10.30520 -10.30229
 Alpha  occ. eigenvalues --  -10.28740 -10.28700 -10.28574 -10.28523 -10.28434
 Alpha  occ. eigenvalues --  -10.27355  -9.58559  -8.83005  -7.33209  -7.32328
 Alpha  occ. eigenvalues --   -7.32310  -6.65203  -6.64003  -6.63967  -2.75585
 Alpha  occ. eigenvalues --   -2.75241  -2.75213  -2.74242  -2.74242  -1.13686
 Alpha  occ. eigenvalues --   -1.04346  -1.03284  -0.98110  -0.96210  -0.90093
 Alpha  occ. eigenvalues --   -0.87905  -0.84749  -0.82622  -0.81453  -0.79213
 Alpha  occ. eigenvalues --   -0.78404  -0.70705  -0.70101  -0.67232  -0.63780
 Alpha  occ. eigenvalues --   -0.62514  -0.61177  -0.58413  -0.57598  -0.56650
 Alpha  occ. eigenvalues --   -0.56279  -0.55021  -0.53958  -0.53580  -0.52227
 Alpha  occ. eigenvalues --   -0.51239  -0.50562  -0.48793  -0.48599  -0.48428
 Alpha  occ. eigenvalues --   -0.47691  -0.46952  -0.46530  -0.45530  -0.45403
 Alpha  occ. eigenvalues --   -0.43271  -0.42491  -0.41190  -0.39811  -0.37547
 Alpha  occ. eigenvalues --   -0.37409  -0.35766  -0.33530  -0.32997  -0.32102
 Alpha  occ. eigenvalues --   -0.26906
 Alpha virt. eigenvalues --    0.03083   0.04915   0.05370   0.06059   0.09012
 Alpha virt. eigenvalues --    0.10920   0.12457   0.13477   0.14186   0.15120
 Alpha virt. eigenvalues --    0.15247   0.16181   0.17341   0.17684   0.18137

 Mulliken charges:
               1
     1  C   -0.390593
     2  C    0.316755
     3  O   -0.568388
     4  C    0.186415
     5  C   -0.293713
     6  H    0.139163
     7  H    0.156921
     8  H    0.156418
     9  N   -0.291151
    10  H    0.277236
    11  H    0.280644
    12  Br  -0.053610
    13  Cl  -0.104601
    14  C    0.188382
    15  C   -0.213462
    16  C   -0.188714
    17  C   -0.130569
    18  C   -0.157415
    19  C   -0.231184
    20  H    0.161141
    21  H    0.138391
    22  H    0.141338
    23  H    0.138426
    24  H    0.154446
    25  N   -0.081869
    26  C   -0.302679
    27  C   -0.295641
    28  H    0.151350
    29  H    0.138730
    30  H    0.157541
    31  H    0.137546
    32  H    0.141795
    33  H    0.140951
 Sum of Mulliken charges =  -0.00000

 Dipole moment (field-independent basis, Debye):
    X=              0.6323    Y=             -1.0866    Z=              2.3511  Tot=              2.6662
 Quadrupole moment (field-independent basis, Debye-Ang):
   XX=           -106.1942   YY=           -124.6935   ZZ=           -111.4106
   XY=              1.6095   XZ=             -9.3844   YZ=              0.3236

  Exact polarizability: 304.160 -19.146 285.602  -1.265  11.334 247.901
 Approx polarizability: 233.506 -15.049 231.171   2.431  11.763 212.909

 ******    1 imaginary frequencies (negative Signs) ******

                      1                      2                      3
                      A                      A                      A
 Frequencies --   -404.5131                39.0883                62.2706
 Red. masses --      6.0131                 5.6772                 4.9406
 Frc consts  --      0.5797                 0.0051                 0.0113
 IR Inten    --    803.6132                 1.0093                 0.5624

                      4                      5                      6
                      A                      A                      A
 Frequencies --     65.3132                77.3355                91.9101
 Red. masses --      4.3760                 3.4977                 3.4538
 Frc consts  --      0.0110                 0.0123                 0.0172
 IR Inten    --      6.2896                 3.1646                 1.6487

                      7                      8                      9
                      A                      A                      A
 Frequencies --    106.1614               113.5617               138.2700
 Red. masses --      2.4234                 1.4404                 2.7699
 Frc consts  --      0.0161                 0.0109                 0.0312
 IR Inten    --      0.7992                 1.3927                 7.5596

                     10                     11                     12
                      A                      A                      A
 Frequencies --    156.8115               162.7800               169.3711
 Red. masses --      1.9866                 2.4942                 3.2190
 Frc consts  --      0.0288                 0.0389                 0.0544
 IR Inten    --     11.0825                 1.8104                 2.4740

                     13                     14                     15
                      A                      A                      A
 Frequencies --    199.5971               215.3625               222.8871
 Red. masses --      7.7749                 1.8694                 3.8827
 Frc consts  --      0.1825                 0.0511                 0.1136
 IR Inten    --      0.7377                 2.4938                 9.9800

                     16                     17                     18
                      A                      A                      A
 Frequencies --    242.1066               244.0533               276.3607
 Red. masses --      2.9439                 3.6280                 2.8143
 Frc consts  --      0.1017                 0.1273                 0.1266
 IR Inten    --      8.3386                 6.1965                12.9329

                     19                     20                     21
                      A                      A                      A
 Frequencies --    283.8479               330.0402               349.9022
 Red. masses --      3.1997                 3.6177                 6.4012
 Frc consts  --      0.1519                 0.2322                 0.4617
 IR Inten    --     39.1380                 5.3058                10.0865

                     22                     23                     24
                      A                      A                      A
 Frequencies --    366.4617               423.5802               431.3872
 Red. masses --      5.1466                 3.1915                 2.9539
 Frc consts  --      0.4072                 0.3374                 0.3239
 IR Inten    --     43.0050                21.4949                 1.7734

                     25                     26                     27
                      A                      A                      A
 Frequencies --    479.6014               517.0235               539.2864
 Red. masses --      3.6567                 4.1917                 6.5969
 Frc consts  --      0.4956                 0.6602                 1.1304
 IR Inten    --     27.2078                47.3177                58.5111

                     28                     29                     30
                      A                      A                      A
 Frequencies --    633.3975               647.5493               651.6519
 Red. masses --      5.6256                 2.7927                 5.2286
 Frc consts  --      1.3298                 0.6899                 1.3082
 IR Inten    --     23.2578                 8.2204                39.6230

                     31                     32                     33
                      A                      A                      A
 Frequencies --    716.1044               732.8253               755.5640
 Red. masses --      4.0980                 1.5766                 5.0298
 Frc consts  --      1.2381                 0.4989                 1.6918
 IR Inten    --     86.7749                98.8817               123.4038

                     34                     35                     36
                      A                      A                      A
 Frequencies --    772.6390               806.3569               820.1154
 Red. masses --      2.1197                 9.4809                 2.6537
 Frc consts  --      0.7455                 3.6321                 1.0516
 IR Inten    --     76.0566               112.7884                90.1920

                     37                     38                     39
                      A                      A                      A
 Frequencies --    882.3996               958.6500               961.4495
 Red. masses --      1.2463                 2.7377                 1.7492
 Frc consts  --      0.5718                 1.4824                 0.9527
 IR Inten    --      1.5287                45.4014                14.2404

                     40                     41                     42
                      A                      A                      A
 Frequencies --   1002.8261              1017.5706              1025.0797
 Red. masses --      1.1085                 1.3669                 3.9753
 Frc consts  --      0.6568                 0.8339                 2.4611
 IR Inten    --     66.0324                 0.8988                 0.6415

                     43                     44                     45
                      A                      A                      A
 Frequencies --   1027.3300              1043.5094              1069.5542
 Red. masses --      1.4691                 3.0770                 1.8702
 Frc consts  --      0.9135                 1.9741                 1.2605
 IR Inten    --      0.2923                31.9266                38.2913

                     46                     47                     48
                      A                      A                      A
 Frequencies --   1087.5006              1092.2770              1100.9142
 Red. masses --      2.2760                 1.3943                 1.7121
 Frc consts  --      1.5859                 0.9801                 1.2226
 IR Inten    --      4.5267                18.9047               142.8026

                     49                     50                     51
                      A                      A                      A
 Frequencies --   1114.0004              1133.5347              1168.9485
 Red. masses --      1.5728                 1.2297                 1.4419
 Frc consts  --      1.1500                 0.9309                 1.1608
 IR Inten    --     15.3072                 0.8978                 5.3071

                     52                     53                     54
                      A                      A                      A
 Frequencies --   1181.4296              1193.4407              1212.8858
 Red. masses --      1.1260                 2.2312                 1.1250
 Frc consts  --      0.9260                 1.8723                 0.9751
 IR Inten    --      1.0459               148.2606                 0.5642

                     55                     56                     57
                      A                      A                      A
 Frequencies --   1217.4405              1269.6642              1312.0404
 Red. masses --      1.4446                 4.5920                 4.9997
 Frc consts  --      1.2615                 4.3614                 5.0710
 IR Inten    --     55.2900               381.3834                 2.0714

                     58                     59                     60
                      A                      A                      A
 Frequencies --   1320.6725              1357.9757              1362.3001
 Red. masses --      5.4571                 1.3121                 1.4258
 Frc consts  --      5.6079                 1.4256                 1.5590
 IR Inten    --    122.3297                 8.1757                 6.4652

                     61                     62                     63
                      A                      A                      A
 Frequencies --   1408.9426              1441.4621              1450.5559
 Red. masses --      4.3047                 1.9442                 1.1747
 Frc consts  --      5.0348                 2.3801                 1.4563
 IR Inten    --    931.8951                66.6873                 8.2461

                     64                     65                     66
                      A                      A                      A
 Frequencies --   1459.7916              1476.8761              1484.8739
 Red. masses --      1.2650                 1.2431                 1.0816
 Frc consts  --      1.5883                 1.5975                 1.4051
 IR Inten    --     18.2026                38.1759                12.1688

                     67                     68                     69
                      A                      A                      A
 Frequencies --   1488.1019              1488.7323              1498.7055
 Red. masses --      1.6486                 1.2157                 1.0475
 Frc consts  --      2.1510                 1.5875                 1.3862
 IR Inten    --     15.1882                14.1878                21.2024

                     70                     71                     72
                      A                      A                      A
 Frequencies --   1501.6023              1504.1946              1536.1589
 Red. masses --      1.0437                 1.0519                 1.7036
 Frc consts  --      1.3865                 1.4022                 2.3686
 IR Inten    --      3.6298                28.6104               186.1626

                     73                     74                     75
                      A                      A                      A
 Frequencies --   1543.4608              1607.8166              1641.3720
 Red. masses --      2.3019                 2.1841                 2.9339
 Frc consts  --      3.2310                 3.3266                 4.6571
 IR Inten    --    109.8034               773.5826                45.4715

                     76                     77                     78
                      A                      A                      A
 Frequencies --   1646.3441              1670.0610              3036.7890
 Red. masses --      2.2174                 5.8775                 1.0417
 Frc consts  --      3.5411                 9.6585                 5.6600
 IR Inten    --    151.7873                19.2063                71.0692

                     79                     80                     81
                      A                      A                      A
 Frequencies --   3042.1067              3068.5268              3100.8757
 Red. masses --      1.0412                 1.0338                 1.0994
 Frc consts  --      5.6772                 5.7351                 6.2282
 IR Inten    --    112.2695                42.7168                75.5124

                     82                     83                     84
                      A                      A                      A
 Frequencies --   3107.7572              3142.5769              3170.1062
 Red. masses --      1.1003                 1.1033                 1.1049
 Frc consts  --      6.2613                 6.4197                 6.5423
 IR Inten    --     12.9253                 8.6954                13.9073

                     85                     86                     87
                      A                      A                      A
 Frequencies --   3174.7586              3178.6349              3185.5930
 Red. masses --      1.0989                 1.0992                 1.0873
 Frc consts  --      6.5255                 6.5435                 6.5008
 IR Inten    --     12.8242                 9.6462                11.6221

                     88                     89                     90
                      A                      A                      A
 Frequencies --   3193.9056              3203.2884              3212.0603
 Red. masses --      1.0871                 1.0918                 1.0941
 Frc consts  --      6.5337                 6.6003                 6.6510
 IR Inten    --      0.3718                24.1416                37.9151

                     91                     92                     93
                      A                      A                      A
 Frequencies --   3220.9416              3379.9796              3586.3028
 Red. masses --      1.0986                 1.0648                 1.0860
 Frc consts  --      6.7151                 7.1668                 8.2292
 IR Inten    --     15.7633               217.7820               120.5969

 - Thermochemistry -
 -------------------
 Temperature   298.150 Kelvin.  Pressure   1.00000 Atm.
 Atom     1 has atomic number  6 and mass  12.00000

 Molecular mass:   318.01345 amu.
 Principal axes and moments of inertia in atomic units:
                           1         2         3
     Eigenvalues --  4613.906385540.031967870.77446
           X            0.99771  -0.05778  -0.03518
           Y            0.05780   0.99833  -0.00052
           Z            0.03515  -0.00151   0.99938
 This molecule is an asymmetric top.
 Rotational symmetry number  1.
 Warning -- assumption of classical behavior for rotation
           may cause significant error
 Rotational temperatures (Kelvin)      0.01877     0.01563     0.01100
 Rotational constants (GHZ):           0.39115     0.32576     0.22930
    1 imaginary frequencies ignored.
 Zero-point vibrational energy     698662.4 (Joules/Mol)
                                  166.98431 (Kcal/Mol)
 Warning -- explicit consideration of  26 degrees of freedom as
           vibrations may cause significant error
 Vibrational temperatures:     56.24    89.59    93.97   111.27   132.24
          (Kelvin)            152.74   163.39   198.94   225.62   234.20
                              243.69   287.18   309.86   320.68   348.34
                              351.14   397.62   408.39   474.85   503.43
                              527.26   609.44   620.67   690.04   743.88
                              775.91   911.32   931.68   937.58  1030.31
                             1054.37  1087.09  1111.66  1160.17  1179.96
                             1269.58  1379.28  1383.31  1442.84  1464.06
                             1474.86  1478.10  1501.38  1538.85  1564.67
                             1571.54  1583.97  1602.80  1630.90  1681.86
                             1699.81  1717.09  1745.07  1751.63  1826.76
                             1887.73  1900.15  1953.82  1960.05  2027.15
                             2073.94  2087.03  2100.31  2124.90  2136.40
                             2141.05  2141.95  2156.30  2160.47  2164.20
                             2210.19  2220.70  2313.29  2361.57  2368.72
                             2402.85  4369.26  4376.91  4414.93  4461.47
                             4471.37  4521.47  4561.08  4567.77  4573.35
                             4583.36  4595.32  4608.82  4621.44  4634.22
                             4863.04  5159.89

 Zero-point correction=                           0.266106 (Hartree/Particle)
 Thermal correction to Energy=                    0.284336
 Thermal correction to Enthalpy=                  0.285280
 Thermal correction to Gibbs Free Energy=         0.219037
 Sum of electronic and zero-point Energies=          -3685.784477
 Sum of electronic and thermal Energies=             -3685.766248
 Sum of electronic and thermal Enthalpies=           -3685.765304
 Sum of electronic and thermal Free Energies=        -3685.831547

                     E (Thermal)             CV                S
                      KCal/Mol        Cal/Mol-Kelvin    Cal/Mol-Kelvin
 Total                  178.423             65.762            139.420
 Electronic               0.000              0.000              0.000
 Translational            0.889              2.981             43.167
 Rotational               0.889              2.981             33.664
 Vibrational            176.646             59.800             62.590
 Vibration     1          0.594              1.981              5.305
 Vibration     2          0.597              1.972              4.384
 Vibration     3          0.597              1.971              4.290
 Vibration     4          0.599              1.964              3.957
 Vibration     5          0.602              1.955              3.619
 Vibration     6          0.605              1.944              3.338
 Vibration     7          0.607              1.938              3.207
 Vibration     8          0.614              1.915              2.828
 Vibration     9          0.620              1.895              2.588
 Vibration    10          0.623              1.888              2.517
 Vibration    11          0.625              1.880              2.442
 Vibration    12          0.638              1.840              2.137
 Vibration    13          0.645              1.818              1.998
 Vibration    14          0.649              1.806              1.936
 Vibration    15          0.658              1.776              1.787
 Vibration    16          0.659              1.773              1.773
 Vibration    17          0.678              1.717              1.556
 Vibration    18          0.682              1.704              1.510
 Vibration    19          0.713              1.615              1.260
 Vibration    20          0.727              1.575              1.167
 Vibration    21          0.739              1.541              1.095
 Vibration    22          0.786              1.419              0.880
 Vibration    23          0.792              1.402              0.854
 Vibration    24          0.836              1.295              0.711
 Vibration    25          0.872              1.212              0.617
 Vibration    26          0.894              1.163              0.567

 Optimization completed.
    -- Stationary point found.
 Normal termination of Gaussian 16 at Thu Apr  1 02:21:16 2021.
