 Gaussian 16, Revision A.03,
 Gaussian 16:  ES64L-G16RevA.03 25-Dec-2016

 ----------------------------------------------------------------------
 # wB97XD def2tzvp, opt=(ts, noeigen, calcfc, maxcycles=70, maxstep=8),
  freq=noraman, scrf=(iefpcm, solvent=water)
 ----------------------------------------------------------------------

 ------------------------
 1_iteration/TS-795-1.out
 ------------------------
 Symbolic Z-matrix:
 Charge =  0 Multiplicity = 1

 SCF Done:  E(RwB97XD) =  -3835.99180122     A.U. after   16 cycles
 SCF Done:  E(RwB97XD) =  -3835.99180329     A.U. after    9 cycles
 SCF Done:  E(RwB97XD) =  -3835.99180331     A.U. after    8 cycles
 Optimization completed.
    -- Stationary point found.
 Normal termination of Gaussian 16 at Mon Feb 22 05:22:36 2021.

 ---------------------------------------------------------------------
 #N Geom=AllCheck Guess=TCheck SCRF=Check GenChk RwB97XD/def2TZVP Freq
 ---------------------------------------------------------------------

 Structure from the checkpoint file:  "/beegfs/scratch/user/q/tla25/Gau-44896.chk"
 ------------------------
 1_iteration/TS-795-1.out
 ------------------------
 Charge =  0 Multiplicity = 1

                         Standard orientation:
 ---------------------------------------------------------------------
 Center     Atomic      Atomic             Coordinates (Angstroms)
 Number     Number       Type             X           Y           Z
 ---------------------------------------------------------------------
      1          6           0       -0.884233    0.406529   -0.235250
      2          6           0       -2.193290   -0.236159   -0.164153
      3          8           0       -2.302263   -1.443210    0.082563
      4          6           0        0.271231   -0.351904   -0.248853
      5          6           0        0.223921   -0.555017    2.591097
      6          1           0        1.162447   -0.035947    2.774590
      7          1           0       -0.560639    0.179389    2.400919
      8          1           0       -0.047032   -1.133656    3.474593
      9          7           0        0.353249   -1.399800    1.416494
     10          1           0       -0.485386   -1.951707    1.254761
     11          1           0        1.167079   -2.002269    1.441109
     12         35           0        1.956572    0.542629   -0.212362
     13         17           0        0.360326   -1.769628   -1.315100
     14         17           0       -0.822282    2.143374   -0.030984
     15          7           0       -3.286820    0.533759   -0.352437
     16          1           0       -3.225052    1.514368   -0.552851
     17          1           0       -4.190880    0.111423   -0.242960
 ---------------------------------------------------------------------

 SCF Done:  E(RwB97XD) =  -3835.99180331     A.U. after    1 cycles

 The electronic state is 1-A.
 Alpha  occ. eigenvalues -- -483.14828-101.70849-101.70194 -62.69671 -56.48811
 Alpha  occ. eigenvalues --  -56.48425 -56.48406 -19.21441 -14.48282 -14.44890
 Alpha  occ. eigenvalues --  -10.44937 -10.39734 -10.32867 -10.31735  -9.59423
 Alpha  occ. eigenvalues --   -9.58712  -8.83787  -7.34108  -7.33369  -7.33178
 Alpha  occ. eigenvalues --   -7.33151  -7.32499  -7.32461  -6.66013  -6.64779
 Alpha  occ. eigenvalues --   -6.64723  -2.76392  -2.76040  -2.75998  -2.74999
 Alpha  occ. eigenvalues --   -2.74999  -1.14217  -1.04499  -1.01178  -0.99583
 Alpha  occ. eigenvalues --   -0.95685  -0.90032  -0.83191  -0.78904  -0.73194
 Alpha  occ. eigenvalues --   -0.65623  -0.63291  -0.61939  -0.58461  -0.57793
 Alpha  occ. eigenvalues --   -0.55767  -0.54095  -0.52568  -0.50647  -0.48781
 Alpha  occ. eigenvalues --   -0.48137  -0.47301  -0.43414  -0.42854  -0.41854
 Alpha  occ. eigenvalues --   -0.39697  -0.37929  -0.37532  -0.35788  -0.34890
 Alpha  occ. eigenvalues --   -0.28499
 Alpha virt. eigenvalues --    0.02382   0.03860   0.06918   0.11056   0.13217
 Alpha virt. eigenvalues --    0.13516   0.15239   0.17067   0.17427   0.17804
 Alpha virt. eigenvalues --    0.18759   0.19981   0.21436   0.22863   0.24070

 Mulliken charges:
               1
     1  C   -0.297853
     2  C    0.345023
     3  O   -0.530730
     4  C    0.210444
     5  C   -0.293739
     6  H    0.156080
     7  H    0.155392
     8  H    0.157582
     9  N   -0.349103
    10  H    0.282822
    11  H    0.288949
    12  Br  -0.022316
    13  Cl  -0.062447
    14  Cl  -0.132907
    15  N   -0.457927
    16  H    0.274435
    17  H    0.276295
 Sum of Mulliken charges =   0.00000

 Dipole moment (field-independent basis, Debye):
    X=              0.8123    Y=              0.0439    Z=              4.0954  Tot=              4.1754
 Quadrupole moment (field-independent basis, Debye-Ang):
   XX=            -76.4165   YY=            -85.8477   ZZ=            -79.2169
   XY=            -10.3188   XZ=              3.8056   YZ=             -6.0383

  Exact polarizability: 182.155  -9.124 168.070   9.725  -4.116 137.258
 Approx polarizability: 143.819  -3.955 148.174   6.219  -2.375 117.255

 ******    1 imaginary frequencies (negative Signs) ******

                      1                      2                      3
                      A                      A                      A
 Frequencies --   -378.2621                66.0908                78.7555
 Red. masses --      5.9551                 5.1555                 5.0914
 Frc consts  --      0.5020                 0.0133                 0.0186
 IR Inten    --    704.8516                 1.6533                10.8900

                      4                      5                      6
                      A                      A                      A
 Frequencies --     96.0558               131.2646               151.9033
 Red. masses --      4.1936                 6.0459                 1.2573
 Frc consts  --      0.0228                 0.0614                 0.0171
 IR Inten    --      8.9201                 4.1713                13.0117

                      7                      8                      9
                      A                      A                      A
 Frequencies --    158.9491               162.7736               193.7373
 Red. masses --      1.2730                 6.7261                 3.1778
 Frc consts  --      0.0189                 0.1050                 0.0703
 IR Inten    --    263.6746                44.1941                 4.0930

                     10                     11                     12
                      A                      A                      A
 Frequencies --    214.7282               231.0343               251.7602
 Red. masses --      6.1917                12.1342                 6.0658
 Frc consts  --      0.1682                 0.3816                 0.2265
 IR Inten    --     21.4126                 1.8679                 1.1130

                     13                     14                     15
                      A                      A                      A
 Frequencies --    285.8660               311.8681               378.4665
 Red. masses --      4.1928                 6.0627                11.8155
 Frc consts  --      0.2019                 0.3474                 0.9971
 IR Inten    --      9.9765                27.2023                10.6138

                     16                     17                     18
                      A                      A                      A
 Frequencies --    441.8818               493.4727               559.3823
 Red. masses --      6.3468                 4.3351                 1.2538
 Frc consts  --      0.7302                 0.6220                 0.2311
 IR Inten    --     37.9998                89.2584                16.4015

                     19                     20                     21
                      A                      A                      A
 Frequencies --    578.3726               669.4214               769.8149
 Red. masses --      2.6929                 1.5310                 9.7755
 Frc consts  --      0.5307                 0.4042                 3.4132
 IR Inten    --     21.6003                60.1311               181.8160

                     22                     23                     24
                      A                      A                      A
 Frequencies --    790.4888               839.0658               988.4299
 Red. masses --      8.7664                 4.7209                 1.0961
 Frc consts  --      3.2275                 1.9583                 0.6310
 IR Inten    --    121.2102                66.6016                78.8589

                     25                     26                     27
                      A                      A                      A
 Frequencies --   1041.8200              1064.6539              1090.9372
 Red. masses --      1.4673                 1.8028                 4.6193
 Frc consts  --      0.9383                 1.2039                 3.2391
 IR Inten    --     48.7852                59.3461                36.4734

                     28                     29                     30
                      A                      A                      A
 Frequencies --   1102.7948              1199.7570              1347.3034
 Red. masses --      2.9496                 1.4144                 1.3259
 Frc consts  --      2.1135                 1.1996                 1.4181
 IR Inten    --      5.7591                27.4241                 8.6456

                     31                     32                     33
                      A                      A                      A
 Frequencies --   1391.1319              1405.9635              1459.0516
 Red. masses --      4.3952                 6.1033                 1.2515
 Frc consts  --      5.0115                 7.1083                 1.5697
 IR Inten    --   1047.5731               408.6317                29.0908

                     34                     35                     36
                      A                      A                      A
 Frequencies --   1487.9651              1501.2087              1602.8032
 Red. masses --      1.0416                 1.0325                 1.4174
 Frc consts  --      1.3587                 1.3710                 2.1453
 IR Inten    --     20.5794                11.6358               265.1883

                     37                     38                     39
                      A                      A                      A
 Frequencies --   1634.6019              1673.0371              3062.9354
 Red. masses --      1.1864                 3.7519                 1.0336
 Frc consts  --      1.8677                 6.1875                 5.7129
 IR Inten    --    261.4420               414.3186                32.5040

                     40                     41                     42
                      A                      A                      A
 Frequencies --   3134.9311              3164.6728              3490.4859
 Red. masses --      1.1042                 1.1048                 1.0535
 Frc consts  --      6.3936                 6.5194                 7.5626
 IR Inten    --     12.4230                13.3904                59.1473

                     43                     44                     45
                      A                      A                      A
 Frequencies --   3601.2626              3634.0662              3763.0534
 Red. masses --      1.0945                 1.0452                 1.1060
 Frc consts  --      8.3630                 8.1329                 9.2271
 IR Inten    --    110.4997               115.9229               104.3665

 - Thermochemistry -
 -------------------
 Temperature   298.150 Kelvin.  Pressure   1.00000 Atm.
 Atom     1 has atomic number  6 and mass  12.00000

 Molecular mass:   247.91188 amu.
 Principal axes and moments of inertia in atomic units:
                           1         2         3
     Eigenvalues --  2077.737763110.924593728.74767
           X            0.99886  -0.04328   0.02007
           Y            0.04453   0.99675  -0.06707
           Z           -0.01710   0.06789   0.99755
 This molecule is an asymmetric top.
 Rotational symmetry number  1.
 Warning -- assumption of classical behavior for rotation
           may cause significant error
 Rotational temperatures (Kelvin)      0.04169     0.02784     0.02323
 Rotational constants (GHZ):           0.86861     0.58013     0.48401
    1 imaginary frequencies ignored.
 Zero-point vibrational energy     309222.8 (Joules/Mol)
                                   73.90603 (Kcal/Mol)
 Warning -- explicit consideration of  18 degrees of freedom as
           vibrations may cause significant error
 Vibrational temperatures:     95.09   113.31   138.20   188.86   218.56
          (Kelvin)            228.69   234.19   278.74   308.95   332.41
                              362.23   411.30   448.71   544.53   635.77
                              710.00   804.83   832.15   963.15  1107.59
                             1137.34  1207.23  1422.13  1498.95  1531.80
                             1569.62  1586.68  1726.18  1938.47  2001.53
                             2022.87  2099.25  2140.85  2159.90  2306.08
                             2351.83  2407.13  4406.88  4510.47  4553.26
                             5022.03  5181.41  5228.61  5414.19

 Zero-point correction=                           0.117777 (Hartree/Particle)
 Thermal correction to Energy=                    0.130208
 Thermal correction to Enthalpy=                  0.131152
 Thermal correction to Gibbs Free Energy=         0.077914
 Sum of electronic and zero-point Energies=          -3835.874027
 Sum of electronic and thermal Energies=             -3835.861595
 Sum of electronic and thermal Enthalpies=           -3835.860651
 Sum of electronic and thermal Free Energies=        -3835.913889

                     E (Thermal)             CV                S
                      KCal/Mol        Cal/Mol-Kelvin    Cal/Mol-Kelvin
 Total                   81.707             41.748            112.049
 Electronic               0.000              0.000              0.000
 Translational            0.889              2.981             42.424
 Rotational               0.889              2.981             31.555
 Vibrational             79.929             35.786             38.069
 Vibration     1          0.597              1.970              4.267
 Vibration     2          0.600              1.963              3.922
 Vibration     3          0.603              1.952              3.533
 Vibration     4          0.612              1.922              2.927
 Vibration     5          0.619              1.901              2.648
 Vibration     6          0.621              1.893              2.562
 Vibration     7          0.623              1.888              2.517
 Vibration     8          0.635              1.849              2.192
 Vibration     9          0.645              1.819              2.003
 Vibration    10          0.653              1.794              1.871
 Vibration    11          0.664              1.760              1.718
 Vibration    12          0.684              1.700              1.498
 Vibration    13          0.700              1.651              1.352
 Vibration    14          0.749              1.516              1.045
 Vibration    15          0.802              1.379              0.821
 Vibration    16          0.849              1.264              0.675
 Vibration    17          0.915              1.119              0.525
 Vibration    18          0.935              1.078              0.488

 Optimization completed.
    -- Stationary point found.
 Normal termination of Gaussian 16 at Mon Feb 22 05:35:52 2021.
