 Gaussian 16, Revision A.03,
 Gaussian 16:  ES64L-G16RevA.03 25-Dec-2016

 ----------------------------------------------------------------------
 # wB97XD def2tzvp, opt=(ts, noeigen, calcfc, maxcycles=70, maxstep=8),
  freq=noraman, scrf=(iefpcm, solvent=water)
 ----------------------------------------------------------------------

 ------------------------
 1_iteration/TS-799-1.out
 ------------------------
 Symbolic Z-matrix:
 Charge =  0 Multiplicity = 1

 SCF Done:  E(RwB97XD) =  -4067.03480535     A.U. after   15 cycles
 SCF Done:  E(RwB97XD) =  -4067.03607184     A.U. after   12 cycles
 SCF Done:  E(RwB97XD) =  -4067.03685577     A.U. after   12 cycles
 SCF Done:  E(RwB97XD) =  -4067.03686488     A.U. after   12 cycles
 SCF Done:  E(RwB97XD) =  -4067.03693742     A.U. after   13 cycles
 SCF Done:  E(RwB97XD) =  -4067.03703936     A.U. after   12 cycles
 SCF Done:  E(RwB97XD) =  -4067.03675212     A.U. after   12 cycles
 SCF Done:  E(RwB97XD) =  -4067.03704136     A.U. after   12 cycles
 SCF Done:  E(RwB97XD) =  -4067.03704742     A.U. after   11 cycles
 SCF Done:  E(RwB97XD) =  -4067.03704900     A.U. after   10 cycles
 SCF Done:  E(RwB97XD) =  -4067.03705127     A.U. after    9 cycles
 SCF Done:  E(RwB97XD) =  -4067.03704387     A.U. after   11 cycles
 SCF Done:  E(RwB97XD) =  -4067.03705136     A.U. after   11 cycles
 SCF Done:  E(RwB97XD) =  -4067.03705134     A.U. after    7 cycles
 SCF Done:  E(RwB97XD) =  -4067.03673429     A.U. after   14 cycles
 SCF Done:  E(RwB97XD) =  -4067.03701754     A.U. after   14 cycles
 SCF Done:  E(RwB97XD) =  -4067.03704189     A.U. after   12 cycles
 SCF Done:  E(RwB97XD) =  -4067.03705134     A.U. after   10 cycles
 SCF Done:  E(RwB97XD) =  -4067.03705134     A.U. after    7 cycles
 Optimization completed.
    -- Stationary point found.
 Normal termination of Gaussian 16 at Mon Feb 22 10:11:08 2021.

 ---------------------------------------------------------------------
 #N Geom=AllCheck Guess=TCheck SCRF=Check GenChk RwB97XD/def2TZVP Freq
 ---------------------------------------------------------------------

 Structure from the checkpoint file:  "/beegfs/scratch/user/q/tla25/Gau-21722.chk"
 ------------------------
 1_iteration/TS-799-1.out
 ------------------------
 Charge =  0 Multiplicity = 1

                         Standard orientation:
 ---------------------------------------------------------------------
 Center     Atomic      Atomic             Coordinates (Angstroms)
 Number     Number       Type             X           Y           Z
 ---------------------------------------------------------------------
      1          6           0       -0.617112   -0.418219   -0.148335
      2          6           0        0.683464    0.246670   -0.109756
      3          8           0        0.767163    1.467715    0.026235
      4          6           0       -1.775969    0.324842   -0.280679
      5          6           0       -1.822712    0.803019    2.532053
      6          1           0       -1.613260    1.473052    3.366275
      7          1           0       -2.745762    0.261425    2.728616
      8          1           0       -1.001238    0.090341    2.442290
      9          7           0       -1.939156    1.528392    1.278656
     10          1           0       -2.775639    2.096505    1.219188
     11          1           0       -1.118948    2.099534    1.096650
     12         35           0       -3.455386   -0.578713   -0.219903
     13         17           0       -1.830696    1.629348   -1.479816
     14         17           0       -0.684928   -2.122533    0.243515
     15          7           0        1.777443   -0.563818   -0.216612
     16          6           0        3.136654   -0.239220   -0.121577
     17          6           0        3.622467    1.052411    0.080250
     18          6           0        4.992068    1.264469    0.163955
     19          6           0        5.891505    0.217033    0.047610
     20          6           0        5.405396   -1.067855   -0.155970
     21          6           0        4.044383   -1.295518   -0.238982
     22          1           0        1.582726   -1.542364   -0.350917
     23          1           0        2.933701    1.875930    0.167984
     24          1           0        5.354827    2.272691    0.321775
     25          1           0        6.956594    0.396763    0.112983
     26          1           0        6.089410   -1.901811   -0.250348
     27          1           0        3.675521   -2.302497   -0.396395
 ---------------------------------------------------------------------

 SCF Done:  E(RwB97XD) =  -4067.03705134     A.U. after    1 cycles

 The electronic state is 1-A.
 Alpha  occ. eigenvalues -- -483.14934-101.71026-101.70541 -62.69775 -56.48915
 Alpha  occ. eigenvalues --  -56.48528 -56.48509 -19.22288 -14.48365 -14.47373
 Alpha  occ. eigenvalues --  -10.45098 -10.40477 -10.34210 -10.33278 -10.31789
 Alpha  occ. eigenvalues --  -10.29249 -10.29140 -10.29095 -10.28539 -10.28505
 Alpha  occ. eigenvalues --   -9.59598  -9.59062  -8.83888  -7.34287  -7.33718
 Alpha  occ. eigenvalues --   -7.33351  -7.33324  -7.32851  -7.32806  -6.66118
 Alpha  occ. eigenvalues --   -6.64879  -6.64823  -2.76496  -2.76143  -2.76100
 Alpha  occ. eigenvalues --   -2.75098  -2.75098  -1.15367  -1.05235  -1.04563
 Alpha  occ. eigenvalues --   -1.00143  -0.96751  -0.95384  -0.90183  -0.85854
 Alpha  occ. eigenvalues --   -0.85369  -0.82934  -0.78964  -0.75145  -0.71927
 Alpha  occ. eigenvalues --   -0.68501  -0.65455  -0.63390  -0.62957  -0.59998
 Alpha  occ. eigenvalues --   -0.58375  -0.57946  -0.56142  -0.54655  -0.54318
 Alpha  occ. eigenvalues --   -0.53089  -0.52394  -0.52146  -0.50746  -0.49273
 Alpha  occ. eigenvalues --   -0.48231  -0.47843  -0.47011  -0.45047  -0.43724
 Alpha  occ. eigenvalues --   -0.43184  -0.43039  -0.42161  -0.40261  -0.39525
 Alpha  occ. eigenvalues --   -0.38007  -0.37593  -0.35035  -0.33975  -0.31030
 Alpha  occ. eigenvalues --   -0.28201
 Alpha virt. eigenvalues --    0.01448   0.03611   0.05175   0.05514   0.07931
 Alpha virt. eigenvalues --    0.10909   0.12903   0.13123   0.14116   0.15260
 Alpha virt. eigenvalues --    0.16130   0.16904   0.17382   0.17823   0.18217

 Mulliken charges:
               1
     1  C   -0.365167
     2  C    0.468476
     3  O   -0.533952
     4  C    0.218928
     5  C   -0.293481
     6  H    0.158262
     7  H    0.156622
     8  H    0.155482
     9  N   -0.353250
    10  H    0.290228
    11  H    0.284241
    12  Br  -0.017813
    13  Cl  -0.056374
    14  Cl  -0.127758
    15  N   -0.270041
    16  C    0.300820
    17  C   -0.291111
    18  C   -0.109210
    19  C   -0.192325
    20  C   -0.098138
    21  C   -0.305150
    22  H    0.242209
    23  H    0.164814
    24  H    0.142942
    25  H    0.142138
    26  H    0.145053
    27  H    0.143555
 Sum of Mulliken charges =  -0.00000

 Dipole moment (field-independent basis, Debye):
    X=             -2.3181    Y=              0.4485    Z=              3.9407  Tot=              4.5939
 Quadrupole moment (field-independent basis, Debye-Ang):
   XX=           -107.3753   YY=           -112.8650   ZZ=           -117.4161
   XY=            -11.3564   XZ=             -8.7354   YZ=              7.4992

  Exact polarizability: 352.850 -11.306 263.468  -6.647   7.322 185.152
 Approx polarizability: 252.272  -4.357 232.546  -3.388   4.765 162.276

 ******    1 imaginary frequencies (negative Signs) ******

                      1                      2                      3
                      A                      A                      A
 Frequencies --   -380.3676                14.6989                28.9525
 Red. masses --      5.9953                 4.0658                 6.8077
 Frc consts  --      0.5111                 0.0005                 0.0034
 IR Inten    --    866.9200                 0.5480                 1.3138

                      4                      5                      6
                      A                      A                      A
 Frequencies --     58.7149                74.7609                82.5659
 Red. masses --      6.7645                 3.9910                 7.9308
 Frc consts  --      0.0137                 0.0131                 0.0319
 IR Inten    --      1.6754                12.3751                 0.9524

                      7                      8                      9
                      A                      A                      A
 Frequencies --     91.1191               138.5775               141.6718
 Red. masses --      4.0544                 5.5016                 1.5436
 Frc consts  --      0.0198                 0.0622                 0.0183
 IR Inten    --      6.0945                 9.9825                10.3706

                     10                     11                     12
                      A                      A                      A
 Frequencies --    170.1818               180.5032               193.8827
 Red. masses --      5.7545                 8.6000                 2.4769
 Frc consts  --      0.0982                 0.1651                 0.0549
 IR Inten    --      8.1011                 3.4853                 2.3879

                     13                     14                     15
                      A                      A                      A
 Frequencies --    216.9320               231.8296               254.4947
 Red. masses --      5.1315                10.5836                 5.4469
 Frc consts  --      0.1423                 0.3351                 0.2079
 IR Inten    --      9.8663                10.4707                 3.9253

                     16                     17                     18
                      A                      A                      A
 Frequencies --    264.2960               296.6840               357.8396
 Red. masses --      8.6510                 4.0877                 8.5277
 Frc consts  --      0.3560                 0.2120                 0.6434
 IR Inten    --      9.4191                21.1607                 8.0298

                     19                     20                     21
                      A                      A                      A
 Frequencies --    374.6864               421.9445               430.1826
 Red. masses --     12.2151                 2.9974                 9.8105
 Frc consts  --      1.0104                 0.3144                 1.0697
 IR Inten    --     24.8633                 0.6309                22.4645

                     22                     23                     24
                      A                      A                      A
 Frequencies --    503.5992               529.2557               545.9909
 Red. masses --      6.1802                 2.8963                 6.2366
 Frc consts  --      0.9235                 0.4780                 1.0954
 IR Inten    --     73.7560                50.2385                34.5038

                     25                     26                     27
                      A                      A                      A
 Frequencies --    577.3818               634.5211               636.0267
 Red. masses --      1.1568                 2.2123                 4.1775
 Frc consts  --      0.2272                 0.5248                 0.9957
 IR Inten    --     97.2280                23.9352                15.9289

                     28                     29                     30
                      A                      A                      A
 Frequencies --    718.5585               729.0449               765.3823
 Red. masses --      1.8726                 3.5485                 9.0697
 Frc consts  --      0.5697                 1.1112                 3.1304
 IR Inten    --     67.5216                88.9797                90.0518

                     31                     32                     33
                      A                      A                      A
 Frequencies --    784.6072               788.8481               862.6303
 Red. masses --      1.9677                 7.1981                 1.2603
 Frc consts  --      0.7137                 2.6391                 0.5526
 IR Inten    --     49.1499               231.3013                 0.0589

                     34                     35                     36
                      A                      A                      A
 Frequencies --    875.8247               899.7745               936.7608
 Red. masses --      5.6291                 6.8433                 1.4614
 Frc consts  --      2.5440                 3.2642                 0.7556
 IR Inten    --     20.7693                34.4118                13.1219

                     37                     38                     39
                      A                      A                      A
 Frequencies --    988.1183              1003.1118              1021.0764
 Red. masses --      1.0975                 1.3505                 1.3663
 Frc consts  --      0.6314                 0.8007                 0.8393
 IR Inten    --     79.3172                 0.0404                 1.2654

                     40                     41                     42
                      A                      A                      A
 Frequencies --   1021.2647              1039.7268              1061.9483
 Red. masses --      4.6961                 1.1775                 2.2256
 Frc consts  --      2.8858                 0.7500                 1.4788
 IR Inten    --      2.8325                73.0042                18.8703

                     43                     44                     45
                      A                      A                      A
 Frequencies --   1087.1020              1091.9332              1125.8289
 Red. masses --      4.0461                 4.6776                 1.6616
 Frc consts  --      2.8173                 3.2860                 1.2409
 IR Inten    --     10.6839                41.2139                11.7900

                     46                     47                     48
                      A                      A                      A
 Frequencies --   1183.5099              1198.2272              1209.7879
 Red. masses --      1.1246                 1.4208                 1.1328
 Frc consts  --      0.9281                 1.2019                 0.9768
 IR Inten    --      3.7372                23.8643                24.7314

                     49                     50                     51
                      A                      A                      A
 Frequencies --   1256.8354              1272.2713              1344.0560
 Red. masses --      2.9179                 3.4871                 3.1819
 Frc consts  --      2.7157                 3.3256                 3.3866
 IR Inten    --    668.2153               101.7141               635.0416

                     52                     53                     54
                      A                      A                      A
 Frequencies --   1346.2381              1362.3780              1410.0139
 Red. masses --      1.5250                 1.4945                 4.9292
 Frc consts  --      1.6285                 1.6344                 5.7739
 IR Inten    --    115.5756                29.3467               705.5230

                     55                     56                     57
                      A                      A                      A
 Frequencies --   1459.3257              1483.0946              1488.0073
 Red. masses --      1.2554                 2.2186                 1.0414
 Frc consts  --      1.5752                 2.8752                 1.3586
 IR Inten    --     40.0837               293.6629                20.3114

                     58                     59                     60
                      A                      A                      A
 Frequencies --   1500.6726              1546.7219              1573.7379
 Red. masses --      1.0347                 2.3582                 2.1527
 Frc consts  --      1.3729                 3.3240                 3.1412
 IR Inten    --      8.4441               123.1045              1001.2883

                     61                     62                     63
                      A                      A                      A
 Frequencies --   1630.3007              1662.6996              1670.5682
 Red. masses --      1.1692                 5.1665                 4.6414
 Frc consts  --      1.8309                 8.4154                 7.6318
 IR Inten    --    144.6574               111.3877                66.9368

                     64                     65                     66
                      A                      A                      A
 Frequencies --   1689.3361              3063.1434              3135.0015
 Red. masses --      6.4015                 1.0336                 1.1043
 Frc consts  --     10.7637                 5.7140                 6.3943
 IR Inten    --    271.1746                31.4008                12.3102

                     67                     68                     69
                      A                      A                      A
 Frequencies --   3165.4746              3188.5769              3197.9882
 Red. masses --      1.1048                 1.0885                 1.0884
 Frc consts  --      6.5223                 6.5204                 6.5580
 IR Inten    --     12.8218                12.3742                 2.1988

                     70                     71                     72
                      A                      A                      A
 Frequencies --   3208.4790              3222.7349              3276.4126
 Red. masses --      1.0931                 1.0981                 1.0921
 Frc consts  --      6.6297                 6.7197                 6.9072
 IR Inten    --     27.6375                22.3257                 5.3807

                     73                     74                     75
                      A                      A                      A
 Frequencies --   3499.7227              3604.2885              3632.8416
 Red. masses --      1.0526                 1.0955                 1.0767
 Frc consts  --      7.5958                 8.3853                 8.3722
 IR Inten    --     54.7303               111.7200                88.1487

 - Thermochemistry -
 -------------------
 Temperature   298.150 Kelvin.  Pressure   1.00000 Atm.
 Atom     1 has atomic number  6 and mass  12.00000

 Molecular mass:   323.94318 amu.
 Principal axes and moments of inertia in atomic units:
                           1         2         3
     Eigenvalues --  2399.02130********************
           X            0.99989  -0.01046  -0.01064
           Y            0.01113   0.99782   0.06508
           Z            0.00994  -0.06519   0.99782
 This molecule is an asymmetric top.
 Rotational symmetry number  1.
 Warning -- assumption of classical behavior for rotation
           may cause significant error
 Rotational temperatures (Kelvin)      0.03610     0.00764     0.00709
 Rotational constants (GHZ):           0.75228     0.15927     0.14775
    1 imaginary frequencies ignored.
 Zero-point vibrational energy     524773.5 (Joules/Mol)
                                  125.42388 (Kcal/Mol)
 Warning -- explicit consideration of  24 degrees of freedom as
           vibrations may cause significant error
 Vibrational temperatures:     21.15    41.66    84.48   107.56   118.79
          (Kelvin)            131.10   199.38   203.83   244.85   259.70
                              278.95   312.12   333.55   366.16   380.26
                              426.86   514.85   539.09   607.08   618.94
                              724.57   761.48   785.56   830.72   912.93
                              915.10  1033.85  1048.93  1101.21  1128.87
                             1134.98  1241.13  1260.12  1294.57  1347.79
                             1421.68  1443.25  1469.10  1469.37  1495.93
                             1527.91  1564.10  1571.05  1619.82  1702.81
                             1723.98  1740.62  1808.31  1830.51  1933.80
                             1936.94  1960.16  2028.70  2099.64  2133.84
                             2140.91  2159.13  2225.39  2264.26  2345.64
                             2392.25  2403.57  2430.58  4407.18  4510.57
                             4554.41  4587.65  4601.19  4616.29  4636.80
                             4714.03  5035.32  5185.77  5226.85

 Zero-point correction=                           0.199876 (Hartree/Particle)
 Thermal correction to Energy=                    0.216572
 Thermal correction to Enthalpy=                  0.217516
 Thermal correction to Gibbs Free Energy=         0.152156
 Sum of electronic and zero-point Energies=          -4066.837176
 Sum of electronic and thermal Energies=             -4066.820479
 Sum of electronic and thermal Enthalpies=           -4066.819535
 Sum of electronic and thermal Free Energies=        -4066.884896

                     E (Thermal)             CV                S
                      KCal/Mol        Cal/Mol-Kelvin    Cal/Mol-Kelvin
 Total                  135.901             59.134            137.563
 Electronic               0.000              0.000              0.000
 Translational            0.889              2.981             43.222
 Rotational               0.889              2.981             34.162
 Vibrational            134.124             53.172             60.180
 Vibration     1          0.593              1.986              7.246
 Vibration     2          0.593              1.984              5.900
 Vibration     3          0.596              1.974              4.500
 Vibration     4          0.599              1.966              4.024
 Vibration     5          0.600              1.961              3.829
 Vibration     6          0.602              1.955              3.636
 Vibration     7          0.614              1.915              2.823
 Vibration     8          0.615              1.912              2.781
 Vibration     9          0.625              1.879              2.433
 Vibration    10          0.629              1.866              2.323
 Vibration    11          0.635              1.848              2.190
 Vibration    12          0.646              1.815              1.985
 Vibration    13          0.653              1.792              1.865
 Vibration    14          0.665              1.755              1.699
 Vibration    15          0.671              1.738              1.633
 Vibration    16          0.690              1.680              1.436
 Vibration    17          0.733              1.559              1.131
 Vibration    18          0.746              1.524              1.061
 Vibration    19          0.784              1.423              0.885
 Vibration    20          0.791              1.405              0.858
 Vibration    21          0.859              1.242              0.649
 Vibration    22          0.884              1.185              0.589
 Vibration    23          0.901              1.148              0.553
 Vibration    24          0.934              1.080              0.490

 Optimization completed.
    -- Stationary point found.
 Normal termination of Gaussian 16 at Mon Feb 22 11:06:00 2021.
