 Gaussian 16, Revision A.03,
 Gaussian 16:  ES64L-G16RevA.03 25-Dec-2016

 ----------------------------------------------------------------------
 # wB97XD def2tzvp, opt=(ts, noeigen, calcfc, maxcycles=70, maxstep=8),
  freq=noraman, scrf=(iefpcm, solvent=water)
 ----------------------------------------------------------------------

 ------------------------
 1_iteration/TS-746-1.out
 ------------------------
 Symbolic Z-matrix:
 Charge =  0 Multiplicity = 1

 SCF Done:  E(RwB97XD) =  -8047.92624352     A.U. after   15 cycles
 SCF Done:  E(RwB97XD) =  -8047.92645415     A.U. after   12 cycles
 SCF Done:  E(RwB97XD) =  -8047.92647485     A.U. after   12 cycles
 SCF Done:  E(RwB97XD) =  -8047.92647718     A.U. after   10 cycles
 SCF Done:  E(RwB97XD) =  -8047.92647722     A.U. after   10 cycles
 SCF Done:  E(RwB97XD) =  -8047.92647729     A.U. after    7 cycles
 Optimization completed.
    -- Stationary point found.
 Normal termination of Gaussian 16 at Mon Feb 22 07:44:49 2021.

 ---------------------------------------------------------------------
 #N Geom=AllCheck Guess=TCheck SCRF=Check GenChk RwB97XD/def2TZVP Freq
 ---------------------------------------------------------------------

 Structure from the checkpoint file:  "/beegfs/scratch/user/q/tla25/Gau-1255.chk"
 ------------------------
 1_iteration/TS-746-1.out
 ------------------------
 Charge =  0 Multiplicity = 1

                         Standard orientation:
 ---------------------------------------------------------------------
 Center     Atomic      Atomic             Coordinates (Angstroms)
 Number     Number       Type             X           Y           Z
 ---------------------------------------------------------------------
      1          6           0        0.720483    0.577338   -0.135762
      2          6           0        1.002409    2.002078   -0.098352
      3          8           0        2.111019    2.438019   -0.389800
      4          6           0       -0.498572   -0.063815    0.070997
      5          6           0        0.200473   -0.348174    2.770575
      6          1           0        0.954330    0.391919    2.504088
      7          1           0       -0.040609   -0.250359    3.828217
      8          1           0        0.591775   -1.344562    2.576425
      9          7           0       -0.979783   -0.126661    1.944190
     10          1           0       -1.423708    0.758831    2.162334
     11          1           0       -1.674323   -0.857409    2.059518
     12         35           0       -0.622585   -1.953101   -0.289509
     13         35           0       -2.132110    0.768926   -0.576290
     14         35           0        2.301555   -0.478886   -0.352174
     15          6           0       -0.042664    3.007540    0.341419
     16          1           0       -0.742755    2.634343    1.084195
     17          1           0        0.491560    3.862377    0.751126
     18          1           0       -0.618815    3.344691   -0.521028
 ---------------------------------------------------------------------

 SCF Done:  E(RwB97XD) =  -8047.92647728     A.U. after    1 cycles

 The electronic state is 1-A.
 Alpha  occ. eigenvalues -- -483.15024-483.14866-483.12507 -62.69864 -62.69710
 Alpha  occ. eigenvalues --  -62.67338 -56.49011 -56.48852 -56.48616 -56.48594
 Alpha  occ. eigenvalues --  -56.48458 -56.48446 -56.46462 -56.46099 -56.46086
 Alpha  occ. eigenvalues --  -19.22105 -14.50483 -10.45638 -10.37595 -10.32730
 Alpha  occ. eigenvalues --  -10.32485 -10.28267  -8.83975  -8.83817  -8.81452
 Alpha  occ. eigenvalues --   -6.66219  -6.66047  -6.64962  -6.64897  -6.64798
 Alpha  occ. eigenvalues --   -6.64760  -6.63626  -6.62464  -6.62429  -2.76590
 Alpha  occ. eigenvalues --   -2.76417  -2.76240  -2.76189  -2.76067  -2.76036
 Alpha  occ. eigenvalues --   -2.75173  -2.75172  -2.75028  -2.75027  -2.74011
 Alpha  occ. eigenvalues --   -2.73676  -2.73649  -2.72709  -2.72709  -1.13364
 Alpha  occ. eigenvalues --   -1.05861  -0.97620  -0.90400  -0.88784  -0.84746
 Alpha  occ. eigenvalues --   -0.80428  -0.79926  -0.70884  -0.64910  -0.60484
 Alpha  occ. eigenvalues --   -0.58673  -0.57435  -0.55248  -0.54782  -0.52751
 Alpha  occ. eigenvalues --   -0.50111  -0.49479  -0.48748  -0.47875  -0.45127
 Alpha  occ. eigenvalues --   -0.44794  -0.41316  -0.39718  -0.39316  -0.38378
 Alpha  occ. eigenvalues --   -0.37705  -0.35714  -0.33162  -0.28998
 Alpha virt. eigenvalues --    0.00956   0.02085   0.03099   0.09634   0.11377
 Alpha virt. eigenvalues --    0.13380   0.14036   0.14360   0.15810   0.18144
 Alpha virt. eigenvalues --    0.18513   0.19396   0.20208   0.21233   0.22555

 Mulliken charges:
               1
     1  C   -0.238281
     2  C    0.230499
     3  O   -0.458396
     4  C    0.106622
     5  C   -0.291791
     6  H    0.161717
     7  H    0.170811
     8  H    0.165169
     9  N   -0.319624
    10  H    0.288128
    11  H    0.300588
    12  Br  -0.014695
    13  Br  -0.030028
    14  Br  -0.116253
    15  C   -0.362918
    16  H    0.107977
    17  H    0.141176
    18  H    0.159299
 Sum of Mulliken charges =   0.00000

 Dipole moment (field-independent basis, Debye):
    X=             -7.8523    Y=             -2.1607    Z=              7.4944  Tot=             11.0677
 Quadrupole moment (field-independent basis, Debye-Ang):
   XX=           -107.7831   YY=            -99.9550   ZZ=            -83.4364
   XY=            -10.9059   XZ=             -2.0762   YZ=              1.7456

  Exact polarizability: 218.052   8.282 205.320 -10.215  -7.947 160.675
 Approx polarizability: 177.505   4.212 166.625  -8.031  -5.290 138.243

 ******    1 imaginary frequencies (negative Signs) ******

                      1                      2                      3
                      A                      A                      A
 Frequencies --   -365.6087                45.9845                66.4197
 Red. masses --      5.8653                 8.2656                 5.2916
 Frc consts  --      0.4619                 0.0103                 0.0138
 IR Inten    --    805.6314                 0.2172                 6.6819

                      4                      5                      6
                      A                      A                      A
 Frequencies --     73.3429               118.9903               148.1013
 Red. masses --      3.1130                 4.8510                10.3094
 Frc consts  --      0.0099                 0.0405                 0.1332
 IR Inten    --      5.4668                 2.7342                 1.4808

                      7                      8                      9
                      A                      A                      A
 Frequencies --    158.0222               174.8068               184.9374
 Red. masses --      3.2585                 1.9158                 6.1374
 Frc consts  --      0.0479                 0.0345                 0.1237
 IR Inten    --      1.3913                 0.1011                 5.7071

                     10                     11                     12
                      A                      A                      A
 Frequencies --    204.0522               235.6065               257.8079
 Red. masses --      4.3998                 2.9646                 1.6581
 Frc consts  --      0.1079                 0.0970                 0.0649
 IR Inten    --      3.7864                 4.7280                 3.7604

                     13                     14                     15
                      A                      A                      A
 Frequencies --    270.9690               279.5711               316.2291
 Red. masses --      2.5374                 3.8542                 5.7084
 Frc consts  --      0.1098                 0.1775                 0.3363
 IR Inten    --      8.3576                15.5544                 5.1904

                     16                     17                     18
                      A                      A                      A
 Frequencies --    391.9372               486.8008               582.8481
 Red. masses --      3.9681                 6.1778                 3.8271
 Frc consts  --      0.3591                 0.8625                 0.7660
 IR Inten    --      3.7257                99.1214                44.9664

                     19                     20                     21
                      A                      A                      A
 Frequencies --    631.2264               656.8883               708.6255
 Red. masses --      2.7141                 1.5832                 9.3505
 Frc consts  --      0.6371                 0.4025                 2.7664
 IR Inten    --     26.9145                28.5435               199.8187

                     22                     23                     24
                      A                      A                      A
 Frequencies --    812.6743               910.2285              1000.8103
 Red. masses --      3.6794                 5.5144                 1.0779
 Frc consts  --      1.4317                 2.6918                 0.6361
 IR Inten    --    106.5823                 4.1413                 7.4743

                     25                     26                     27
                      A                      A                      A
 Frequencies --   1027.0138              1042.2293              1048.7652
 Red. masses --      1.4371                 1.5852                 1.3763
 Frc consts  --      0.8931                 1.0145                 0.8919
 IR Inten    --    132.1020                 3.0274               129.4969

                     28                     29                     30
                      A                      A                      A
 Frequencies --   1076.8218              1228.1683              1276.9434
 Red. masses --      5.1479                 1.4012                 4.6600
 Frc consts  --      3.5169                 1.2453                 4.4769
 IR Inten    --     54.1899                26.5667               381.4564

                     31                     32                     33
                      A                      A                      A
 Frequencies --   1337.0976              1355.7623              1394.4980
 Red. masses --      1.3768                 7.1602                 1.2562
 Frc consts  --      1.4502                 7.7543                 1.4393
 IR Inten    --     40.7093              1195.1995                49.5394

                     34                     35                     36
                      A                      A                      A
 Frequencies --   1456.6096              1467.5524              1490.0507
 Red. masses --      1.1932                 1.0722                 1.0407
 Frc consts  --      1.4916                 1.3605                 1.3614
 IR Inten    --      9.3024                 5.2094                23.7960

                     37                     38                     39
                      A                      A                      A
 Frequencies --   1497.5848              1502.9706              1642.0351
 Red. masses --      1.0353                 1.0632                 1.0906
 Frc consts  --      1.3681                 1.4151                 1.7326
 IR Inten    --     13.3844                28.1633                85.8797

                     40                     41                     42
                      A                      A                      A
 Frequencies --   1674.8597              3074.0574              3080.0154
 Red. masses --     10.6961                 1.0325                 1.0374
 Frc consts  --     17.6780                 5.7487                 5.7985
 IR Inten    --    620.6084                18.9596                 6.9809

                     43                     44                     45
                      A                      A                      A
 Frequencies --   3155.4830              3156.6017              3172.1700
 Red. masses --      1.1051                 1.0997                 1.1063
 Frc consts  --      6.4832                 6.4561                 6.5592
 IR Inten    --      6.7696                10.2646                 8.1449

                     46                     47                     48
                      A                      A                      A
 Frequencies --   3180.1607              3517.4391              3600.3780
 Red. masses --      1.1026                 1.0506                 1.0965
 Frc consts  --      6.5699                 7.6587                 8.3743
 IR Inten    --     31.8466                74.5421                64.0053

 - Thermochemistry -
 -------------------
 Temperature   298.150 Kelvin.  Pressure   1.00000 Atm.
 Atom     1 has atomic number  6 and mass  12.00000

 Molecular mass:   334.81560 amu.
 Principal axes and moments of inertia in atomic units:
                           1         2         3
     Eigenvalues --  3165.620494108.472755640.78941
           X            0.99897   0.04385  -0.01168
           Y           -0.04387   0.99904  -0.00125
           Z            0.01161   0.00176   0.99993
 This molecule is an asymmetric top.
 Rotational symmetry number  1.
 Warning -- assumption of classical behavior for rotation
           may cause significant error
 Rotational temperatures (Kelvin)      0.02736     0.02108     0.01535
 Rotational constants (GHZ):           0.57011     0.43927     0.31994
    1 imaginary frequencies ignored.
 Zero-point vibrational energy     335984.1 (Joules/Mol)
                                   80.30212 (Kcal/Mol)
 Warning -- explicit consideration of  17 degrees of freedom as
           vibrations may cause significant error
 Vibrational temperatures:     66.16    95.56   105.52   171.20   213.08
          (Kelvin)            227.36   251.51   266.08   293.59   338.99
                              370.93   389.86   402.24   454.98   563.91
                              700.40   838.59   908.19   945.12  1019.55
                             1169.26  1309.62  1439.94  1477.64  1499.54
                             1508.94  1549.31  1767.06  1837.24  1923.79
                             1950.64  2006.37  2095.74  2111.48  2143.85
                             2154.69  2162.44  2362.52  2409.75  4422.88
                             4431.46  4540.04  4541.65  4564.05  4575.54
                             5060.81  5180.14

 Zero-point correction=                           0.127970 (Hartree/Particle)
 Thermal correction to Energy=                    0.140711
 Thermal correction to Enthalpy=                  0.141656
 Thermal correction to Gibbs Free Energy=         0.086277
 Sum of electronic and zero-point Energies=          -8047.798508
 Sum of electronic and thermal Energies=             -8047.785766
 Sum of electronic and thermal Enthalpies=           -8047.784822
 Sum of electronic and thermal Free Energies=        -8047.840201

                     E (Thermal)             CV                S
                      KCal/Mol        Cal/Mol-Kelvin    Cal/Mol-Kelvin
 Total                   88.298             42.317            116.555
 Electronic               0.000              0.000              0.000
 Translational            0.889              2.981             43.320
 Rotational               0.889              2.981             32.662
 Vibrational             86.520             36.355             40.573
 Vibration     1          0.595              1.979              4.983
 Vibration     2          0.598              1.970              4.257
 Vibration     3          0.599              1.967              4.062
 Vibration     4          0.609              1.933              3.117
 Vibration     5          0.617              1.905              2.696
 Vibration     6          0.621              1.894              2.573
 Vibration     7          0.627              1.873              2.383
 Vibration     8          0.631              1.860              2.278
 Vibration     9          0.640              1.834              2.096
 Vibration    10          0.655              1.786              1.836
 Vibration    11          0.667              1.750              1.677
 Vibration    12          0.675              1.727              1.590
 Vibration    13          0.680              1.711              1.536
 Vibration    14          0.703              1.643              1.330
 Vibration    15          0.759              1.487              0.993
 Vibration    16          0.843              1.279              0.692
 Vibration    17          0.940              1.068              0.480

 Optimization completed.
    -- Stationary point found.
 Normal termination of Gaussian 16 at Mon Feb 22 08:04:52 2021.
