 Gaussian 16, Revision A.03,
 Gaussian 16:  ES64L-G16RevA.03 25-Dec-2016

 ----------------------------------------------------------------------
 # wB97XD def2tzvp, opt=(ts, noeigen, calcfc, maxcycles=70, maxstep=8),
  freq=noraman, scrf=(iefpcm, solvent=water)
 ----------------------------------------------------------------------

 ------------------------
 1_iteration/TS-765-1.out
 ------------------------
 Symbolic Z-matrix:
 Charge =  0 Multiplicity = 1

 SCF Done:  E(RwB97XD) =  -3646.73955275     A.U. after   15 cycles
 SCF Done:  E(RwB97XD) =  -3646.73955296     A.U. after    8 cycles
 Optimization completed.
    -- Stationary point found.
 Normal termination of Gaussian 16 at Mon Mar 29 07:06:17 2021.

 ---------------------------------------------------------------------
 #N Geom=AllCheck Guess=TCheck SCRF=Check GenChk RwB97XD/def2TZVP Freq
 ---------------------------------------------------------------------

 Structure from the checkpoint file:  "/beegfs/scratch/user/q/tla25/Gau-43173.chk"
 ------------------------
 1_iteration/TS-765-1.out
 ------------------------
 Charge =  0 Multiplicity = 1

                         Standard orientation:
 ---------------------------------------------------------------------
 Center     Atomic      Atomic             Coordinates (Angstroms)
 Number     Number       Type             X           Y           Z
 ---------------------------------------------------------------------
      1          6           0       -0.201530    0.559512   -0.189263
      2          6           0       -0.952831    1.814929   -0.138653
      3          8           0       -0.380236    2.898444    0.010142
      4          6           0       -0.788165   -0.691082   -0.181428
      5          6           0       -1.138509   -0.544017    2.567590
      6          1           0       -0.868198    0.502194    2.434779
      7          1           0       -1.775799   -0.641706    3.445155
      8          1           0       -0.236179   -1.136805    2.704189
      9          7           0       -1.833945   -0.992501    1.369798
     10          1           0       -2.686544   -0.461748    1.226618
     11          1           0       -2.071539   -1.978173    1.400617
     12         35           0        0.381994   -2.216640   -0.102353
     13         17           0       -2.145927   -1.109212   -1.337988
     14          6           0        1.284366    0.708616   -0.116567
     15          6           0        1.951909    0.891638    1.091803
     16          6           0        3.330709    1.036317    1.131948
     17          6           0        4.069488    1.005150   -0.042821
     18          6           0        3.417612    0.834341   -1.255522
     19          6           0        2.037801    0.691471   -1.288272
     20          1           0        1.385636    0.918637    2.014029
     21          1           0        3.829841    1.172740    2.083459
     22          1           0        5.146280    1.115495   -0.012847
     23          1           0        3.983775    0.812193   -2.178599
     24          1           0        1.531011    0.555853   -2.236407
     25          7           0       -2.321921    1.777413   -0.179532
     26          6           0       -3.077295    3.011727   -0.199951
     27          1           0       -2.747785    0.995587   -0.646393
     28          1           0       -2.857952    3.619089   -1.082515
     29          1           0       -4.137599    2.766123   -0.194566
     30          1           0       -2.852335    3.605968    0.684468
 ---------------------------------------------------------------------

 SCF Done:  E(RwB97XD) =  -3646.73955296     A.U. after    1 cycles

 The electronic state is 1-A.
 Alpha  occ. eigenvalues -- -483.14517-101.70728 -62.69349 -56.48486 -56.48106
 Alpha  occ. eigenvalues --  -56.48088 -19.20216 -14.50443 -14.44602 -10.44913
 Alpha  occ. eigenvalues --  -10.38022 -10.32380 -10.30526 -10.29873 -10.28693
 Alpha  occ. eigenvalues --  -10.28653 -10.28609 -10.28406 -10.28371 -10.27553
 Alpha  occ. eigenvalues --   -9.59331  -8.83450  -7.33951  -7.33121  -7.33086
 Alpha  occ. eigenvalues --   -6.65661  -6.64449  -6.64398  -2.76039  -2.75697
 Alpha  occ. eigenvalues --   -2.75657  -2.74677  -2.74677  -1.13046  -1.06138
 Alpha  occ. eigenvalues --   -1.01356  -0.98459  -0.96127  -0.90696  -0.87715
 Alpha  occ. eigenvalues --   -0.84659  -0.82976  -0.79938  -0.78681  -0.71034
 Alpha  occ. eigenvalues --   -0.69978  -0.68448  -0.65892  -0.64670  -0.61674
 Alpha  occ. eigenvalues --   -0.59496  -0.58629  -0.56404  -0.55715  -0.53988
 Alpha  occ. eigenvalues --   -0.53812  -0.53150  -0.51870  -0.50901  -0.50470
 Alpha  occ. eigenvalues --   -0.49224  -0.48613  -0.47741  -0.47010  -0.46092
 Alpha  occ. eigenvalues --   -0.45884  -0.42667  -0.42361  -0.41792  -0.40433
 Alpha  occ. eigenvalues --   -0.38593  -0.38013  -0.34664  -0.33783  -0.33148
 Alpha  occ. eigenvalues --   -0.32338  -0.28257
 Alpha virt. eigenvalues --    0.02549   0.04695   0.05494   0.05988   0.07354
 Alpha virt. eigenvalues --    0.10155   0.12839   0.13311   0.14390   0.15672
 Alpha virt. eigenvalues --    0.15993   0.16457   0.16917   0.17877   0.18217

 Mulliken charges:
               1
     1  C   -0.284783
     2  C    0.307652
     3  O   -0.527419
     4  C    0.082657
     5  C   -0.314433
     6  H    0.161755
     7  H    0.174250
     8  H    0.167360
     9  N   -0.286279
    10  H    0.284979
    11  H    0.299787
    12  Br  -0.032347
    13  Cl  -0.111645
    14  C    0.267951
    15  C   -0.228383
    16  C   -0.166005
    17  C   -0.132804
    18  C   -0.157676
    19  C   -0.234306
    20  H    0.141344
    21  H    0.137859
    22  H    0.141882
    23  H    0.138311
    24  H    0.135477
    25  N   -0.337714
    26  C   -0.262270
    27  H    0.239639
    28  H    0.123806
    29  H    0.139129
    30  H    0.132226
 Sum of Mulliken charges =  -0.00000

 Dipole moment (field-independent basis, Debye):
    X=             -5.8505    Y=             -5.9007    Z=              4.5580  Tot=              9.4775
 Quadrupole moment (field-independent basis, Debye-Ang):
   XX=            -92.9130   YY=           -130.3953   ZZ=           -101.8901
   XY=             -0.6359   XZ=             -7.0674   YZ=             -5.4799

  Exact polarizability: 285.757   9.559 247.930   2.028  -0.253 239.195
 Approx polarizability: 227.248   8.577 200.792   2.373   1.983 205.178

 ******    1 imaginary frequencies (negative Signs) ******

                      1                      2                      3
                      A                      A                      A
 Frequencies --   -397.2548                32.1907                49.8398
 Red. masses --      5.6516                 3.7881                 5.0716
 Frc consts  --      0.5255                 0.0023                 0.0074
 IR Inten    --    534.8565                 0.5986                 6.2040

                      4                      5                      6
                      A                      A                      A
 Frequencies --     62.1645                65.4836                80.1176
 Red. masses --      3.5680                 5.8865                 4.5810
 Frc consts  --      0.0081                 0.0149                 0.0173
 IR Inten    --      9.1325                 3.7445                 4.0816

                      7                      8                      9
                      A                      A                      A
 Frequencies --     99.6897               127.8451               145.8771
 Red. masses --      2.7227                 3.9384                 1.4536
 Frc consts  --      0.0159                 0.0379                 0.0182
 IR Inten    --      4.3515                 5.9773                 3.0221

                     10                     11                     12
                      A                      A                      A
 Frequencies --    149.9159               176.7953               183.9554
 Red. masses --      1.4636                 2.2583                 3.9420
 Frc consts  --      0.0194                 0.0416                 0.0786
 IR Inten    --      1.5665                 2.5389                15.0179

                     13                     14                     15
                      A                      A                      A
 Frequencies --    211.5979               213.0985               242.1677
 Red. masses --      5.3111                 4.0136                 4.4960
 Frc consts  --      0.1401                 0.1074                 0.1553
 IR Inten    --      0.7296                 6.3555                 2.4150

                     16                     17                     18
                      A                      A                      A
 Frequencies --    267.4232               283.0165               289.8309
 Red. masses --      4.9516                 4.4087                 5.5096
 Frc consts  --      0.2086                 0.2081                 0.2727
 IR Inten    --     19.6999                12.5468                 6.0152

                     19                     20                     21
                      A                      A                      A
 Frequencies --    337.6606               373.7759               404.6998
 Red. masses --      8.0124                 5.1720                 5.6723
 Frc consts  --      0.5382                 0.4257                 0.5474
 IR Inten    --     39.1486                42.8088                20.0543

                     22                     23                     24
                      A                      A                      A
 Frequencies --    423.2916               519.9080               525.8086
 Red. masses --      2.8596                 2.9021                 1.7697
 Frc consts  --      0.3019                 0.4622                 0.2883
 IR Inten    --      0.0746                23.0935                52.9998

                     25                     26                     27
                      A                      A                      A
 Frequencies --    563.8714               630.0088               639.7516
 Red. masses --      3.4939                 6.1600                 4.2760
 Frc consts  --      0.6545                 1.4405                 1.0311
 IR Inten    --    209.0351               142.5123                12.5987

                     28                     29                     30
                      A                      A                      A
 Frequencies --    653.1883               717.8349               727.5689
 Red. masses --      2.2441                 4.0536                 1.4849
 Frc consts  --      0.5641                 1.2307                 0.4631
 IR Inten    --     13.2441                63.4961               201.4014

                     31                     32                     33
                      A                      A                      A
 Frequencies --    764.9444               796.0338               813.8039
 Red. masses --      2.8055                 6.5383                 2.6548
 Frc consts  --      0.9672                 2.4410                 1.0359
 IR Inten    --    121.6009                42.5969                24.3975

                     34                     35                     36
                      A                      A                      A
 Frequencies --    875.6682               880.2430               947.0629
 Red. masses --      1.2501                 4.0514                 1.7394
 Frc consts  --      0.5648                 1.8495                 0.9192
 IR Inten    --      0.1785                61.8534                 1.0200

                     37                     38                     39
                      A                      A                      A
 Frequencies --    975.0907              1009.7338              1015.0984
 Red. masses --      2.7227                 1.3751                 1.1227
 Frc consts  --      1.5253                 0.8260                 0.6816
 IR Inten    --      9.7864                 0.3917                19.6971

                     40                     41                     42
                      A                      A                      A
 Frequencies --   1026.1668              1027.5280              1055.2994
 Red. masses --      1.3054                 6.1431                 1.1720
 Frc consts  --      0.8099                 3.8215                 0.7690
 IR Inten    --      0.1701                 1.0335                55.1423

                     43                     44                     45
                      A                      A                      A
 Frequencies --   1062.0593              1088.9678              1108.4938
 Red. masses --      2.1597                 4.5091                 1.5477
 Frc consts  --      1.4353                 3.1504                 1.1204
 IR Inten    --      8.1813                61.4668                14.0072

                     46                     47                     48
                      A                      A                      A
 Frequencies --   1129.5049              1151.0628              1180.7236
 Red. masses --      3.0673                 1.3916                 1.1389
 Frc consts  --      2.3056                 1.0863                 0.9355
 IR Inten    --     13.0888                 6.4477                 1.1842

                     49                     50                     51
                      A                      A                      A
 Frequencies --   1181.6306              1205.7726              1234.2576
 Red. masses --      1.7165                 1.1197                 1.4004
 Frc consts  --      1.4121                 0.9592                 1.2569
 IR Inten    --     80.2938                 0.3658                41.2941

                     52                     53                     54
                      A                      A                      A
 Frequencies --   1260.4977              1306.3045              1307.1908
 Red. masses --      3.1159                 4.2607                 4.4742
 Frc consts  --      2.9168                 4.2837                 4.5044
 IR Inten    --     59.4468               808.1877               123.2329

                     55                     56                     57
                      A                      A                      A
 Frequencies --   1348.3237              1355.3946              1434.9032
 Red. masses --      1.3330                 1.4474                 2.9023
 Frc consts  --      1.4278                 1.5666                 3.5207
 IR Inten    --     16.9845                 1.3282               396.7770

                     58                     59                     60
                      A                      A                      A
 Frequencies --   1456.0470              1462.6823              1478.0820
 Red. masses --      1.2035                 1.4614                 1.0593
 Frc consts  --      1.5034                 1.8421                 1.3635
 IR Inten    --     18.7242                92.8906                25.4076

                     61                     62                     63
                      A                      A                      A
 Frequencies --   1486.6337              1495.2765              1497.8134
 Red. masses --      2.1783                 1.0445                 1.0402
 Frc consts  --      2.8364                 1.3759                 1.3749
 IR Inten    --      7.1441                40.1054                19.0780

                     64                     65                     66
                      A                      A                      A
 Frequencies --   1501.9427              1544.9787              1557.5060
 Red. masses --      1.0786                 2.4263                 1.7239
 Frc consts  --      1.4336                 3.4122                 2.4639
 IR Inten    --      9.4281                27.5151               471.2192

                     67                     68                     69
                      A                      A                      A
 Frequencies --   1630.0918              1646.2383              1657.0429
 Red. masses --      1.1159                 5.7574                 6.6550
 Frc consts  --      1.7471                 9.1931                10.7664
 IR Inten    --    143.2762                 2.0588               599.1588

                     70                     71                     72
                      A                      A                      A
 Frequencies --   1672.8734              3043.3150              3078.6207
 Red. masses --      6.0864                 1.0431                 1.0324
 Frc consts  --     10.0354                 5.6922                 5.7649
 IR Inten    --    112.2204                89.9484                20.1860

                     73                     74                     75
                      A                      A                      A
 Frequencies --   3119.2504              3158.7574              3162.8992
 Red. masses --      1.0934                 1.1043                 1.1051
 Frc consts  --      6.2680                 6.4918                 6.5136
 IR Inten    --     38.7429                23.6257                 6.6921

                     76                     77                     78
                      A                      A                      A
 Frequencies --   3173.6714              3188.5936              3194.3550
 Red. masses --      1.1063                 1.0859                 1.0881
 Frc consts  --      6.5649                 6.5052                 6.5418
 IR Inten    --      8.1707                 4.5569                 0.6006

                     79                     80                     81
                      A                      A                      A
 Frequencies --   3203.9329              3212.5320              3220.4031
 Red. masses --      1.0922                 1.0945                 1.0982
 Frc consts  --      6.6058                 6.6552                 6.7103
 IR Inten    --     26.2205                46.2838                14.7851

                     82                     83                     84
                      A                      A                      A
 Frequencies --   3514.7836              3599.3663              3644.7247
 Red. masses --      1.0507                 1.0971                 1.0767
 Frc consts  --      7.6476                 8.3743                 8.4272
 IR Inten    --     66.3967                77.1277               109.1853

 - Thermochemistry -
 -------------------
 Temperature   298.150 Kelvin.  Pressure   1.00000 Atm.
 Atom     1 has atomic number  6 and mass  12.00000

 Molecular mass:   303.99780 amu.
 Principal axes and moments of inertia in atomic units:
                           1         2         3
     Eigenvalues --  4174.941275141.238667260.84155
           X            0.99936  -0.03121  -0.01753
           Y            0.03089   0.99936  -0.01810
           Z            0.01808   0.01754   0.99968
 This molecule is an asymmetric top.
 Rotational symmetry number  1.
 Warning -- assumption of classical behavior for rotation
           may cause significant error
 Rotational temperatures (Kelvin)      0.02075     0.01685     0.01193
 Rotational constants (GHZ):           0.43228     0.35103     0.24856
    1 imaginary frequencies ignored.
 Zero-point vibrational energy     624107.1 (Joules/Mol)
                                  149.16517 (Kcal/Mol)
 Warning -- explicit consideration of  24 degrees of freedom as
           vibrations may cause significant error
 Vibrational temperatures:     46.32    71.71    89.44    94.22   115.27
          (Kelvin)            143.43   183.94   209.88   215.70   254.37
                              264.67   304.44   306.60   348.43   384.76
                              407.20   417.00   485.82   537.78   582.27
                              609.02   748.03   756.52   811.29   906.44
                              920.46   939.79  1032.80  1046.81  1100.58
                             1145.32  1170.88  1259.89  1266.47  1362.61
                             1402.94  1452.78  1460.50  1476.43  1478.38
                             1518.34  1528.07  1566.78  1594.88  1625.11
                             1656.12  1698.80  1700.10  1734.84  1775.82
                             1813.58  1879.48  1880.76  1939.94  1950.11
                             2064.51  2094.93  2104.47  2126.63  2138.93
                             2151.37  2155.02  2160.96  2222.88  2240.90
                             2345.34  2368.57  2384.12  2406.89  4378.65
                             4429.45  4487.91  4544.75  4550.71  4566.21
                             4587.68  4595.96  4609.74  4622.12  4633.44
                             5056.99  5178.69  5243.95

 Zero-point correction=                           0.237710 (Hartree/Particle)
 Thermal correction to Energy=                    0.254891
 Thermal correction to Enthalpy=                  0.255835
 Thermal correction to Gibbs Free Energy=         0.191061
 Sum of electronic and zero-point Energies=          -3646.501843
 Sum of electronic and thermal Energies=             -3646.484662
 Sum of electronic and thermal Enthalpies=           -3646.483718
 Sum of electronic and thermal Free Energies=        -3646.548491

                     E (Thermal)             CV                S
                      KCal/Mol        Cal/Mol-Kelvin    Cal/Mol-Kelvin
 Total                  159.946             61.220            136.327
 Electronic               0.000              0.000              0.000
 Translational            0.889              2.981             43.032
 Rotational               0.889              2.981             33.410
 Vibrational            158.169             55.259             59.885
 Vibration     1          0.594              1.983              5.690
 Vibration     2          0.595              1.978              4.824
 Vibration     3          0.597              1.972              4.387
 Vibration     4          0.597              1.971              4.285
 Vibration     5          0.600              1.963              3.888
 Vibration     6          0.604              1.949              3.460
 Vibration     7          0.611              1.925              2.978
 Vibration     8          0.617              1.907              2.725
 Vibration     9          0.618              1.903              2.673
 Vibration    10          0.628              1.871              2.362
 Vibration    11          0.631              1.862              2.288
 Vibration    12          0.643              1.823              2.030
 Vibration    13          0.644              1.821              2.017
 Vibration    14          0.658              1.776              1.787
 Vibration    15          0.673              1.733              1.613
 Vibration    16          0.682              1.705              1.515
 Vibration    17          0.686              1.693              1.475
 Vibration    18          0.718              1.600              1.223
 Vibration    19          0.745              1.526              1.064
 Vibration    20          0.770              1.460              0.946
 Vibration    21          0.785              1.420              0.881
 Vibration    22          0.875              1.206              0.610
 Vibration    23          0.881              1.193              0.597
 Vibration    24          0.920              1.109              0.516

 Optimization completed.
    -- Stationary point found.
 Normal termination of Gaussian 16 at Mon Mar 29 08:37:54 2021.
