 Gaussian 16, Revision A.03,
 Gaussian 16:  ES64L-G16RevA.03 25-Dec-2016

 ----------------------------------------------------------------------
 # wB97XD def2tzvp, opt=(ts, noeigen, calcfc, maxcycles=70, maxstep=8),
  freq=noraman, scrf=(iefpcm, solvent=water)
 ----------------------------------------------------------------------

 ------------------------
 1_iteration/TS-780-1.out
 ------------------------
 Symbolic Z-matrix:
 Charge =  0 Multiplicity = 1

 SCF Done:  E(RwB97XD) =  -3474.86919111     A.U. after   15 cycles
 SCF Done:  E(RwB97XD) =  -3474.87082424     A.U. after   13 cycles
 SCF Done:  E(RwB97XD) =  -3474.87158319     A.U. after   13 cycles
 SCF Done:  E(RwB97XD) =  -3474.87180045     A.U. after   13 cycles
 SCF Done:  E(RwB97XD) =  -3474.87193919     A.U. after   12 cycles
 SCF Done:  E(RwB97XD) =  -3474.87193606     A.U. after   12 cycles
 SCF Done:  E(RwB97XD) =  -3474.87222606     A.U. after   12 cycles
 SCF Done:  E(RwB97XD) =  -3474.87259201     A.U. after   12 cycles
 SCF Done:  E(RwB97XD) =  -3474.87271770     A.U. after   12 cycles
 SCF Done:  E(RwB97XD) =  -3474.87280071     A.U. after   12 cycles
 SCF Done:  E(RwB97XD) =  -3474.87281012     A.U. after   10 cycles
 SCF Done:  E(RwB97XD) =  -3474.87281011     A.U. after   10 cycles
 SCF Done:  E(RwB97XD) =  -3474.87281280     A.U. after   10 cycles
 SCF Done:  E(RwB97XD) =  -3474.87281282     A.U. after    7 cycles
 Optimization completed.
    -- Stationary point found.
 Normal termination of Gaussian 16 at Mon Feb 22 05:14:44 2021.

 ---------------------------------------------------------------------
 #N Geom=AllCheck Guess=TCheck SCRF=Check GenChk RwB97XD/def2TZVP Freq
 ---------------------------------------------------------------------

 Structure from the checkpoint file:  "/beegfs/scratch/user/q/tla25/Gau-75409.chk"
 ------------------------
 1_iteration/TS-780-1.out
 ------------------------
 Charge =  0 Multiplicity = 1

                         Standard orientation:
 ---------------------------------------------------------------------
 Center     Atomic      Atomic             Coordinates (Angstroms)
 Number     Number       Type             X           Y           Z
 ---------------------------------------------------------------------
      1          6           0       -0.457472    0.921637   -0.240406
      2          6           0       -1.891585    0.758724   -0.240846
      3          8           0       -2.708019    1.643416   -0.442308
      4          6           0        0.384446   -0.179084   -0.209694
      5          6           0        0.255331   -0.232824    2.580337
      6          1           0       -0.377694    0.624600    2.346023
      7          1           0       -0.119049   -0.716589    3.481664
      8          1           0        1.274891    0.107680    2.747333
      9          7           0        0.225733   -1.138186    1.442231
     10          1           0       -0.689491   -1.560723    1.326594
     11          1           0        0.927731   -1.867559    1.494103
     12         35           0        2.276092    0.190682   -0.211935
     13         17           0        0.086057   -1.607389   -1.253544
     14          6           0        0.061190    2.338645   -0.166134
     15          1           0        0.648653    2.524847    0.735922
     16          1           0        0.684348    2.601275   -1.024215
     17          1           0       -0.789643    3.016716   -0.154566
     18          8           0       -2.297948   -0.497024    0.069498
     19          6           0       -3.697902   -0.743319    0.037241
     20          1           0       -4.107379   -0.530677   -0.950234
     21          1           0       -3.818135   -1.798214    0.270346
     22          1           0       -4.216864   -0.136122    0.778856
 ---------------------------------------------------------------------

 SCF Done:  E(RwB97XD) =  -3474.87281282     A.U. after    1 cycles

 The electronic state is 1-A.
 Alpha  occ. eigenvalues -- -483.14221-101.70230 -62.69068 -56.48197 -56.47826
 Alpha  occ. eigenvalues --  -56.47809 -19.28768 -19.21717 -14.49323 -10.44331
 Alpha  occ. eigenvalues --  -10.40170 -10.32884 -10.31933 -10.27535 -10.27290
 Alpha  occ. eigenvalues --   -9.58819  -8.83179  -7.33481  -7.32585  -7.32558
 Alpha  occ. eigenvalues --   -6.65371  -6.64189  -6.64137  -2.75753  -2.75419
 Alpha  occ. eigenvalues --   -2.75379  -2.74423  -2.74422  -1.20104  -1.10410
 Alpha  occ. eigenvalues --   -1.05169  -0.98395  -0.90501  -0.87765  -0.81938
 Alpha  occ. eigenvalues --   -0.79344  -0.76596  -0.69517  -0.64538  -0.63291
 Alpha  occ. eigenvalues --   -0.59557  -0.58280  -0.57018  -0.56574  -0.54820
 Alpha  occ. eigenvalues --   -0.52048  -0.51831  -0.49625  -0.48421  -0.47435
 Alpha  occ. eigenvalues --   -0.46998  -0.46058  -0.45423  -0.44333  -0.41242
 Alpha  occ. eigenvalues --   -0.39809  -0.38478  -0.37958  -0.37201  -0.35518
 Alpha  occ. eigenvalues --   -0.27880
 Alpha virt. eigenvalues --    0.03462   0.04638   0.08238   0.10416   0.13261
 Alpha virt. eigenvalues --    0.13654   0.15856   0.16046   0.16481   0.16998
 Alpha virt. eigenvalues --    0.18506   0.20024   0.20249   0.20859   0.21371

 Mulliken charges:
               1
     1  C   -0.356324
     2  C    0.424353
     3  O   -0.495068
     4  C    0.219282
     5  C   -0.299962
     6  H    0.157893
     7  H    0.163620
     8  H    0.160093
     9  N   -0.322246
    10  H    0.287929
    11  H    0.293257
    12  Br  -0.052113
    13  Cl  -0.088115
    14  C   -0.369127
    15  H    0.128958
    16  H    0.129274
    17  H    0.135891
    18  O   -0.320945
    19  C   -0.197555
    20  H    0.131616
    21  H    0.139671
    22  H    0.129616
 Sum of Mulliken charges =  -0.00000

 Dipole moment (field-independent basis, Debye):
    X=              2.0481    Y=             -5.1855    Z=              6.0714  Tot=              8.2430
 Quadrupole moment (field-independent basis, Debye-Ang):
   XX=            -88.0637   YY=            -87.1792   ZZ=            -78.3589
   XY=             11.2000   XZ=             -1.0902   YZ=             -3.4634

  Exact polarizability: 200.162 -11.045 173.192   8.313  -5.770 150.424
 Approx polarizability: 155.914  -8.136 146.709   5.951  -3.970 127.053

 ******    1 imaginary frequencies (negative Signs) ******

                      1                      2                      3
                      A                      A                      A
 Frequencies --   -381.8887                60.3521                73.8890
 Red. masses --      5.9575                 3.5390                 5.2777
 Frc consts  --      0.5119                 0.0076                 0.0170
 IR Inten    --    729.1526                 2.2008                 3.2606

                      4                      5                      6
                      A                      A                      A
 Frequencies --     98.8768               116.8822               130.2166
 Red. masses --      2.9267                 3.4244                 3.2414
 Frc consts  --      0.0169                 0.0276                 0.0324
 IR Inten    --      2.2461                10.8877                 2.6384

                      7                      8                      9
                      A                      A                      A
 Frequencies --    151.0157               160.5410               171.0406
 Red. masses --      1.1322                 1.2696                 1.2704
 Frc consts  --      0.0152                 0.0193                 0.0219
 IR Inten    --      1.0322                 1.1058                 2.3329

                     10                     11                     12
                      A                      A                      A
 Frequencies --    187.4401               201.4455               215.1858
 Red. masses --      2.5576                 5.1783                 4.4884
 Frc consts  --      0.0529                 0.1238                 0.1225
 IR Inten    --      4.9536                 3.3228                 1.8137

                     13                     14                     15
                      A                      A                      A
 Frequencies --    249.1895               262.2187               313.8252
 Red. masses --      6.0525                 4.1027                 3.6565
 Frc consts  --      0.2214                 0.1662                 0.2122
 IR Inten    --     11.4018                 2.3037                16.7939

                     16                     17                     18
                      A                      A                      A
 Frequencies --    323.3107               363.7800               405.7602
 Red. masses --      3.8296                 4.3897                 9.7684
 Frc consts  --      0.2359                 0.3423                 0.9476
 IR Inten    --     25.8836                21.7824                22.3129

                     19                     20                     21
                      A                      A                      A
 Frequencies --    466.3783               567.0051               645.0069
 Red. masses --      6.0264                 4.3818                 2.1283
 Frc consts  --      0.7723                 0.8300                 0.5217
 IR Inten    --     82.6533                66.8243                 3.3800

                     22                     23                     24
                      A                      A                      A
 Frequencies --    737.3286               786.4336               797.2647
 Red. masses --      2.4253                 5.8928                 7.3260
 Frc consts  --      0.7768                 2.1473                 2.7436
 IR Inten    --     67.3869                98.0142               122.2702

                     25                     26                     27
                      A                      A                      A
 Frequencies --    876.7988               990.2714              1019.7345
 Red. masses --      4.1978                 1.6535                 1.6625
 Frc consts  --      1.9014                 0.9553                 1.0185
 IR Inten    --     66.1989               136.1025               118.4313

                     28                     29                     30
                      A                      A                      A
 Frequencies --   1050.1163              1055.3761              1071.9165
 Red. masses --      1.7428                 1.2584                 1.3643
 Frc consts  --      1.1323                 0.8258                 0.9236
 IR Inten    --     99.6972                77.3440                 7.6635

                     31                     32                     33
                      A                      A                      A
 Frequencies --   1088.5638              1172.3386              1182.7679
 Red. masses --      4.9336                 5.6327                 1.2947
 Frc consts  --      3.4445                 4.5612                 1.0671
 IR Inten    --     45.7885               319.2325                 5.8548

                     34                     35                     36
                      A                      A                      A
 Frequencies --   1216.6963              1217.7654              1330.1881
 Red. masses --      1.4224                 1.5724                 4.1702
 Frc consts  --      1.2406                 1.3738                 4.3474
 IR Inten    --     55.1649               114.8833               717.2187

                     37                     38                     39
                      A                      A                      A
 Frequencies --   1348.2074              1403.2963              1429.5289
 Red. masses --      1.3745                 1.6313                 2.2742
 Frc consts  --      1.4720                 1.8927                 2.7382
 IR Inten    --     53.1387                81.0887               540.7110

                     40                     41                     42
                      A                      A                      A
 Frequencies --   1459.3267              1480.2749              1482.4365
 Red. masses --      1.3202                 1.2124                 1.0595
 Frc consts  --      1.6566                 1.5652                 1.3719
 IR Inten    --     61.1717                40.0340                12.1110

                     43                     44                     45
                      A                      A                      A
 Frequencies --   1488.6256              1491.8818              1495.3481
 Red. masses --      1.0493                 1.0471                 1.0511
 Frc consts  --      1.3700                 1.3731                 1.3848
 IR Inten    --     29.1540                13.9835                60.9529

                     46                     47                     48
                      A                      A                      A
 Frequencies --   1497.1106              1501.3576              1637.0765
 Red. masses --      1.0630                 1.0527                 1.0968
 Frc consts  --      1.4038                 1.3980                 1.7319
 IR Inten    --     34.1749                45.8532                95.7813

                     49                     50                     51
                      A                      A                      A
 Frequencies --   1700.2167              3042.6483              3064.8415
 Red. masses --     10.3938                 1.0389                 1.0306
 Frc consts  --     17.7025                 5.6667                 5.7039
 IR Inten    --   1046.7883                69.9385                58.8344

                     52                     53                     54
                      A                      A                      A
 Frequencies --   3066.7473              3095.7914              3141.8659
 Red. masses --      1.0337                 1.1026                 1.1069
 Frc consts  --      5.7282                 6.2263                 6.4378
 IR Inten    --     28.1826                38.8133                35.3455

                     55                     56                     57
                      A                      A                      A
 Frequencies --   3144.0286              3152.0758              3170.0885
 Red. masses --      1.1034                 1.0975                 1.1056
 Frc consts  --      6.4263                 6.4245                 6.5462
 IR Inten    --      7.4918                 9.5620                10.5220

                     58                     59                     60
                      A                      A                      A
 Frequencies --   3173.6346              3515.6199              3606.6946
 Red. masses --      1.1056                 1.0503                 1.0975
 Frc consts  --      6.5611                 7.6486                 8.4116
 IR Inten    --     22.1609                56.8556                91.5333

 - Thermochemistry -
 -------------------
 Temperature   298.150 Kelvin.  Pressure   1.00000 Atm.
 Atom     1 has atomic number  6 and mass  12.00000

 Molecular mass:   242.96617 amu.
 Principal axes and moments of inertia in atomic units:
                           1         2         3
     Eigenvalues --  1737.169733849.716664130.83898
           X            0.99992   0.01075   0.00613
           Y           -0.01004   0.99428  -0.10637
           Z           -0.00724   0.10630   0.99431
 This molecule is an asymmetric top.
 Rotational symmetry number  1.
 Warning -- assumption of classical behavior for rotation
           may cause significant error
 Rotational temperatures (Kelvin)      0.04986     0.02250     0.02097
 Rotational constants (GHZ):           1.03890     0.46880     0.43689
    1 imaginary frequencies ignored.
 Zero-point vibrational energy     450667.0 (Joules/Mol)
                                  107.71201 (Kcal/Mol)
 Warning -- explicit consideration of  19 degrees of freedom as
           vibrations may cause significant error
 Vibrational temperatures:     86.83   106.31   142.26   168.17   187.35
          (Kelvin)            217.28   230.98   246.09   269.68   289.84
                              309.60   358.53   377.27   451.52   465.17
                              523.40   583.80   671.01   815.79   928.02
                             1060.85  1131.50  1147.09  1261.52  1424.78
                             1467.17  1510.88  1518.45  1542.25  1566.20
                             1686.73  1701.74  1750.55  1752.09  1913.84
                             1939.77  2019.03  2056.77  2099.65  2129.79
                             2132.90  2141.80  2146.49  2151.47  2154.01
                             2160.12  2355.39  2446.23  4377.69  4409.62
                             4412.37  4454.15  4520.44  4523.56  4535.13
                             4561.05  4566.15  5058.19  5189.23

 Zero-point correction=                           0.171650 (Hartree/Particle)
 Thermal correction to Energy=                    0.185372
 Thermal correction to Enthalpy=                  0.186316
 Thermal correction to Gibbs Free Energy=         0.130490
 Sum of electronic and zero-point Energies=          -3474.701163
 Sum of electronic and thermal Energies=             -3474.687441
 Sum of electronic and thermal Enthalpies=           -3474.686497
 Sum of electronic and thermal Free Energies=        -3474.742323

                     E (Thermal)             CV                S
                      KCal/Mol        Cal/Mol-Kelvin    Cal/Mol-Kelvin
 Total                  116.322             46.650            117.495
 Electronic               0.000              0.000              0.000
 Translational            0.889              2.981             42.364
 Rotational               0.889              2.981             31.691
 Vibrational            114.545             40.688             43.440
 Vibration     1          0.597              1.973              4.446
 Vibration     2          0.599              1.966              4.047
 Vibration     3          0.604              1.950              3.476
 Vibration     4          0.608              1.935              3.151
 Vibration     5          0.612              1.923              2.943
 Vibration     6          0.618              1.902              2.659
 Vibration     7          0.622              1.891              2.543
 Vibration     8          0.626              1.878              2.424
 Vibration     9          0.632              1.857              2.253
 Vibration    10          0.638              1.838              2.120
 Vibration    11          0.645              1.818              1.999
 Vibration    12          0.662              1.764              1.736
 Vibration    13          0.670              1.742              1.647
 Vibration    14          0.702              1.647              1.342
 Vibration    15          0.708              1.629              1.293
 Vibration    16          0.737              1.547              1.106
 Vibration    17          0.771              1.458              0.942
 Vibration    18          0.824              1.325              0.748
 Vibration    19          0.923              1.103              0.510

 Optimization completed.
    -- Stationary point found.
 Normal termination of Gaussian 16 at Mon Feb 22 05:38:54 2021.
