 Gaussian 16, Revision A.03,
 Gaussian 16:  ES64L-G16RevA.03 25-Dec-2016

 ----------------------------------------------------------------------
 # wB97XD def2tzvp, opt=(ts, noeigen, calcfc, maxcycles=70, maxstep=1),
  freq=noraman, scrf=(iefpcm, solvent=water)
 ----------------------------------------------------------------------

 ------------------------
 0_iteration/TS-758-0.out
 ------------------------
 Symbolic Z-matrix:
 Charge =  0 Multiplicity = 1

 SCF Done:  E(RwB97XD) =  -6028.60232735     A.U. after   15 cycles
 SCF Done:  E(RwB97XD) =  -6028.60235230     A.U. after   10 cycles
 SCF Done:  E(RwB97XD) =  -6028.60238196     A.U. after   10 cycles
 SCF Done:  E(RwB97XD) =  -6028.60241477     A.U. after   10 cycles
 SCF Done:  E(RwB97XD) =  -6028.60245596     A.U. after   10 cycles
 SCF Done:  E(RwB97XD) =  -6028.60250786     A.U. after   10 cycles
 SCF Done:  E(RwB97XD) =  -6028.60256992     A.U. after   10 cycles
 SCF Done:  E(RwB97XD) =  -6028.60264166     A.U. after   10 cycles
 SCF Done:  E(RwB97XD) =  -6028.60272249     A.U. after   10 cycles
 SCF Done:  E(RwB97XD) =  -6028.60280826     A.U. after   10 cycles
 SCF Done:  E(RwB97XD) =  -6028.60374942     A.U. after   10 cycles
 SCF Done:  E(RwB97XD) =  -6028.60379995     A.U. after   10 cycles
 SCF Done:  E(RwB97XD) =  -6028.60384377     A.U. after   10 cycles
 SCF Done:  E(RwB97XD) =  -6028.60388122     A.U. after    9 cycles
 SCF Done:  E(RwB97XD) =  -6028.60391198     A.U. after    9 cycles
 SCF Done:  E(RwB97XD) =  -6028.60393521     A.U. after    9 cycles
 SCF Done:  E(RwB97XD) =  -6028.60394987     A.U. after    9 cycles
 SCF Done:  E(RwB97XD) =  -6028.60395546     A.U. after    9 cycles
 SCF Done:  E(RwB97XD) =  -6028.60395551     A.U. after    8 cycles
 Optimization completed.
    -- Stationary point found.
 Normal termination of Gaussian 16 at Mon Feb 22 06:30:54 2021.

 ---------------------------------------------------------------------
 #N Geom=AllCheck Guess=TCheck SCRF=Check GenChk RwB97XD/def2TZVP Freq
 ---------------------------------------------------------------------

 Structure from the checkpoint file:  "/beegfs/scratch/user/q/tla25/Gau-47225.chk"
 ------------------------
 0_iteration/TS-758-0.out
 ------------------------
 Charge =  0 Multiplicity = 1

                         Standard orientation:
 ---------------------------------------------------------------------
 Center     Atomic      Atomic             Coordinates (Angstroms)
 Number     Number       Type             X           Y           Z
 ---------------------------------------------------------------------
      1          6           0        0.579248   -0.524897   -0.080871
      2          6           0        1.779869    0.178494    0.403354
      3          8           0        1.692468    0.985120    1.342513
      4          6           0       -0.654961    0.083009    0.031545
      5          6           0       -1.101980   -0.744756    2.679005
      6          1           0       -1.087841   -0.491280    3.739177
      7          1           0       -1.998415   -1.320193    2.458169
      8          1           0       -0.221717   -1.343484    2.447303
      9          7           0       -1.070389    0.455546    1.854775
     10          1           0       -1.903309    1.025283    1.949757
     11          1           0       -0.231869    1.004812    2.045759
     12         35           0       -2.207396   -0.875184   -0.537566
     13         35           0       -0.759121    1.949050   -0.574068
     14         17           0        0.702077   -2.267757   -0.258304
     15          7           0        2.972257   -0.092960   -0.170394
     16          6           0        3.125748   -0.666827   -1.491838
     17          6           0        4.183674    0.417378    0.437188
     18          1           0        2.167528   -0.705570   -2.002029
     19          1           0        3.799600   -0.034427   -2.074031
     20          1           0        3.547413   -1.673343   -1.444615
     21          1           0        4.471158    1.381142    0.006181
     22          1           0        4.035714    0.544484    1.505847
     23          1           0        4.992107   -0.294299    0.265779
 ---------------------------------------------------------------------

 SCF Done:  E(RwB97XD) =  -6028.60395551     A.U. after    1 cycles

 The electronic state is 1-A.
 Alpha  occ. eigenvalues -- -483.14637-483.13737-101.69551 -62.69475 -62.68578
 Alpha  occ. eigenvalues --  -56.48614 -56.48228 -56.48212 -56.47711 -56.47329
 Alpha  occ. eigenvalues --  -56.47325 -19.21624 -14.48844 -14.46596 -10.44170
 Alpha  occ. eigenvalues --  -10.39223 -10.31989 -10.31841 -10.31064 -10.30768
 Alpha  occ. eigenvalues --   -9.58057  -8.83586  -8.82680  -7.32717  -7.31839
 Alpha  occ. eigenvalues --   -7.31812  -6.65808  -6.64876  -6.64576  -6.64530
 Alpha  occ. eigenvalues --   -6.63667  -6.63653  -2.76187  -2.75834  -2.75799
 Alpha  occ. eigenvalues --   -2.75248  -2.74907  -2.74895  -2.74802  -2.74802
 Alpha  occ. eigenvalues --   -2.73919  -2.73919  -1.14414  -1.04675  -1.03920
 Alpha  occ. eigenvalues --   -0.98163  -0.93317  -0.87990  -0.83292  -0.81672
 Alpha  occ. eigenvalues --   -0.79527  -0.78848  -0.68673  -0.64148  -0.62092
 Alpha  occ. eigenvalues --   -0.59264  -0.57888  -0.57188  -0.56626  -0.54759
 Alpha  occ. eigenvalues --   -0.53285  -0.51401  -0.48922  -0.48851  -0.48518
 Alpha  occ. eigenvalues --   -0.48303  -0.46628  -0.46484  -0.46110  -0.42279
 Alpha  occ. eigenvalues --   -0.41392  -0.39682  -0.38414  -0.37583  -0.36649
 Alpha  occ. eigenvalues --   -0.35097  -0.32592  -0.27477
 Alpha virt. eigenvalues --    0.02094   0.03740   0.05751   0.10792   0.11508
 Alpha virt. eigenvalues --    0.12463   0.14972   0.15985   0.16532   0.17363
 Alpha virt. eigenvalues --    0.17686   0.17763   0.18935   0.19589   0.20086

 Mulliken charges:
               1
     1  C   -0.365787
     2  C    0.355412
     3  O   -0.551728
     4  C    0.190225
     5  C   -0.301188
     6  H    0.159484
     7  H    0.155891
     8  H    0.157192
     9  N   -0.304777
    10  H    0.288662
    11  H    0.284792
    12  Br  -0.029520
    13  Br  -0.083543
    14  Cl  -0.141545
    15  N   -0.097251
    16  C   -0.304309
    17  C   -0.290425
    18  H    0.163835
    19  H    0.142066
    20  H    0.145841
    21  H    0.140725
    22  H    0.142951
    23  H    0.142998
 Sum of Mulliken charges =  -0.00000

 Dipole moment (field-independent basis, Debye):
    X=             -0.5635    Y=             -0.1766    Z=              2.4856  Tot=              2.5548
 Quadrupole moment (field-independent basis, Debye-Ang):
   XX=            -88.8181   YY=           -108.7683   ZZ=            -95.3141
   XY=             -2.6517   XZ=            -12.4839   YZ=             -1.1401

  Exact polarizability: 235.702  -4.019 207.583 -15.297   6.478 186.133
 Approx polarizability: 179.632  -2.290 176.507  -9.197   8.387 159.028

 ******    1 imaginary frequencies (negative Signs) ******

                      1                      2                      3
                      A                      A                      A
 Frequencies --   -398.0686                47.6204                67.0718
 Red. masses --      6.1455                 4.1845                 6.1668
 Frc consts  --      0.5738                 0.0056                 0.0163
 IR Inten    --    750.1698                 3.4750                 3.5023

                      4                      5                      6
                      A                      A                      A
 Frequencies --     81.4621                94.9479               124.8428
 Red. masses --      2.8843                 3.3143                 1.4472
 Frc consts  --      0.0113                 0.0176                 0.0133
 IR Inten    --      1.1683                 2.9715                 0.6647

                      7                      8                      9
                      A                      A                      A
 Frequencies --    126.0837               144.9551               163.6148
 Red. masses --      4.1168                 6.8687                 3.6330
 Frc consts  --      0.0386                 0.0850                 0.0573
 IR Inten    --      1.3534                14.3195                 1.8616

                     10                     11                     12
                      A                      A                      A
 Frequencies --    170.1371               174.0703               182.7050
 Red. masses --      5.8462                 1.5314                 2.1231
 Frc consts  --      0.0997                 0.0273                 0.0418
 IR Inten    --     11.0629                 6.9432                 0.8165

                     13                     14                     15
                      A                      A                      A
 Frequencies --    215.5378               239.7777               251.5536
 Red. masses --      3.0024                 4.8094                 4.1346
 Frc consts  --      0.0822                 0.1629                 0.1542
 IR Inten    --      7.7829                 6.3404                 0.7734

                     16                     17                     18
                      A                      A                      A
 Frequencies --    263.9957               282.8226               304.9427
 Red. masses --      1.8770                 3.6697                 7.5738
 Frc consts  --      0.0771                 0.1729                 0.4150
 IR Inten    --     11.4384                33.9208                26.7769

                     19                     20                     21
                      A                      A                      A
 Frequencies --    338.0425               407.8248               476.0704
 Red. masses --      3.5335                 3.1810                 3.6407
 Frc consts  --      0.2379                 0.3117                 0.4862
 IR Inten    --     19.1863                10.1326                59.3049

                     22                     23                     24
                      A                      A                      A
 Frequencies --    530.9059               630.5945               682.1333
 Red. masses --      8.8807                 3.0135                 3.8447
 Frc consts  --      1.4748                 0.7060                 1.0540
 IR Inten    --     90.8782                 7.9511                50.6877

                     25                     26                     27
                      A                      A                      A
 Frequencies --    733.2657               775.8266               790.1947
 Red. masses --      8.9977                 2.4343                 6.3040
 Frc consts  --      2.8504                 0.8633                 2.3192
 IR Inten    --    200.5744                58.8145               108.0202

                     28                     29                     30
                      A                      A                      A
 Frequencies --    946.7759              1008.4520              1058.8919
 Red. masses --      4.3887                 1.1056                 2.3871
 Frc consts  --      2.3178                 0.6625                 1.5770
 IR Inten    --     38.1881                65.5490                64.1659

                     31                     32                     33
                      A                      A                      A
 Frequencies --   1079.9476              1092.0127              1096.6682
 Red. masses --      2.8353                 1.3731                 1.5686
 Frc consts  --      1.9483                 0.9648                 1.1115
 IR Inten    --     10.5126                20.0688               108.8363

                     34                     35                     36
                      A                      A                      A
 Frequencies --   1132.3957              1171.2818              1215.5027
 Red. masses --      1.2291                 1.4145                 2.6762
 Frc consts  --      0.9286                 1.1434                 2.3296
 IR Inten    --      0.7932                 3.1820               296.7524

                     37                     38                     39
                      A                      A                      A
 Frequencies --   1224.2176              1315.9117              1357.5078
 Red. masses --      1.4431                 5.2777                 1.3330
 Frc consts  --      1.2742                 5.3845                 1.4474
 IR Inten    --     40.5151                61.6604                38.3219

                     40                     41                     42
                      A                      A                      A
 Frequencies --   1397.8852              1443.7079              1450.4649
 Red. masses --      5.4597                 1.6546                 1.2765
 Frc consts  --      6.2859                 2.0320                 1.5823
 IR Inten    --    970.8754                89.4358                30.2701

                     43                     44                     45
                      A                      A                      A
 Frequencies --   1460.6424              1475.8500              1483.5957
 Red. masses --      1.2373                 1.1974                 1.0725
 Frc consts  --      1.5553                 1.5367                 1.3908
 IR Inten    --     11.8820                33.2402                 5.9696

                     46                     47                     48
                      A                      A                      A
 Frequencies --   1488.7160              1498.3577              1502.0346
 Red. masses --      1.0409                 1.0561                 1.0561
 Frc consts  --      1.3592                 1.3970                 1.4038
 IR Inten    --     23.5878                17.4301                22.1748

                     49                     50                     51
                      A                      A                      A
 Frequencies --   1503.9324              1537.7187              1614.5218
 Red. masses --      1.0331                 1.7641                 1.4869
 Frc consts  --      1.3767                 2.4577                 2.2835
 IR Inten    --     10.4918               205.5389               443.4859

                     52                     53                     54
                      A                      A                      A
 Frequencies --   1651.1447              3040.7938              3047.9674
 Red. masses --      2.5314                 1.0420                 1.0381
 Frc consts  --      4.0661                 5.6767                 5.6821
 IR Inten    --    356.3200                67.8969                98.1220

                     55                     56                     57
                      A                      A                      A
 Frequencies --   3070.9842              3105.4558              3113.2575
 Red. masses --      1.0334                 1.1027                 1.0991
 Frc consts  --      5.7423                 6.2654                 6.2762
 IR Inten    --     33.4685                61.3810                14.8172

                     58                     59                     60
                      A                      A                      A
 Frequencies --   3148.1487              3171.3856              3176.9737
 Red. masses --      1.1041                 1.1056                 1.1007
 Frc consts  --      6.4473                 6.5517                 6.5453
 IR Inten    --     10.0451                12.0799                 8.9950

                     61                     62                     63
                      A                      A                      A
 Frequencies --   3177.7892              3437.9028              3582.2754
 Red. masses --      1.0993                 1.0584                 1.0907
 Frc consts  --      6.5408                 7.3701                 8.2465
 IR Inten    --     12.4602               114.8866               119.5206

 - Thermochemistry -
 -------------------
 Temperature   298.150 Kelvin.  Pressure   1.00000 Atm.
 Atom     1 has atomic number  6 and mass  12.00000

 Molecular mass:   319.89266 amu.
 Principal axes and moments of inertia in atomic units:
                           1         2         3
     Eigenvalues --  3135.142835036.152956099.24733
           X            0.99909  -0.00477  -0.04244
           Y            0.00550   0.99984   0.01724
           Z            0.04235  -0.01746   0.99895
 This molecule is an asymmetric top.
 Rotational symmetry number  1.
 Warning -- assumption of classical behavior for rotation
           may cause significant error
 Rotational temperatures (Kelvin)      0.02763     0.01720     0.01420
 Rotational constants (GHZ):           0.57565     0.35836     0.29590
    1 imaginary frequencies ignored.
 Zero-point vibrational energy     458062.5 (Joules/Mol)
                                  109.47957 (Kcal/Mol)
 Warning -- explicit consideration of  21 degrees of freedom as
           vibrations may cause significant error
 Vibrational temperatures:     68.52    96.50   117.21   136.61   179.62
          (Kelvin)            181.41   208.56   235.41   244.79   250.45
                              262.87   310.11   344.99   361.93   379.83
                              406.92   438.74   486.37   586.77   684.96
                              763.86   907.28   981.44  1055.01  1116.24
                             1136.91  1362.20  1450.94  1523.51  1553.80
                             1571.16  1577.86  1629.26  1685.21  1748.84
                             1761.38  1893.30  1953.15  2011.24  2077.17
                             2086.90  2101.54  2123.42  2134.56  2141.93
                             2155.80  2161.09  2163.82  2212.43  2322.94
                             2375.63  4375.02  4385.35  4418.46  4468.06
                             4479.28  4529.48  4562.92  4570.96  4572.13
                             4946.38  5154.10

 Zero-point correction=                           0.174467 (Hartree/Particle)
 Thermal correction to Energy=                    0.189742
 Thermal correction to Enthalpy=                  0.190687
 Thermal correction to Gibbs Free Energy=         0.130393
 Sum of electronic and zero-point Energies=          -6028.429489
 Sum of electronic and thermal Energies=             -6028.414213
 Sum of electronic and thermal Enthalpies=           -6028.413269
 Sum of electronic and thermal Free Energies=        -6028.473563

                     E (Thermal)             CV                S
                      KCal/Mol        Cal/Mol-Kelvin    Cal/Mol-Kelvin
 Total                  119.065             51.164            126.899
 Electronic               0.000              0.000              0.000
 Translational            0.889              2.981             43.184
 Rotational               0.889              2.981             32.932
 Vibrational            117.288             45.202             50.783
 Vibration     1          0.595              1.978              4.914
 Vibration     2          0.598              1.970              4.238
 Vibration     3          0.600              1.962              3.855
 Vibration     4          0.603              1.953              3.555
 Vibration     5          0.610              1.928              3.024
 Vibration     6          0.611              1.927              3.005
 Vibration     7          0.616              1.908              2.737
 Vibration     8          0.623              1.887              2.508
 Vibration     9          0.625              1.879              2.434
 Vibration    10          0.627              1.874              2.391
 Vibration    11          0.630              1.863              2.301
 Vibration    12          0.645              1.817              1.996
 Vibration    13          0.657              1.780              1.805
 Vibration    14          0.664              1.760              1.720
 Vibration    15          0.671              1.739              1.635
 Vibration    16          0.682              1.705              1.517
 Vibration    17          0.696              1.664              1.390
 Vibration    18          0.718              1.599              1.221
 Vibration    19          0.772              1.453              0.934
 Vibration    20          0.833              1.303              0.721
 Vibration    21          0.886              1.182              0.585

 Optimization completed.
    -- Stationary point found.
 Normal termination of Gaussian 16 at Mon Feb 22 07:03:29 2021.
