 Gaussian 16, Revision A.03,
 Gaussian 16:  ES64L-G16RevA.03 25-Dec-2016

 ----------------------------------------------------------------------
 # wB97XD def2tzvp, opt=(ts, noeigen, calcfc, maxcycles=70, maxstep=1),
  freq=noraman, scrf=(iefpcm, solvent=water)
 ----------------------------------------------------------------------

 ------------------------
 0_iteration/TS-796-0.out
 ------------------------
 Symbolic Z-matrix:
 Charge =  0 Multiplicity = 1

 SCF Done:  E(RwB97XD) =  -3895.16027149     A.U. after   15 cycles
 SCF Done:  E(RwB97XD) =  -3895.16014209     A.U. after   10 cycles
 SCF Done:  E(RwB97XD) =  -3895.16001873     A.U. after   10 cycles
 SCF Done:  E(RwB97XD) =  -3895.15990086     A.U. after   10 cycles
 SCF Done:  E(RwB97XD) =  -3895.15978749     A.U. after   10 cycles
 SCF Done:  E(RwB97XD) =  -3895.15967866     A.U. after   10 cycles
 SCF Done:  E(RwB97XD) =  -3895.15957571     A.U. after   10 cycles
 SCF Done:  E(RwB97XD) =  -3895.15948218     A.U. after   10 cycles
 SCF Done:  E(RwB97XD) =  -3895.15941185     A.U. after   11 cycles
 SCF Done:  E(RwB97XD) =  -3895.15932785     A.U. after   10 cycles
 SCF Done:  E(RwB97XD) =  -3895.16132960     A.U. after   10 cycles
 SCF Done:  E(RwB97XD) =  -3895.16139297     A.U. after   10 cycles
 SCF Done:  E(RwB97XD) =  -3895.16144542     A.U. after   10 cycles
 SCF Done:  E(RwB97XD) =  -3895.16148605     A.U. after   10 cycles
 SCF Done:  E(RwB97XD) =  -3895.16151509     A.U. after   10 cycles
 SCF Done:  E(RwB97XD) =  -3895.16153239     A.U. after   10 cycles
 SCF Done:  E(RwB97XD) =  -3895.16153780     A.U. after   10 cycles
 SCF Done:  E(RwB97XD) =  -3895.16153782     A.U. after    8 cycles
 SCF Done:  E(RwB97XD) =  -3895.16153777     A.U. after    6 cycles
 Optimization completed.
    -- Stationary point found.
 Normal termination of Gaussian 16 at Mon Feb 22 05:03:29 2021.

 ---------------------------------------------------------------------
 #N Geom=AllCheck Guess=TCheck SCRF=Check GenChk RwB97XD/def2TZVP Freq
 ---------------------------------------------------------------------

 Structure from the checkpoint file:  "/beegfs/scratch/user/q/tla25/Gau-102994.chk"
 ------------------------
 0_iteration/TS-796-0.out
 ------------------------
 Charge =  0 Multiplicity = 1

                         Standard orientation:
 ---------------------------------------------------------------------
 Center     Atomic      Atomic             Coordinates (Angstroms)
 Number     Number       Type             X           Y           Z
 ---------------------------------------------------------------------
      1          6           0       -0.599733    0.405685   -0.221689
      2          6           0       -1.899837   -0.225193   -0.127814
      3          8           0       -2.064325   -1.411062    0.106560
      4          6           0        0.550853   -0.365803   -0.231646
      5          6           0        0.523309   -0.417691    2.623266
      6          1           0       -0.333860    0.226091    2.421572
      7          1           0        0.342087   -0.961492    3.550580
      8          1           0        1.413477    0.198084    2.734798
      9          7           0        0.695529   -1.321551    1.497907
     10          1           0        1.557689   -1.852002    1.541560
     11          1           0       -0.087872   -1.960049    1.405185
     12         35           0        2.240830    0.518275   -0.285344
     13         17           0        0.598639   -1.831518   -1.219514
     14         17           0       -0.521565    2.139837   -0.052737
     15          8           0       -2.923721    0.618935   -0.295421
     16          6           0       -4.227685    0.060705   -0.151636
     17          1           0       -4.917465    0.888868   -0.287730
     18          1           0       -4.405447   -0.703994   -0.907266
     19          1           0       -4.353702   -0.374860    0.839255
 ---------------------------------------------------------------------

 SCF Done:  E(RwB97XD) =  -3895.16153777     A.U. after    1 cycles

 The electronic state is 1-A.
 Alpha  occ. eigenvalues -- -483.14996-101.71229-101.69881 -62.69838 -56.48979
 Alpha  occ. eigenvalues --  -56.48591 -56.48570 -19.29654 -19.23185 -14.48666
 Alpha  occ. eigenvalues --  -10.45305 -10.41892 -10.33359 -10.33267 -10.31900
 Alpha  occ. eigenvalues --   -9.59802  -9.58395  -8.83952  -7.34493  -7.33555
 Alpha  occ. eigenvalues --   -7.33525  -7.33071  -7.32158  -7.32147  -6.66184
 Alpha  occ. eigenvalues --   -6.64944  -6.64882  -2.76562  -2.76210  -2.76163
 Alpha  occ. eigenvalues --   -2.75159  -2.75159  -1.21464  -1.11922  -1.04820
 Alpha  occ. eigenvalues --   -1.00304  -0.96236  -0.90267  -0.85066  -0.81610
 Alpha  occ. eigenvalues --   -0.79108  -0.70862  -0.64670  -0.63360  -0.60549
 Alpha  occ. eigenvalues --   -0.58719  -0.57808  -0.57320  -0.55219  -0.54195
 Alpha  occ. eigenvalues --   -0.52382  -0.49736  -0.48684  -0.48373  -0.47494
 Alpha  occ. eigenvalues --   -0.44649  -0.43341  -0.42950  -0.41853  -0.39963
 Alpha  occ. eigenvalues --   -0.38893  -0.38245  -0.37928  -0.35822  -0.28965
 Alpha virt. eigenvalues --    0.01812   0.03693   0.06656   0.10789   0.13107
 Alpha virt. eigenvalues --    0.13526   0.15061   0.16338   0.16827   0.17240
 Alpha virt. eigenvalues --    0.18995   0.19718   0.20145   0.20323   0.21592

 Mulliken charges:
               1
     1  C   -0.303331
     2  C    0.436778
     3  O   -0.479360
     4  C    0.196024
     5  C   -0.290705
     6  H    0.155872
     7  H    0.159661
     8  H    0.157335
     9  N   -0.361333
    10  H    0.292957
    11  H    0.286743
    12  Br  -0.014804
    13  Cl  -0.048142
    14  Cl  -0.119159
    15  O   -0.290552
    16  C   -0.191297
    17  H    0.145027
    18  H    0.134506
    19  H    0.133778
 Sum of Mulliken charges =  -0.00000

 Dipole moment (field-independent basis, Debye):
    X=              1.4953    Y=             -2.2573    Z=              4.7958  Tot=              5.5073
 Quadrupole moment (field-independent basis, Debye-Ang):
   XX=            -80.2263   YY=            -93.8046   ZZ=            -82.5394
   XY=             -4.1871   XZ=              3.6948   YZ=             -4.5549

  Exact polarizability: 197.879  -5.267 173.235   8.161  -2.892 146.094
 Approx polarizability: 152.504  -1.404 154.098   5.038  -2.008 125.048

 ******    1 imaginary frequencies (negative Signs) ******

                      1                      2                      3
                      A                      A                      A
 Frequencies --   -373.2817                48.3780                67.5147
 Red. masses --      5.9847                 5.0155                 4.1911
 Frc consts  --      0.4913                 0.0069                 0.0113
 IR Inten    --    724.3355                 1.5230                 8.3301

                      4                      5                      6
                      A                      A                      A
 Frequencies --     81.5134               114.2920               123.8893
 Red. masses --      3.6549                 4.5668                 3.1370
 Frc consts  --      0.0143                 0.0351                 0.0284
 IR Inten    --      2.5856                 3.4990                 1.5902

                      7                      8                      9
                      A                      A                      A
 Frequencies --    141.5822               161.5554               170.5717
 Red. masses --      1.7179                 1.8912                 2.0649
 Frc consts  --      0.0203                 0.0291                 0.0354
 IR Inten    --      3.8792                 7.4840                 5.5851

                     10                     11                     12
                      A                      A                      A
 Frequencies --    183.1887               196.7837               236.9225
 Red. masses --      3.6101                 3.1386                11.6090
 Frc consts  --      0.0714                 0.0716                 0.3839
 IR Inten    --      3.6564                 1.8515                 7.6318

                     13                     14                     15
                      A                      A                      A
 Frequencies --    243.1220               261.7369               297.3784
 Red. masses --      4.8189                12.7103                 4.0906
 Frc consts  --      0.1678                 0.5130                 0.2131
 IR Inten    --      4.9381                 1.6163                 8.3820

                     16                     17                     18
                      A                      A                      A
 Frequencies --    334.2659               382.8115               447.4681
 Red. masses --      4.8660                14.4143                10.6583
 Frc consts  --      0.3203                 1.2446                 1.2574
 IR Inten    --     52.4862                16.0520                21.0458

                     19                     20                     21
                      A                      A                      A
 Frequencies --    508.2659               618.6896               726.1678
 Red. masses --      7.5471                 1.7798                 3.1853
 Frc consts  --      1.1487                 0.4014                 0.9896
 IR Inten    --     88.3161                 3.1165                83.0550

                     22                     23                     24
                      A                      A                      A
 Frequencies --    782.5354               796.0318               843.5973
 Red. masses --     10.6461                 9.7217                 5.7202
 Frc consts  --      3.8411                 3.6296                 2.3984
 IR Inten    --    160.9374               139.5492                62.5697

                     25                     26                     27
                      A                      A                      A
 Frequencies --    990.4607              1013.3468              1039.0992
 Red. masses --      1.1006                 2.6237                 1.5282
 Frc consts  --      0.6362                 1.5874                 0.9722
 IR Inten    --     55.5308                73.3112                70.3314

                     28                     29                     30
                      A                      A                      A
 Frequencies --   1087.9480              1112.3446              1182.5887
 Red. masses --      4.8815                 6.8217                 1.2812
 Frc consts  --      3.4043                 4.9730                 1.0557
 IR Inten    --     39.9020               107.5876                 1.6017

                     31                     32                     33
                      A                      A                      A
 Frequencies --   1202.4734              1221.0813              1310.7470
 Red. masses --      1.4181                 1.5963                 6.9515
 Frc consts  --      1.2081                 1.4024                 7.0367
 IR Inten    --     19.8550                95.3853              1368.0187

                     34                     35                     36
                      A                      A                      A
 Frequencies --   1343.2351              1402.8109              1460.5697
 Red. masses --      1.3326                 7.1940                 1.2365
 Frc consts  --      1.4166                 8.3410                 1.5541
 IR Inten    --     18.4435               573.7666                20.7081

                     37                     38                     39
                      A                      A                      A
 Frequencies --   1480.6763              1483.0383              1488.9952
 Red. masses --      1.1968                 1.0541                 1.0422
 Frc consts  --      1.5460                 1.3660                 1.3615
 IR Inten    --     71.3797                19.4628                19.3608

                     40                     41                     42
                      A                      A                      A
 Frequencies --   1494.7022              1501.6718              1635.5913
 Red. masses --      1.0684                 1.0320                 1.1149
 Frc consts  --      1.4063                 1.3712                 1.7572
 IR Inten    --      9.9595                15.1004               110.3423

                     43                     44                     45
                      A                      A                      A
 Frequencies --   1708.8166              3065.1440              3069.2579
 Red. masses --      9.3769                 1.0332                 1.0307
 Frc consts  --     16.1324                 5.7192                 5.7206
 IR Inten    --    392.3111                28.4726                49.8847

                     46                     47                     48
                      A                      A                      A
 Frequencies --   3139.1757              3148.2712              3164.6973
 Red. masses --      1.1044                 1.1072                 1.1053
 Frc consts  --      6.4123                 6.4657                 6.5224
 IR Inten    --     11.6050                30.4441                12.4551

                     49                     50                     51
                      A                      A                      A
 Frequencies --   3183.0117              3513.9192              3607.9246
 Red. masses --      1.1059                 1.0508                 1.0970
 Frc consts  --      6.6013                 7.6444                 8.4131
 IR Inten    --     20.6980                54.7892                86.7993

 - Thermochemistry -
 -------------------
 Temperature   298.150 Kelvin.  Pressure   1.00000 Atm.
 Atom     1 has atomic number  6 and mass  12.00000

 Molecular mass:   262.91155 amu.
 Principal axes and moments of inertia in atomic units:
                           1         2         3
     Eigenvalues --  2083.982534177.820694787.68954
           X            0.99973  -0.01509   0.01766
           Y            0.01603   0.99840  -0.05414
           Z           -0.01682   0.05440   0.99838
 This molecule is an asymmetric top.
 Rotational symmetry number  1.
 Warning -- assumption of classical behavior for rotation
           may cause significant error
 Rotational temperatures (Kelvin)      0.04156     0.02073     0.01809
 Rotational constants (GHZ):           0.86601     0.43198     0.37695
    1 imaginary frequencies ignored.
 Zero-point vibrational energy     351820.9 (Joules/Mol)
                                   84.08721 (Kcal/Mol)
 Warning -- explicit consideration of  19 degrees of freedom as
           vibrations may cause significant error
 Vibrational temperatures:     69.61    97.14   117.28   164.44   178.25
          (Kelvin)            203.71   232.44   245.41   263.57   283.13
                              340.88   349.80   376.58   427.86   480.93
                              550.78   643.81   731.28   890.16  1044.79
                             1125.89  1145.31  1213.75  1425.05  1457.98
                             1495.03  1565.31  1600.42  1701.48  1730.09
                             1756.86  1885.87  1932.62  2018.33  2101.43
                             2130.36  2133.76  2142.33  2150.54  2160.57
                             2353.25  2458.61  4410.06  4415.98  4516.57
                             4529.66  4553.29  4579.64  5055.75  5191.00

 Zero-point correction=                           0.134002 (Hartree/Particle)
 Thermal correction to Energy=                    0.147518
 Thermal correction to Enthalpy=                  0.148462
 Thermal correction to Gibbs Free Energy=         0.092177
 Sum of electronic and zero-point Energies=          -3895.027536
 Sum of electronic and thermal Energies=             -3895.014020
 Sum of electronic and thermal Enthalpies=           -3895.013076
 Sum of electronic and thermal Free Energies=        -3895.069361

                     E (Thermal)             CV                S
                      KCal/Mol        Cal/Mol-Kelvin    Cal/Mol-Kelvin
 Total                   92.569             44.699            118.461
 Electronic               0.000              0.000              0.000
 Translational            0.889              2.981             42.599
 Rotational               0.889              2.981             32.100
 Vibrational             90.791             38.737             43.762
 Vibration     1          0.595              1.978              4.883
 Vibration     2          0.598              1.970              4.225
 Vibration     3          0.600              1.962              3.854
 Vibration     4          0.607              1.938              3.195
 Vibration     5          0.610              1.929              3.039
 Vibration     6          0.615              1.912              2.782
 Vibration     7          0.622              1.890              2.532
 Vibration     8          0.626              1.879              2.429
 Vibration     9          0.631              1.863              2.296
 Vibration    10          0.636              1.844              2.163
 Vibration    11          0.656              1.784              1.826
 Vibration    12          0.659              1.774              1.780
 Vibration    13          0.669              1.743              1.650
 Vibration    14          0.691              1.679              1.432
 Vibration    15          0.716              1.607              1.239
 Vibration    16          0.752              1.507              1.028
 Vibration    17          0.807              1.366              0.803
 Vibration    18          0.863              1.232              0.638
 Vibration    19          0.979              0.992              0.419

 Optimization completed.
    -- Stationary point found.
 Normal termination of Gaussian 16 at Mon Feb 22 05:23:03 2021.
