 Gaussian 16, Revision A.03,
 Gaussian 16:  ES64L-G16RevA.03 25-Dec-2016

 ----------------------------------------------------------------------
 # wB97XD def2tzvp, opt=(ts, noeigen, calcfc, maxcycles=70, maxstep=3),
  freq=noraman, scrf=(iefpcm, solvent=water)
 ----------------------------------------------------------------------

 ------------------------
 0_iteration/TS-732-0.out
 ------------------------
 Symbolic Z-matrix:
 Charge =  0 Multiplicity = 1

 SCF Done:  E(RwB97XD) =  -5549.55381507     A.U. after   16 cycles
 SCF Done:  E(RwB97XD) =  -5549.55419003     A.U. after   11 cycles
 SCF Done:  E(RwB97XD) =  -5549.55457162     A.U. after   11 cycles
 SCF Done:  E(RwB97XD) =  -5549.55495148     A.U. after   11 cycles
 SCF Done:  E(RwB97XD) =  -5549.55532586     A.U. after   11 cycles
 SCF Done:  E(RwB97XD) =  -5549.55569197     A.U. after   11 cycles
 SCF Done:  E(RwB97XD) =  -5549.55604741     A.U. after   12 cycles
 SCF Done:  E(RwB97XD) =  -5549.55639116     A.U. after   12 cycles
 SCF Done:  E(RwB97XD) =  -5549.55672343     A.U. after   12 cycles
 SCF Done:  E(RwB97XD) =  -5549.55704500     A.U. after   12 cycles
 SCF Done:  E(RwB97XD) =  -5549.56578044     A.U. after   11 cycles
 SCF Done:  E(RwB97XD) =  -5549.56577292     A.U. after   11 cycles
 SCF Done:  E(RwB97XD) =  -5549.56580636     A.U. after   11 cycles
 SCF Done:  E(RwB97XD) =  -5549.56580989     A.U. after   10 cycles
 SCF Done:  E(RwB97XD) =  -5549.56581542     A.U. after   10 cycles
 SCF Done:  E(RwB97XD) =  -5549.56581542     A.U. after    8 cycles
 SCF Done:  E(RwB97XD) =  -5549.56581007     A.U. after   10 cycles
 SCF Done:  E(RwB97XD) =  -5549.56581549     A.U. after   10 cycles
 SCF Done:  E(RwB97XD) =  -5549.56581546     A.U. after    6 cycles
 Optimization completed.
    -- Stationary point found.
 Normal termination of Gaussian 16 at Wed Apr 14 20:09:22 2021.

 ---------------------------------------------------------------------
 #N Geom=AllCheck Guess=TCheck SCRF=Check GenChk RwB97XD/def2TZVP Freq
 ---------------------------------------------------------------------

 Structure from the checkpoint file:  "/beegfs/scratch/user/q/tla25/Gau-335743.chk"
 ------------------------
 0_iteration/TS-732-0.out
 ------------------------
 Charge =  0 Multiplicity = 1

                         Standard orientation:
 ---------------------------------------------------------------------
 Center     Atomic      Atomic             Coordinates (Angstroms)
 Number     Number       Type             X           Y           Z
 ---------------------------------------------------------------------
      1          6           0        0.761920   -0.616092   -0.629347
      2          6           0        2.062101   -0.169490   -0.211771
      3          8           0        2.301525    0.614391    0.693231
      4          6           0       -0.393629   -0.081906   -0.119215
      5          6           0       -0.264192   -1.891915    2.076102
      6          1           0        0.488130   -2.249842    1.367934
      7          1           0        0.094335   -2.071056    3.089577
      8          1           0       -1.190752   -2.439147    1.918309
      9          7           0       -0.482916   -0.478610    1.824665
     10          1           0        0.299158    0.085812    2.139651
     11          1           0       -1.337544   -0.124326    2.236980
     12         35           0       -2.014301   -0.892341   -0.733153
     13         35           0       -0.610657    1.838374    0.088567
     14          1           0        0.699098   -1.498612   -1.246635
     15          8           0        3.045301   -0.758240   -0.922033
     16          6           0        4.378474   -0.440581   -0.537469
     17          1           0        5.022215   -1.013248   -1.199841
     18          1           0        4.574553    0.625068   -0.656458
     19          1           0        4.562073   -0.724847    0.498946
 ---------------------------------------------------------------------

 SCF Done:  E(RwB97XD) =  -5549.56581546     A.U. after    1 cycles

 The electronic state is 1-A.
 Alpha  occ. eigenvalues -- -483.14541-483.13815 -62.69382 -62.68662 -56.48515
 Alpha  occ. eigenvalues --  -56.48136 -56.48125 -56.47793 -56.47416 -56.47404
 Alpha  occ. eigenvalues --  -19.28902 -19.22510 -14.48486 -10.43814 -10.40747
 Alpha  occ. eigenvalues --  -10.32909 -10.31657 -10.27283  -8.83495  -8.82772
 Alpha  occ. eigenvalues --   -6.65700  -6.64969  -6.64488  -6.64455  -6.63773
 Alpha  occ. eigenvalues --   -6.63733  -2.76081  -2.75731  -2.75706  -2.75346
 Alpha  occ. eigenvalues --   -2.75010  -2.74978  -2.74726  -2.74726  -2.74010
 Alpha  occ. eigenvalues --   -2.74010  -1.20400  -1.11028  -1.04072  -0.96138
 Alpha  occ. eigenvalues --   -0.87938  -0.86550  -0.80964  -0.78859  -0.69779
 Alpha  occ. eigenvalues --   -0.63915  -0.63119  -0.59926  -0.57858  -0.57005
 Alpha  occ. eigenvalues --   -0.56823  -0.54278  -0.53014  -0.50558  -0.48507
 Alpha  occ. eigenvalues --   -0.48012  -0.47114  -0.45761  -0.43979  -0.40526
 Alpha  occ. eigenvalues --   -0.38881  -0.38550  -0.37124  -0.36952  -0.35567
 Alpha  occ. eigenvalues --   -0.29715
 Alpha virt. eigenvalues --    0.01798   0.03855   0.06994   0.10738   0.13553
 Alpha virt. eigenvalues --    0.14527   0.15909   0.16349   0.17042   0.18171
 Alpha virt. eigenvalues --    0.19199   0.20099   0.20447   0.21348   0.21968

 Mulliken charges:
               1
     1  C   -0.562865
     2  C    0.468617
     3  O   -0.490527
     4  C    0.219226
     5  C   -0.280981
     6  H    0.146759
     7  H    0.157896
     8  H    0.157659
     9  N   -0.365422
    10  H    0.284926
    11  H    0.293057
    12  Br  -0.044358
    13  Br  -0.067364
    14  H    0.170654
    15  O   -0.299948
    16  C   -0.188100
    17  H    0.141593
    18  H    0.130030
    19  H    0.129148
 Sum of Mulliken charges =  -0.00000

 Dipole moment (field-independent basis, Debye):
    X=             -1.3619    Y=             -3.2236    Z=              4.0075  Tot=              5.3203
 Quadrupole moment (field-independent basis, Debye-Ang):
   XX=            -78.8774   YY=            -83.6951   ZZ=            -77.2250
   XY=             -1.9428   XZ=             -5.5237   YZ=             -4.4935

  Exact polarizability: 195.370   3.160 161.178  -8.285   2.742 151.370
 Approx polarizability: 147.660   2.963 135.901  -4.409   7.405 130.274

 ******    1 imaginary frequencies (negative Signs) ******

                      1                      2                      3
                      A                      A                      A
 Frequencies --   -384.5500                57.0596                68.5382
 Red. masses --      5.3959                 4.0363                 5.2616
 Frc consts  --      0.4701                 0.0077                 0.0146
 IR Inten    --    621.6149                 2.4454                13.8756

                      4                      5                      6
                      A                      A                      A
 Frequencies --     94.1070               103.1445               133.9965
 Red. masses --      2.2112                 4.8201                 2.0117
 Frc consts  --      0.0115                 0.0302                 0.0213
 IR Inten    --      4.0794                 1.8736                13.3327

                      7                      8                      9
                      A                      A                      A
 Frequencies --    151.2894               157.4103               170.0808
 Red. masses --      3.6982                 1.9264                 2.8979
 Frc consts  --      0.0499                 0.0281                 0.0494
 IR Inten    --      3.5903                 0.2255                 2.1754

                     10                     11                     12
                      A                      A                      A
 Frequencies --    189.7320               227.3224               248.9356
 Red. masses --      1.7770                 3.4660                 7.4381
 Frc consts  --      0.0377                 0.1055                 0.2716
 IR Inten    --      7.5454                 6.0182                 4.3226

                     13                     14                     15
                      A                      A                      A
 Frequencies --    278.2178               300.9720               357.7967
 Red. masses --      5.2952                 4.2957                 5.6907
 Frc consts  --      0.2415                 0.2293                 0.4292
 IR Inten    --     20.4941                 4.3066                51.9374

                     16                     17                     18
                      A                      A                      A
 Frequencies --    443.5031               567.3696               649.8741
 Red. masses --      4.2101                 2.1774                 1.5662
 Frc consts  --      0.4879                 0.4130                 0.3897
 IR Inten    --     32.1843                36.8548                69.7806

                     19                     20                     21
                      A                      A                      A
 Frequencies --    688.2122               705.7970               800.2776
 Red. masses --      2.2741                 3.2350                 6.7849
 Frc consts  --      0.6346                 0.9495                 2.5602
 IR Inten    --     95.7412                48.0248                72.7826

                     22                     23                     24
                      A                      A                      A
 Frequencies --    821.9253               977.4763               995.2528
 Red. masses --      5.7260                 4.5857                 1.0868
 Frc consts  --      2.2791                 2.5815                 0.6342
 IR Inten    --    120.1631               103.4939                75.4964

                     25                     26                     27
                      A                      A                      A
 Frequencies --   1038.6142              1079.2456              1088.9511
 Red. masses --      1.1690                 5.8864                 4.5023
 Frc consts  --      0.7430                 4.0396                 3.1456
 IR Inten    --     93.4367                99.4027                31.5990

                     28                     29                     30
                      A                      A                      A
 Frequencies --   1181.6275              1199.7657              1201.0722
 Red. masses --      1.2838                 1.5207                 1.6809
 Frc consts  --      1.0561                 1.2897                 1.4287
 IR Inten    --      2.0175               257.2387               696.9234

                     31                     32                     33
                      A                      A                      A
 Frequencies --   1218.0472              1318.3052              1342.2919
 Red. masses --      1.5278                 2.9975                 1.3437
 Frc consts  --      1.3355                 3.0693                 1.4264
 IR Inten    --     49.9457               170.8352                21.4676

                     34                     35                     36
                      A                      A                      A
 Frequencies --   1455.2953              1473.3175              1481.9354
 Red. masses --      1.3798                 1.4091                 1.0570
 Frc consts  --      1.7217                 1.8022                 1.3677
 IR Inten    --    298.8247               123.7946                32.5436

                     37                     38                     39
                      A                      A                      A
 Frequencies --   1486.8619              1490.3503              1499.8547
 Red. masses --      1.2680                 1.0911                 1.4131
 Frc consts  --      1.6516                 1.4278                 1.8730
 IR Inten    --    408.4701                91.8474               351.0347

                     40                     41                     42
                      A                      A                      A
 Frequencies --   1504.6371              1637.3231              1710.5581
 Red. masses --      1.0659                 1.1084                 9.4876
 Frc consts  --      1.4217                 1.7507                16.3562
 IR Inten    --      6.9829                99.9196               464.7128

                     43                     44                     45
                      A                      A                      A
 Frequencies --   3051.4944              3064.0183              3125.7348
 Red. masses --      1.0375                 1.0309                 1.0998
 Frc consts  --      5.6918                 5.7025                 6.3308
 IR Inten    --     35.9551                54.6658                11.4296

                     46                     47                     48
                      A                      A                      A
 Frequencies --   3140.2908              3167.5750              3176.2608
 Red. masses --      1.1069                 1.1045                 1.1054
 Frc consts  --      6.4310                 6.5295                 6.5705
 IR Inten    --     35.6849                12.1604                23.9741

                     49                     50                     51
                      A                      A                      A
 Frequencies --   3242.6391              3515.4704              3609.3288
 Red. masses --      1.0901                 1.0510                 1.0971
 Frc consts  --      6.7531                 7.6525                 8.4208
 IR Inten    --      3.1648                43.3888                83.6676

 - Thermochemistry -
 -------------------
 Temperature   298.150 Kelvin.  Pressure   1.00000 Atm.
 Atom     1 has atomic number  6 and mass  12.00000

 Molecular mass:   272.90000 amu.
 Principal axes and moments of inertia in atomic units:
                           1         2         3
     Eigenvalues --  2197.000324076.114214865.67804
           X            0.99920  -0.02863  -0.02785
           Y            0.02605   0.99568  -0.08907
           Z            0.03028   0.08828   0.99564
 This molecule is an asymmetric top.
 Rotational symmetry number  1.
 Warning -- assumption of classical behavior for rotation
           may cause significant error
 Rotational temperatures (Kelvin)      0.03942     0.02125     0.01780
 Rotational constants (GHZ):           0.82146     0.44276     0.37091
    1 imaginary frequencies ignored.
 Zero-point vibrational energy     374964.4 (Joules/Mol)
                                   89.61865 (Kcal/Mol)
 Warning -- explicit consideration of  16 degrees of freedom as
           vibrations may cause significant error
 Vibrational temperatures:     82.10    98.61   135.40   148.40   192.79
          (Kelvin)            217.67   226.48   244.71   272.98   327.07
                              358.16   400.29   433.03   514.79   638.10
                              816.32   935.02   990.18  1015.48  1151.42
                             1182.57  1406.37  1431.95  1494.33  1552.79
                             1566.76  1700.10  1726.20  1728.08  1752.50
                             1896.75  1931.26  2093.85  2119.78  2132.17
                             2139.26  2144.28  2157.96  2164.84  2355.74
                             2461.11  4390.42  4408.44  4497.24  4518.18
                             4557.43  4569.93  4665.43  5057.98  5193.02

 Zero-point correction=                           0.142816 (Hartree/Particle)
 Thermal correction to Energy=                    0.155349
 Thermal correction to Enthalpy=                  0.156293
 Thermal correction to Gibbs Free Energy=         0.101878
 Sum of electronic and zero-point Energies=          -5549.422999
 Sum of electronic and thermal Energies=             -5549.410467
 Sum of electronic and thermal Enthalpies=           -5549.409523
 Sum of electronic and thermal Free Energies=        -5549.463937

                     E (Thermal)             CV                S
                      KCal/Mol        Cal/Mol-Kelvin    Cal/Mol-Kelvin
 Total                   97.483             41.537            114.525
 Electronic               0.000              0.000              0.000
 Translational            0.889              2.981             42.711
 Rotational               0.889              2.981             32.144
 Vibrational             95.705             35.575             39.671
 Vibration     1          0.596              1.975              4.556
 Vibration     2          0.598              1.969              4.195
 Vibration     3          0.603              1.953              3.573
 Vibration     4          0.605              1.947              3.394
 Vibration     5          0.613              1.919              2.888
 Vibration     6          0.619              1.901              2.656
 Vibration     7          0.621              1.894              2.581
 Vibration     8          0.625              1.879              2.435
 Vibration     9          0.633              1.854              2.230
 Vibration    10          0.651              1.799              1.900
 Vibration    11          0.662              1.765              1.738
 Vibration    12          0.679              1.714              1.545
 Vibration    13          0.693              1.672              1.411
 Vibration    14          0.733              1.559              1.132
 Vibration    15          0.803              1.375              0.816
 Vibration    16          0.923              1.102              0.509

 Optimization completed.
    -- Stationary point found.
 Normal termination of Gaussian 16 at Wed Apr 14 20:16:00 2021.
