 Gaussian 16, Revision A.03,
 Gaussian 16:  ES64L-G16RevA.03 25-Dec-2016

 ----------------------------------------------------------------------
 # wB97XD def2tzvp, opt=(ts, noeigen, calcfc, maxcycles=70, maxstep=1),
  freq=noraman, scrf=(iefpcm, solvent=water)
 ----------------------------------------------------------------------

 ------------------------
 0_iteration/TS-745-0.out
 ------------------------
 Symbolic Z-matrix:
 Charge =  0 Multiplicity = 1

 SCF Done:  E(RwB97XD) =  -8008.61416040     A.U. after   15 cycles
 SCF Done:  E(RwB97XD) =  -8008.61404899     A.U. after   11 cycles
 SCF Done:  E(RwB97XD) =  -8008.61394172     A.U. after   11 cycles
 SCF Done:  E(RwB97XD) =  -8008.61383864     A.U. after   11 cycles
 SCF Done:  E(RwB97XD) =  -8008.61373975     A.U. after   11 cycles
 SCF Done:  E(RwB97XD) =  -8008.61364502     A.U. after   11 cycles
 SCF Done:  E(RwB97XD) =  -8008.61355439     A.U. after   11 cycles
 SCF Done:  E(RwB97XD) =  -8008.61346785     A.U. after   10 cycles
 SCF Done:  E(RwB97XD) =  -8008.61338535     A.U. after   10 cycles
 SCF Done:  E(RwB97XD) =  -8008.61330683     A.U. after   10 cycles
 SCF Done:  E(RwB97XD) =  -8008.61433079     A.U. after   10 cycles
 SCF Done:  E(RwB97XD) =  -8008.61434223     A.U. after   10 cycles
 SCF Done:  E(RwB97XD) =  -8008.61435050     A.U. after   10 cycles
 SCF Done:  E(RwB97XD) =  -8008.61435646     A.U. after   10 cycles
 SCF Done:  E(RwB97XD) =  -8008.61435983     A.U. after   10 cycles
 SCF Done:  E(RwB97XD) =  -8008.61436012     A.U. after    9 cycles
 SCF Done:  E(RwB97XD) =  -8008.61436027     A.U. after    8 cycles
 SCF Done:  E(RwB97XD) =  -8008.61436027     A.U. after    7 cycles
 SCF Done:  E(RwB97XD) =  -8008.61436026     A.U. after    7 cycles
 Optimization completed.
    -- Stationary point found.
 Normal termination of Gaussian 16 at Sun Feb 21 21:54:43 2021.

 ---------------------------------------------------------------------
 #N Geom=AllCheck Guess=TCheck SCRF=Check GenChk RwB97XD/def2TZVP Freq
 ---------------------------------------------------------------------

 Structure from the checkpoint file:  "/beegfs/scratch/user/q/tla25/Gau-13069.chk"
 ------------------------
 0_iteration/TS-745-0.out
 ------------------------
 Charge =  0 Multiplicity = 1

                         Standard orientation:
 ---------------------------------------------------------------------
 Center     Atomic      Atomic             Coordinates (Angstroms)
 Number     Number       Type             X           Y           Z
 ---------------------------------------------------------------------
      1          6           0       -0.739994   -0.587915   -0.338957
      2          6           0       -0.886824   -1.957230   -0.740418
      3          8           0       -1.945541   -2.532367   -0.935512
      4          6           0        0.456298    0.028106   -0.030858
      5          6           0        0.366236   -1.315908    2.502334
      6          1           0        1.128307   -2.021112    2.175136
      7          1           0        0.319490   -1.318329    3.591366
      8          1           0       -0.601380   -1.629620    2.109077
      9          7           0        0.676398    0.004919    1.982105
     10          1           0        0.024021    0.704578    2.317707
     11          1           0        1.616542    0.306551    2.211183
     12         35           0        0.645030    1.930115   -0.236918
     13         35           0        2.086988   -0.861500   -0.499601
     14         35           0       -2.357605    0.350553   -0.013705
     15          1           0        0.063814   -2.490762   -0.889875
 ---------------------------------------------------------------------

 SCF Done:  E(RwB97XD) =  -8008.61436026     A.U. after    1 cycles

 The electronic state is 1-A.
 Alpha  occ. eigenvalues -- -483.15580-483.15098-483.13474 -62.70410 -62.69941
 Alpha  occ. eigenvalues --  -62.68303 -56.49558 -56.49158 -56.49147 -56.49083
 Alpha  occ. eigenvalues --  -56.48692 -56.48675 -56.47423 -56.47066 -56.47053
 Alpha  occ. eigenvalues --  -19.23249 -14.49019 -10.45390 -10.37050 -10.33452
 Alpha  occ. eigenvalues --  -10.32116  -8.84515  -8.84052  -8.82415  -6.66760
 Alpha  occ. eigenvalues --   -6.66285  -6.65485  -6.65454  -6.65039  -6.64988
 Alpha  occ. eigenvalues --   -6.64579  -6.63432  -6.63395  -2.77132  -2.76765
 Alpha  occ. eigenvalues --   -2.76742  -2.76658  -2.76307  -2.76267  -2.75712
 Alpha  occ. eigenvalues --   -2.75711  -2.75260  -2.75260  -2.74969  -2.74635
 Alpha  occ. eigenvalues --   -2.74606  -2.73678  -2.73678  -1.13849  -1.04643
 Alpha  occ. eigenvalues --   -0.98370  -0.91383  -0.89174  -0.82865  -0.79332
 Alpha  occ. eigenvalues --   -0.73330  -0.63937  -0.62680  -0.58839  -0.57847
 Alpha  occ. eigenvalues --   -0.55544  -0.54698  -0.50904  -0.49406  -0.48413
 Alpha  occ. eigenvalues --   -0.47029  -0.46617  -0.41936  -0.40340  -0.39376
 Alpha  occ. eigenvalues --   -0.39035  -0.37889  -0.36139  -0.34187  -0.30056
 Alpha virt. eigenvalues --    0.00028   0.02379   0.03444   0.10385   0.11412
 Alpha virt. eigenvalues --    0.11983   0.14591   0.15143   0.17591   0.17813
 Alpha virt. eigenvalues --    0.19527   0.21298   0.21978   0.23163   0.23656

 Mulliken charges:
               1
     1  C   -0.182974
     2  C    0.098083
     3  O   -0.441438
     4  C    0.122371
     5  C   -0.305380
     6  H    0.161329
     7  H    0.167208
     8  H    0.163534
     9  N   -0.374477
    10  H    0.290736
    11  H    0.299105
    12  Br  -0.009402
    13  Br  -0.010710
    14  Br  -0.091880
    15  H    0.113895
 Sum of Mulliken charges =   0.00000

 Dipole moment (field-independent basis, Debye):
    X=              6.5342    Y=              2.5724    Z=              6.8472  Tot=              9.8081
 Quadrupole moment (field-independent basis, Debye-Ang):
   XX=            -98.8599   YY=            -97.1338   ZZ=            -79.2072
   XY=            -11.4136   XZ=             -0.8820   YZ=             -4.0969

  Exact polarizability: 203.182   8.422 184.831  12.353  12.854 152.959
 Approx polarizability: 164.354   4.928 154.983   7.594  11.033 129.660

 ******    1 imaginary frequencies (negative Signs) ******

                      1                      2                      3
                      A                      A                      A
 Frequencies --   -359.0257                51.7853                70.9922
 Red. masses --      5.7813                11.8789                 2.6173
 Frc consts  --      0.4391                 0.0188                 0.0078
 IR Inten    --    735.0439                 1.2424                 0.1876

                      4                      5                      6
                      A                      A                      A
 Frequencies --    106.9408               121.6088               139.9752
 Red. masses --      2.9151                 8.0869                 2.3861
 Frc consts  --      0.0196                 0.0705                 0.0275
 IR Inten    --      5.4719                 2.5100                 1.2527

                      7                      8                      9
                      A                      A                      A
 Frequencies --    168.2385               178.4139               193.2933
 Red. masses --      8.7904                 2.1534                10.3793
 Frc consts  --      0.1466                 0.0404                 0.2285
 IR Inten    --      6.8962                 1.9032                11.9373

                     10                     11                     12
                      A                      A                      A
 Frequencies --    221.8451               246.5033               265.2805
 Red. masses --      9.2007                 4.6399                 3.8828
 Frc consts  --      0.2668                 0.1661                 0.1610
 IR Inten    --     11.5688                 7.6233                13.0344

                     13                     14                     15
                      A                      A                      A
 Frequencies --    299.3789               351.9099               508.5492
 Red. masses --      4.3432                 5.5328                 4.9861
 Frc consts  --      0.2294                 0.4037                 0.7598
 IR Inten    --      5.1096                 1.2487                98.0456

                     16                     17                     18
                      A                      A                      A
 Frequencies --    585.5867               621.5310               755.8623
 Red. masses --      3.3928                 1.9687                 5.5803
 Frc consts  --      0.6855                 0.4481                 1.8784
 IR Inten    --     55.4689                31.8513               198.8645

                     19                     20                     21
                      A                      A                      A
 Frequencies --    797.1238               982.9995              1011.3514
 Red. masses --      7.7902                 1.0818                 1.1775
 Frc consts  --      2.9164                 0.6159                 0.7096
 IR Inten    --    123.8978                63.4487                69.0776

                     22                     23                     24
                      A                      A                      A
 Frequencies --   1015.7751              1085.1024              1195.6945
 Red. masses --      1.5457                 4.6725                 5.3659
 Frc consts  --      0.9397                 3.2415                 4.5199
 IR Inten    --     20.9521                21.7748               306.4713

                     25                     26                     27
                      A                      A                      A
 Frequencies --   1202.3389              1340.4210              1384.6415
 Red. masses --      1.4612                 1.3371                 3.0006
 Frc consts  --      1.2446                 1.4155                 3.3895
 IR Inten    --     36.0702                 1.8966               920.2184

                     28                     29                     30
                      A                      A                      A
 Frequencies --   1454.6630              1472.8184              1491.2931
 Red. masses --      1.2128                 1.6555                 1.0431
 Frc consts  --      1.5121                 2.1158                 1.3668
 IR Inten    --     45.9313               240.7914                19.7535

                     31                     32                     33
                      A                      A                      A
 Frequencies --   1501.6070              1641.4552              1701.2283
 Red. masses --      1.0324                 1.0909                 9.5124
 Frc consts  --      1.3715                 1.7318                16.2206
 IR Inten    --     17.7214                60.3967               891.0331

                     34                     35                     36
                      A                      A                      A
 Frequencies --   3012.8800              3066.4686              3142.1553
 Red. masses --      1.0836                 1.0331                 1.1044
 Frc consts  --      5.7951                 5.7233                 6.4245
 IR Inten    --     59.1374                22.0758                 8.9663

                     37                     38                     39
                      A                      A                      A
 Frequencies --   3162.4770              3520.7292              3607.6761
 Red. masses --      1.1052                 1.0503                 1.0973
 Frc consts  --      6.5127                 7.6703                 8.4143
 IR Inten    --     10.3348                80.6146                59.8682

 - Thermochemistry -
 -------------------
 Temperature   298.150 Kelvin.  Pressure   1.00000 Atm.
 Atom     1 has atomic number  6 and mass  12.00000

 Molecular mass:   320.79995 amu.
 Principal axes and moments of inertia in atomic units:
                           1         2         3
     Eigenvalues --  2706.549033983.319335203.98111
           X            0.99923   0.03195   0.02277
           Y           -0.03138   0.99920  -0.02487
           Z           -0.02355   0.02413   0.99943
 This molecule is an asymmetric top.
 Rotational symmetry number  1.
 Warning -- assumption of classical behavior for rotation
           may cause significant error
 Rotational temperatures (Kelvin)      0.03200     0.02174     0.01664
 Rotational constants (GHZ):           0.66681     0.45307     0.34680
    1 imaginary frequencies ignored.
 Zero-point vibrational energy     261256.0 (Joules/Mol)
                                   62.44169 (Kcal/Mol)
 Warning -- explicit consideration of  15 degrees of freedom as
           vibrations may cause significant error
 Vibrational temperatures:     74.51   102.14   153.86   174.97   201.39
          (Kelvin)            242.06   256.70   278.11   319.19   354.66
                              381.68   430.74   506.32   731.69   842.53
                              894.24  1087.52  1146.88  1414.32  1455.11
                             1461.47  1561.22  1720.34  1729.90  1928.57
                             1992.19  2092.94  2119.06  2145.64  2160.48
                             2361.69  2447.69  4334.86  4411.96  4520.86
                             4550.10  5065.54  5190.64

 Zero-point correction=                           0.099507 (Hartree/Particle)
 Thermal correction to Energy=                    0.111001
 Thermal correction to Enthalpy=                  0.111945
 Thermal correction to Gibbs Free Energy=         0.059168
 Sum of electronic and zero-point Energies=          -8008.514853
 Sum of electronic and thermal Energies=             -8008.503359
 Sum of electronic and thermal Enthalpies=           -8008.502415
 Sum of electronic and thermal Free Energies=        -8008.555192

                     E (Thermal)             CV                S
                      KCal/Mol        Cal/Mol-Kelvin    Cal/Mol-Kelvin
 Total                   69.654             36.986            111.078
 Electronic               0.000              0.000              0.000
 Translational            0.889              2.981             43.193
 Rotational               0.889              2.981             32.395
 Vibrational             67.877             31.024             35.490
 Vibration     1          0.596              1.977              4.748
 Vibration     2          0.598              1.968              4.126
 Vibration     3          0.606              1.944              3.324
 Vibration     4          0.609              1.931              3.075
 Vibration     5          0.615              1.913              2.804
 Vibration     6          0.625              1.882              2.455
 Vibration     7          0.629              1.869              2.345
 Vibration     8          0.635              1.849              2.196
 Vibration     9          0.648              1.808              1.944
 Vibration    10          0.661              1.769              1.755
 Vibration    11          0.671              1.737              1.627
 Vibration    12          0.692              1.675              1.420
 Vibration    13          0.728              1.571              1.158
 Vibration    14          0.864              1.231              0.637
 Vibration    15          0.943              1.063              0.475

 Optimization completed.
    -- Stationary point found.
 Normal termination of Gaussian 16 at Sun Feb 21 22:06:43 2021.
