 Gaussian 16, Revision A.03,
 Gaussian 16:  ES64L-G16RevA.03 25-Dec-2016

 ----------------------------------------------------------------------
 # wB97XD def2tzvp, opt=(ts, noeigen, calcfc, maxcycles=70, maxstep=8),
  freq=noraman, scrf=(iefpcm, solvent=water)
 ----------------------------------------------------------------------

 ------------------------
 1_iteration/TS-721-1.out
 ------------------------
 Symbolic Z-matrix:
 Charge =  0 Multiplicity = 1

 SCF Done:  E(RwB97XD) =  -5666.05519153     A.U. after   15 cycles
 SCF Done:  E(RwB97XD) =  -5666.05520147     A.U. after   11 cycles
 SCF Done:  E(RwB97XD) =  -5666.05520324     A.U. after   10 cycles
 SCF Done:  E(RwB97XD) =  -5666.05520387     A.U. after   10 cycles
 SCF Done:  E(RwB97XD) =  -5666.05520364     A.U. after    9 cycles
 Optimization completed.
    -- Stationary point found.
 Normal termination of Gaussian 16 at Mon Feb 22 09:00:59 2021.

 ---------------------------------------------------------------------
 #N Geom=AllCheck Guess=TCheck SCRF=Check GenChk RwB97XD/def2TZVP Freq
 ---------------------------------------------------------------------

 Structure from the checkpoint file:  "/beegfs/scratch/user/q/tla25/Gau-89202.chk"
 ------------------------
 1_iteration/TS-721-1.out
 ------------------------
 Charge =  0 Multiplicity = 1

                         Standard orientation:
 ---------------------------------------------------------------------
 Center     Atomic      Atomic             Coordinates (Angstroms)
 Number     Number       Type             X           Y           Z
 ---------------------------------------------------------------------
      1          6           0        0.219304    0.812893   -0.377615
      2          6           0       -0.048244    2.129109   -0.871858
      3          8           0        0.808397    2.954532   -1.176429
      4          6           0       -0.791265   -0.056230    0.004651
      5          6           0       -1.247224    1.404464    2.379507
      6          1           0       -0.523957    2.034658    1.857803
      7          1           0       -2.252171    1.737838    2.132025
      8          1           0       -1.087603    1.496390    3.452917
      9          7           0       -1.067898    0.031392    1.933111
     10          1           0       -0.220328   -0.379631    2.309633
     11          1           0       -1.846576   -0.567030    2.186282
     12         35           0       -0.420868   -1.960085   -0.059467
     13         35           0       -2.605628    0.279063   -0.551767
     14          6           0        1.646479    0.424807   -0.186668
     15          6           0        2.382379   -0.101592   -1.245832
     16          6           0        3.713192   -0.451859   -1.080507
     17          6           0        4.331697   -0.278620    0.150644
     18          6           0        3.613520    0.255041    1.209827
     19          6           0        2.281958    0.608149    1.038350
     20          1           0        1.899685   -0.242138   -2.205400
     21          1           0        4.269368   -0.862547   -1.913963
     22          1           0        5.370424   -0.554533    0.281469
     23          1           0        4.089545    0.401822    2.171206
     24          1           0        1.737732    1.044778    1.867730
     25          1           0       -1.111416    2.393199   -0.989838
 ---------------------------------------------------------------------

 SCF Done:  E(RwB97XD) =  -5666.05520364     A.U. after    1 cycles

 The electronic state is 1-A.
 Alpha  occ. eigenvalues -- -483.14861-483.14448 -62.69695 -62.69285 -56.48833
 Alpha  occ. eigenvalues --  -56.48447 -56.48438 -56.48418 -56.48042 -56.48027
 Alpha  occ. eigenvalues --  -19.21908 -14.49983 -10.44766 -10.35611 -10.32364
 Alpha  occ. eigenvalues --  -10.30392 -10.29171 -10.29096 -10.29054 -10.28986
 Alpha  occ. eigenvalues --  -10.28897 -10.28460  -8.83800  -8.83387  -6.66014
 Alpha  occ. eigenvalues --   -6.65585  -6.64784  -6.64757  -6.64390  -6.64342
 Alpha  occ. eigenvalues --   -2.76390  -2.76037  -2.76017  -2.75962  -2.75628
 Alpha  occ. eigenvalues --   -2.75590  -2.75023  -2.75023  -2.74624  -2.74623
 Alpha  occ. eigenvalues --   -1.12260  -1.05462  -0.97848  -0.95869  -0.88725
 Alpha  occ. eigenvalues --   -0.88217  -0.85164  -0.82667  -0.79783  -0.71884
 Alpha  occ. eigenvalues --   -0.70767  -0.70470  -0.64741  -0.63777  -0.59719
 Alpha  occ. eigenvalues --   -0.58677  -0.57559  -0.55918  -0.55050  -0.54093
 Alpha  occ. eigenvalues --   -0.52866  -0.50999  -0.49851  -0.49038  -0.47950
 Alpha  occ. eigenvalues --   -0.47724  -0.46443  -0.46241  -0.42971  -0.42919
 Alpha  occ. eigenvalues --   -0.40798  -0.39107  -0.37971  -0.37346  -0.33863
 Alpha  occ. eigenvalues --   -0.33244  -0.32825  -0.29649
 Alpha virt. eigenvalues --    0.01271   0.02807   0.05082   0.05195   0.07068
 Alpha virt. eigenvalues --    0.10141   0.12887   0.13513   0.14279   0.14826
 Alpha virt. eigenvalues --    0.15776   0.17172   0.17479   0.18119   0.19086

 Mulliken charges:
               1
     1  C   -0.266698
     2  C    0.135785
     3  O   -0.477603
     4  C    0.148907
     5  C   -0.319068
     6  H    0.165221
     7  H    0.169416
     8  H    0.173036
     9  N   -0.330737
    10  H    0.292428
    11  H    0.302454
    12  Br  -0.042695
    13  Br  -0.038245
    14  C    0.209058
    15  C   -0.235987
    16  C   -0.145301
    17  C   -0.130668
    18  C   -0.177342
    19  C   -0.251826
    20  H    0.140530
    21  H    0.141830
    22  H    0.144371
    23  H    0.141270
    24  H    0.162519
    25  H    0.089345
 Sum of Mulliken charges =  -0.00000

 Dipole moment (field-independent basis, Debye):
    X=             -3.7506    Y=             -4.2782    Z=              7.8415  Tot=              9.6881
 Quadrupole moment (field-independent basis, Debye-Ang):
   XX=            -99.5338   YY=           -125.0475   ZZ=            -92.6960
   XY=            -10.8087   XZ=             -2.7731   YZ=             10.1206

  Exact polarizability: 274.947  -2.290 227.790  -7.428  -5.896 230.826
 Approx polarizability: 214.487  -2.409 190.698  -3.997  -4.053 197.040

 ******    1 imaginary frequencies (negative Signs) ******

                      1                      2                      3
                      A                      A                      A
 Frequencies --   -353.4289                24.9473                48.2539
 Red. masses --      5.9509                 4.2875                 5.3164
 Frc consts  --      0.4380                 0.0016                 0.0073
 IR Inten    --    747.0182                 1.0674                 1.7551

                      4                      5                      6
                      A                      A                      A
 Frequencies --     64.4128                89.5072               120.9836
 Red. masses --      7.4694                 4.2378                 4.1075
 Frc consts  --      0.0183                 0.0200                 0.0354
 IR Inten    --      1.6501                 0.9880                 1.7744

                      7                      8                      9
                      A                      A                      A
 Frequencies --    138.1303               156.8183               160.2890
 Red. masses --      1.7492                 2.3031                 9.4365
 Frc consts  --      0.0197                 0.0334                 0.1428
 IR Inten    --      3.5619                 2.9996                 3.2287

                     10                     11                     12
                      A                      A                      A
 Frequencies --    181.0368               207.2565               233.4731
 Red. masses --      5.8277                 4.5858                 3.8732
 Frc consts  --      0.1125                 0.1161                 0.1244
 IR Inten    --      0.9568                12.6995                26.1144

                     13                     14                     15
                      A                      A                      A
 Frequencies --    244.0406               259.5939               281.1254
 Red. masses --      3.2170                 3.8206                 4.1728
 Frc consts  --      0.1129                 0.1517                 0.1943
 IR Inten    --      8.2922                 6.3727                25.6131

                     16                     17                     18
                      A                      A                      A
 Frequencies --    314.4255               418.2579               422.7021
 Red. masses --      7.0097                 4.7895                 2.8932
 Frc consts  --      0.4083                 0.4937                 0.3046
 IR Inten    --      2.8463                14.9323                 0.1379

                     19                     20                     21
                      A                      A                      A
 Frequencies --    503.4900               541.6817               593.6837
 Red. masses --      4.4022                 4.8760                 3.7903
 Frc consts  --      0.6575                 0.8429                 0.7871
 IR Inten    --      6.6885                45.8498                64.1131

                     22                     23                     24
                      A                      A                      A
 Frequencies --    643.0595               660.6269               724.5455
 Red. masses --      4.6174                 2.1377                 4.0785
 Frc consts  --      1.1250                 0.5497                 1.2615
 IR Inten    --      3.4567                36.2630                97.4605

                     25                     26                     27
                      A                      A                      A
 Frequencies --    730.6335               771.4429               803.7698
 Red. masses --      1.4935                 3.0852                 5.4781
 Frc consts  --      0.4697                 1.0818                 2.0852
 IR Inten    --    192.7256                99.0034                88.8637

                     28                     29                     30
                      A                      A                      A
 Frequencies --    837.5005               880.4768               960.6702
 Red. masses --      3.1457                 1.2447                 1.4720
 Frc consts  --      1.3000                 0.5685                 0.8004
 IR Inten    --    102.8648                 0.1093                 8.2228

                     31                     32                     33
                      A                      A                      A
 Frequencies --   1004.6503              1012.4192              1026.2487
 Red. masses --      1.0883                 1.3807                 1.7165
 Frc consts  --      0.6472                 0.8338                 1.0651
 IR Inten    --     25.9286                 0.3001                 1.7088

                     34                     35                     36
                      A                      A                      A
 Frequencies --   1027.0774              1030.5872              1042.3570
 Red. masses --      5.5508                 1.3185                 1.1259
 Frc consts  --      3.4499                 0.8251                 0.7207
 IR Inten    --      2.6383                 0.3355               116.4787

                     37                     38                     39
                      A                      A                      A
 Frequencies --   1060.0627              1080.3679              1111.2509
 Red. masses --      2.3669                 4.9529                 1.5609
 Frc consts  --      1.5671                 3.4061                 1.1357
 IR Inten    --      5.2157                32.7205                19.8178

                     40                     41                     42
                      A                      A                      A
 Frequencies --   1147.1406              1183.1989              1208.2702
 Red. masses --      3.2905                 1.1347                 1.1271
 Frc consts  --      2.5512                 0.9360                 0.9695
 IR Inten    --     59.9649                 0.0650                 0.6009

                     43                     44                     45
                      A                      A                      A
 Frequencies --   1216.7031              1310.7997              1319.3162
 Red. masses --      1.3834                 4.4376                 4.2906
 Frc consts  --      1.2066                 4.4924                 4.4001
 IR Inten    --     26.5453                24.0112              1051.9349

                     46                     47                     48
                      A                      A                      A
 Frequencies --   1337.3946              1358.3490              1403.7341
 Red. masses --      1.3243                 1.4520                 3.2669
 Frc consts  --      1.3956                 1.5785                 3.7927
 IR Inten    --      1.0574                 2.4577               313.4781

                     49                     50                     51
                      A                      A                      A
 Frequencies --   1453.5908              1472.4589              1487.7644
 Red. masses --      1.2103                 1.6392                 2.1892
 Frc consts  --      1.5067                 2.0940                 2.8549
 IR Inten    --     26.0823               170.4729                 6.1266

                     52                     53                     54
                      A                      A                      A
 Frequencies --   1493.9940              1500.3342              1547.0328
 Red. masses --      1.0532                 1.0370                 2.4850
 Frc consts  --      1.3850                 1.3753                 3.5040
 IR Inten    --      4.9686                19.0925                46.3381

                     55                     56                     57
                      A                      A                      A
 Frequencies --   1646.0690              1648.7322              1668.1604
 Red. masses --      1.6041                 2.1416                 7.0145
 Frc consts  --      2.5608                 3.4299                11.5006
 IR Inten    --     50.8611                39.3800               398.0348

                     58                     59                     60
                      A                      A                      A
 Frequencies --   1680.6044              2988.4704              3064.3548
 Red. masses --      6.9513                 1.0829                 1.0354
 Frc consts  --     11.5677                 5.6983                 5.7282
 IR Inten    --    531.6661                97.4242                21.8971

                     61                     62                     63
                      A                      A                      A
 Frequencies --   3140.9067              3173.3021              3188.5193
 Red. masses --      1.1017                 1.1056                 1.0872
 Frc consts  --      6.4036                 6.5593                 6.5122
 IR Inten    --      6.9590                 7.7815                10.4497

                     64                     65                     66
                      A                      A                      A
 Frequencies --   3193.4914              3202.6496              3210.6520
 Red. masses --      1.0875                 1.0911                 1.0951
 Frc consts  --      6.5343                 6.5939                 6.6511
 IR Inten    --      1.4888                11.4881                41.9177

                     67                     68                     69
                      A                      A                      A
 Frequencies --   3221.2719              3516.2866              3601.0471
 Red. masses --      1.0989                 1.0506                 1.0972
 Frc consts  --      6.7182                 7.6531                 8.3825
 IR Inten    --     18.8186                66.0129                68.5572

 - Thermochemistry -
 -------------------
 Temperature   298.150 Kelvin.  Pressure   1.00000 Atm.
 Atom     1 has atomic number  6 and mass  12.00000

 Molecular mass:   318.92074 amu.
 Principal axes and moments of inertia in atomic units:
                           1         2         3
     Eigenvalues --  3037.886395997.316036981.97577
           X            0.99972  -0.01067  -0.02104
           Y            0.01177   0.99853   0.05283
           Z            0.02044  -0.05306   0.99838
 This molecule is an asymmetric top.
 Rotational symmetry number  1.
 Warning -- assumption of classical behavior for rotation
           may cause significant error
 Rotational temperatures (Kelvin)      0.02851     0.01444     0.01241
 Rotational constants (GHZ):           0.59408     0.30092     0.25849
    1 imaginary frequencies ignored.
 Zero-point vibrational energy     502410.4 (Joules/Mol)
                                  120.07896 (Kcal/Mol)
 Warning -- explicit consideration of  20 degrees of freedom as
           vibrations may cause significant error
 Vibrational temperatures:     35.89    69.43    92.68   128.78   174.07
          (Kelvin)            198.74   225.63   230.62   260.47   298.20
                              335.92   351.12   373.50   404.48   452.39
                              601.78   608.17   724.41   779.36   854.18
                              925.22   950.49  1042.46  1051.22  1109.93
                             1156.45  1204.98  1266.81  1382.19  1445.47
                             1456.65  1476.54  1477.74  1482.79  1499.72
                             1525.19  1554.41  1598.84  1650.48  1702.36
                             1738.43  1750.56  1885.95  1898.20  1924.21
                             1954.36  2019.66  2091.39  2118.54  2140.56
                             2149.52  2158.65  2225.84  2368.33  2372.16
                             2400.11  2418.01  4299.74  4408.92  4519.06
                             4565.67  4587.57  4594.72  4607.90  4619.41
                             4634.69  5059.15  5181.10

 Zero-point correction=                           0.191358 (Hartree/Particle)
 Thermal correction to Energy=                    0.205964
 Thermal correction to Enthalpy=                  0.206908
 Thermal correction to Gibbs Free Energy=         0.147158
 Sum of electronic and zero-point Energies=          -5665.863846
 Sum of electronic and thermal Energies=             -5665.849239
 Sum of electronic and thermal Enthalpies=           -5665.848295
 Sum of electronic and thermal Free Energies=        -5665.908046

                     E (Thermal)             CV                S
                      KCal/Mol        Cal/Mol-Kelvin    Cal/Mol-Kelvin
 Total                  129.244             51.548            125.755
 Electronic               0.000              0.000              0.000
 Translational            0.889              2.981             43.175
 Rotational               0.889              2.981             33.208
 Vibrational            127.467             45.586             49.372
 Vibration     1          0.593              1.985              6.195
 Vibration     2          0.595              1.978              4.888
 Vibration     3          0.597              1.971              4.317
 Vibration     4          0.602              1.957              3.671
 Vibration     5          0.609              1.932              3.085
 Vibration     6          0.614              1.915              2.830
 Vibration     7          0.620              1.895              2.588
 Vibration     8          0.622              1.891              2.546
 Vibration     9          0.630              1.865              2.318
 Vibration    10          0.641              1.830              2.068
 Vibration    11          0.654              1.790              1.852
 Vibration    12          0.659              1.773              1.773
 Vibration    13          0.668              1.747              1.665
 Vibration    14          0.681              1.709              1.527
 Vibration    15          0.702              1.646              1.339
 Vibration    16          0.781              1.431              0.898
 Vibration    17          0.785              1.421              0.883
 Vibration    18          0.859              1.242              0.649
 Vibration    19          0.897              1.158              0.562
 Vibration    20          0.951              1.045              0.461

 Optimization completed.
    -- Stationary point found.
 Normal termination of Gaussian 16 at Mon Feb 22 09:50:59 2021.
