 Gaussian 16, Revision A.03,
 Gaussian 16:  ES64L-G16RevA.03 25-Dec-2016

 ----------------------------------------------------------------------
 # wB97XD def2tzvp, opt=(ts, noeigen, calcfc, maxcycles=70, maxstep=3),
  freq=noraman, scrf=(iefpcm, solvent=water)
 ----------------------------------------------------------------------

 ------------------------
 0_iteration/TS-779-0.out
 ------------------------
 Symbolic Z-matrix:
 Charge =  0 Multiplicity = 1

 SCF Done:  E(RwB97XD) =  -3415.69392956     A.U. after   16 cycles
 SCF Done:  E(RwB97XD) =  -3415.69410170     A.U. after   12 cycles
 SCF Done:  E(RwB97XD) =  -3415.69427518     A.U. after   12 cycles
 SCF Done:  E(RwB97XD) =  -3415.69443486     A.U. after   12 cycles
 SCF Done:  E(RwB97XD) =  -3415.69458272     A.U. after   12 cycles
 SCF Done:  E(RwB97XD) =  -3415.69473652     A.U. after   12 cycles
 SCF Done:  E(RwB97XD) =  -3415.69488226     A.U. after   12 cycles
 SCF Done:  E(RwB97XD) =  -3415.69500804     A.U. after   12 cycles
 SCF Done:  E(RwB97XD) =  -3415.69511375     A.U. after   12 cycles
 SCF Done:  E(RwB97XD) =  -3415.69518653     A.U. after   12 cycles
 SCF Done:  E(RwB97XD) =  -3415.69545038     A.U. after   11 cycles
 SCF Done:  E(RwB97XD) =  -3415.69545109     A.U. after   11 cycles
 SCF Done:  E(RwB97XD) =  -3415.69545967     A.U. after   11 cycles
 SCF Done:  E(RwB97XD) =  -3415.69546017     A.U. after    9 cycles
 SCF Done:  E(RwB97XD) =  -3415.69545971     A.U. after   10 cycles
 SCF Done:  E(RwB97XD) =  -3415.69546030     A.U. after   10 cycles
 SCF Done:  E(RwB97XD) =  -3415.69546039     A.U. after    7 cycles
 SCF Done:  E(RwB97XD) =  -3415.69545579     A.U. after   10 cycles
 SCF Done:  E(RwB97XD) =  -3415.69546034     A.U. after   10 cycles
 Optimization completed.
    -- Stationary point found.
 Normal termination of Gaussian 16 at Tue Apr 13 18:47:36 2021.

 ---------------------------------------------------------------------
 #N Geom=AllCheck Guess=TCheck SCRF=Check GenChk RwB97XD/def2TZVP Freq
 ---------------------------------------------------------------------

 Structure from the checkpoint file:  "/beegfs/scratch/user/q/tla25/Gau-122715.chk"
 ------------------------
 0_iteration/TS-779-0.out
 ------------------------
 Charge =  0 Multiplicity = 1

                         Standard orientation:
 ---------------------------------------------------------------------
 Center     Atomic      Atomic             Coordinates (Angstroms)
 Number     Number       Type             X           Y           Z
 ---------------------------------------------------------------------
      1          6           0        0.868638   -0.655566    0.234005
      2          6           0        2.243477   -0.617613   -0.250997
      3          8           0        2.988055   -1.591452   -0.074015
      4          6           0       -0.170267    0.203136   -0.063522
      5          6           0        0.514460    1.951648    1.907599
      6          1           0        0.296472    2.356241    2.893858
      7          1           0        1.334021    1.235498    1.978710
      8          1           0        0.791888    2.759257    1.234819
      9          7           0       -0.647195    1.251091    1.368476
     10          1           0       -1.036346    0.606358    2.048326
     11          1           0       -1.387503    1.883219    1.080334
     12         35           0       -1.992951   -0.644539   -0.284164
     13         17           0       -0.036529    1.442104   -1.306012
     14          6           0        0.568665   -1.806526    1.169612
     15          1           0       -0.222105   -1.566127    1.881920
     16          1           0        0.254441   -2.708205    0.634303
     17          1           0        1.461114   -2.058759    1.738899
     18          7           0        2.755061    0.464815   -0.911056
     19          1           0        2.325866    1.368830   -0.864015
     20          1           0        3.747090    0.436585   -1.069212
 ---------------------------------------------------------------------

 SCF Done:  E(RwB97XD) =  -3415.69546034     A.U. after    1 cycles

 The electronic state is 1-A.
 Alpha  occ. eigenvalues -- -483.12825-101.71751 -62.67687 -56.46794 -56.46450
 Alpha  occ. eigenvalues --  -56.46439 -19.19669 -14.51325 -14.43398 -10.44776
 Alpha  occ. eigenvalues --  -10.38041 -10.32585 -10.27227 -10.27146  -9.60356
 Alpha  occ. eigenvalues --   -8.81794  -7.35018  -7.34119  -7.34094  -6.63914
 Alpha  occ. eigenvalues --   -6.62833  -6.62797  -2.74293  -2.74001  -2.73973
 Alpha  occ. eigenvalues --   -2.73098  -2.73097  -1.12417  -1.06984  -0.99877
 Alpha  occ. eigenvalues --   -0.98083  -0.89990  -0.86160  -0.80229  -0.76982
 Alpha  occ. eigenvalues --   -0.71471  -0.65588  -0.64396  -0.60805  -0.59007
 Alpha  occ. eigenvalues --   -0.58115  -0.56588  -0.52256  -0.50861  -0.50077
 Alpha  occ. eigenvalues --   -0.49067  -0.47986  -0.47250  -0.45984  -0.45113
 Alpha  occ. eigenvalues --   -0.41630  -0.40969  -0.37760  -0.37024  -0.34798
 Alpha  occ. eigenvalues --   -0.33575  -0.27354
 Alpha virt. eigenvalues --    0.02245   0.06287   0.08656   0.09900   0.12583
 Alpha virt. eigenvalues --    0.14010   0.15443   0.15880   0.16790   0.17703
 Alpha virt. eigenvalues --    0.19314   0.20223   0.21135   0.21621   0.22851

 Mulliken charges:
               1
     1  C   -0.248203
     2  C    0.310103
     3  O   -0.531938
     4  C    0.075694
     5  C   -0.314349
     6  H    0.172464
     7  H    0.168644
     8  H    0.167413
     9  N   -0.254068
    10  H    0.293605
    11  H    0.304793
    12  Br  -0.143220
    13  Cl  -0.058575
    14  C   -0.372274
    15  H    0.117156
    16  H    0.127710
    17  H    0.133551
    18  N   -0.466918
    19  H    0.256128
    20  H    0.262286
 Sum of Mulliken charges =   0.00000

 Dipole moment (field-independent basis, Debye):
    X=             -4.0586    Y=              8.9708    Z=              5.0800  Tot=             11.0794
 Quadrupole moment (field-independent basis, Debye-Ang):
   XX=            -90.8122   YY=            -78.2976   ZZ=            -72.4578
   XY=             12.6623   XZ=             -4.6326   YZ=              4.7394

  Exact polarizability: 202.735  -7.917 165.878  -1.868  -3.612 138.012
 Approx polarizability: 156.265  -6.545 139.373  -1.639  -4.729 119.080

 ******    1 imaginary frequencies (negative Signs) ******

                      1                      2                      3
                      A                      A                      A
 Frequencies --   -402.0134                49.1854                62.1614
 Red. masses --      5.9553                 3.5414                 2.5621
 Frc consts  --      0.5671                 0.0050                 0.0058
 IR Inten    --    630.4815                 5.7433                 3.5577

                      4                      5                      6
                      A                      A                      A
 Frequencies --     64.3671               115.9062               150.7096
 Red. masses --      5.2144                 1.3084                 4.4144
 Frc consts  --      0.0127                 0.0104                 0.0591
 IR Inten    --     10.9877                 3.0274                 1.7715

                      7                      8                      9
                      A                      A                      A
 Frequencies --    160.4720               177.2208               203.2517
 Red. masses --      1.4148                 2.0291                 9.8283
 Frc consts  --      0.0215                 0.0375                 0.2392
 IR Inten    --      3.6725                10.8384                55.5979

                     10                     11                     12
                      A                      A                      A
 Frequencies --    224.5657               263.0589               270.7709
 Red. masses --      6.5168                 3.4094                 3.5829
 Frc consts  --      0.1936                 0.1390                 0.1548
 IR Inten    --      0.7635                59.4488                63.0089

                     13                     14                     15
                      A                      A                      A
 Frequencies --    302.6191               312.5038               373.7770
 Red. masses --      1.3859                 3.6020                 2.9228
 Frc consts  --      0.0748                 0.2073                 0.2406
 IR Inten    --    212.9085                 5.9374                 1.5917

                     16                     17                     18
                      A                      A                      A
 Frequencies --    392.5124               490.4199               514.1478
 Red. masses --      4.7486                 1.4474                 3.7151
 Frc consts  --      0.4310                 0.2051                 0.5786
 IR Inten    --     37.4977                65.0152                62.7819

                     19                     20                     21
                      A                      A                      A
 Frequencies --    545.8947               637.1564               709.0128
 Red. masses --      2.7051                 3.3492                 1.9134
 Frc consts  --      0.4749                 0.8011                 0.5667
 IR Inten    --     64.1026               120.8864               167.2531

                     22                     23                     24
                      A                      A                      A
 Frequencies --    737.3797               779.5362               877.7083
 Red. masses --      3.7861                 7.4038                 2.4567
 Frc consts  --      1.2129                 2.6508                 1.1151
 IR Inten    --    180.4936                37.8062                80.4213

                     25                     26                     27
                      A                      A                      A
 Frequencies --   1009.7363              1037.4570              1058.7603
 Red. masses --      1.2185                 1.5864                 1.4600
 Frc consts  --      0.7319                 1.0060                 0.9643
 IR Inten    --    124.6238               117.7918                43.3580

                     28                     29                     30
                      A                      A                      A
 Frequencies --   1063.0312              1084.1317              1090.4032
 Red. masses --      1.5833                 1.9806                 2.1214
 Frc consts  --      1.0541                 1.3716                 1.4861
 IR Inten    --     15.2946               120.3469               149.6823

                     31                     32                     33
                      A                      A                      A
 Frequencies --   1181.1253              1246.5185              1338.3948
 Red. masses --      3.3108                 1.3586                 1.3121
 Frc consts  --      2.7213                 1.2437                 1.3848
 IR Inten    --      7.9426                54.7940                 1.9172

                     34                     35                     36
                      A                      A                      A
 Frequencies --   1392.6452              1407.9687              1438.2774
 Red. masses --      4.3141                 1.5559                 1.7983
 Frc consts  --      4.9297                 1.8173                 2.1918
 IR Inten    --   1166.0380                52.4073               297.7889

                     37                     38                     39
                      A                      A                      A
 Frequencies --   1459.3368              1473.3675              1494.3218
 Red. masses --      1.3624                 1.0749                 1.0385
 Frc consts  --      1.7095                 1.3748                 1.3663
 IR Inten    --    132.6126                12.3728                62.6814

                     40                     41                     42
                      A                      A                      A
 Frequencies --   1497.9249              1502.4182              1604.3007
 Red. masses --      1.0468                 1.2040                 1.6178
 Frc consts  --      1.3839                 1.6012                 2.4533
 IR Inten    --     21.1311               219.4388               462.7459

                     43                     44                     45
                      A                      A                      A
 Frequencies --   1633.0141              1644.4873              3034.0243
 Red. masses --      1.0899                 3.1069                 1.0472
 Frc consts  --      1.7124                 4.9503                 5.6796
 IR Inten    --     68.3006               715.8734                67.4122

                     46                     47                     48
                      A                      A                      A
 Frequencies --   3073.4143              3100.7458              3148.8288
 Red. masses --      1.0341                 1.0913                 1.0988
 Frc consts  --      5.7552                 6.1820                 6.4191
 IR Inten    --     26.3701                44.7054                22.4144

                     49                     50                     51
                      A                      A                      A
 Frequencies --   3157.1812              3180.5983              3512.2049
 Red. masses --      1.1032                 1.1067                 1.0509
 Frc consts  --      6.4789                 6.5961                 7.6381
 IR Inten    --      3.0069                 7.5187                67.0709

                     52                     53                     54
                      A                      A                      A
 Frequencies --   3594.3714              3627.4674              3752.2709
 Red. masses --      1.0973                 1.0467                 1.1030
 Frc consts  --      8.3523                 8.1147                 9.1498
 IR Inten    --     67.7324                46.5528                80.3296

 - Thermochemistry -
 -------------------
 Temperature   298.150 Kelvin.  Pressure   1.00000 Atm.
 Atom     1 has atomic number  6 and mass  12.00000

 Molecular mass:   227.96650 amu.
 Principal axes and moments of inertia in atomic units:
                           1         2         3
     Eigenvalues --  1761.222133079.557473467.98104
           X            0.99970  -0.01984  -0.01408
           Y            0.02069   0.99778   0.06327
           Z            0.01279  -0.06355   0.99790
 This molecule is an asymmetric top.
 Rotational symmetry number  1.
 Warning -- assumption of classical behavior for rotation
           may cause significant error
 Rotational temperatures (Kelvin)      0.04918     0.02813     0.02498
 Rotational constants (GHZ):           1.02471     0.58604     0.52040
    1 imaginary frequencies ignored.
 Zero-point vibrational energy     408244.0 (Joules/Mol)
                                   97.57266 (Kcal/Mol)
 Warning -- explicit consideration of  18 degrees of freedom as
           vibrations may cause significant error
 Vibrational temperatures:     70.77    89.44    92.61   166.76   216.84
          (Kelvin)            230.88   254.98   292.43   323.10   378.48
                              389.58   435.40   449.62   537.78   564.74
                              705.60   739.74   785.42   916.73  1020.11
                             1060.92  1121.58  1262.83  1452.79  1492.67
                             1523.32  1529.46  1559.82  1568.85  1699.38
                             1793.46  1925.65  2003.71  2025.75  2069.36
                             2099.66  2119.85  2150.00  2155.18  2161.64
                             2308.23  2349.54  2366.05  4365.28  4421.96
                             4461.28  4530.46  4542.48  4576.17  5053.28
                             5171.50  5219.12  5398.68

 Zero-point correction=                           0.155492 (Hartree/Particle)
 Thermal correction to Energy=                    0.168229
 Thermal correction to Enthalpy=                  0.169173
 Thermal correction to Gibbs Free Energy=         0.115147
 Sum of electronic and zero-point Energies=          -3415.539968
 Sum of electronic and thermal Energies=             -3415.527231
 Sum of electronic and thermal Enthalpies=           -3415.526287
 Sum of electronic and thermal Free Energies=        -3415.580313

                     E (Thermal)             CV                S
                      KCal/Mol        Cal/Mol-Kelvin    Cal/Mol-Kelvin
 Total                  105.565             43.584            113.707
 Electronic               0.000              0.000              0.000
 Translational            0.889              2.981             42.174
 Rotational               0.889              2.981             31.309
 Vibrational            103.788             37.623             40.224
 Vibration     1          0.595              1.978              4.850
 Vibration     2          0.597              1.972              4.387
 Vibration     3          0.597              1.971              4.319
 Vibration     4          0.608              1.936              3.168
 Vibration     5          0.618              1.902              2.663
 Vibration     6          0.622              1.891              2.544
 Vibration     7          0.628              1.870              2.357
 Vibration     8          0.639              1.835              2.103
 Vibration     9          0.649              1.804              1.922
 Vibration    10          0.670              1.741              1.641
 Vibration    11          0.674              1.727              1.591
 Vibration    12          0.694              1.669              1.402
 Vibration    13          0.701              1.650              1.349
 Vibration    14          0.745              1.526              1.064
 Vibration    15          0.760              1.486              0.991
 Vibration    16          0.846              1.271              0.683
 Vibration    17          0.869              1.219              0.624
 Vibration    18          0.901              1.149              0.553

 Optimization completed.
    -- Stationary point found.
 Normal termination of Gaussian 16 at Tue Apr 13 18:54:33 2021.
