 Gaussian 16, Revision A.03,
 Gaussian 16:  ES64L-G16RevA.03 25-Dec-2016

 ----------------------------------------------------------------------
 # wB97XD def2tzvp, opt=(ts, noeigen, calcfc, maxcycles=70, maxstep=5),
  freq=noraman, scrf=(iefpcm, solvent=water)
 ----------------------------------------------------------------------

 ------------------------
 2_iteration/TS-784-2.out
 ------------------------
 Symbolic Z-matrix:
 Charge =  0 Multiplicity = 1

 SCF Done:  E(RwB97XD) =  -3591.36455473     A.U. after   15 cycles
 SCF Done:  E(RwB97XD) =  -3591.36490369     A.U. after   12 cycles
 SCF Done:  E(RwB97XD) =  -3591.36493080     A.U. after   12 cycles
 SCF Done:  E(RwB97XD) =  -3591.36493820     A.U. after   10 cycles
 SCF Done:  E(RwB97XD) =  -3591.36493904     A.U. after   10 cycles
 SCF Done:  E(RwB97XD) =  -3591.36493777     A.U. after    9 cycles
 SCF Done:  E(RwB97XD) =  -3591.36493896     A.U. after    9 cycles
 Optimization completed.
    -- Stationary point found.
 Normal termination of Gaussian 16 at Mon Feb 22 14:39:41 2021.

 ---------------------------------------------------------------------
 #N Geom=AllCheck Guess=TCheck SCRF=Check GenChk RwB97XD/def2TZVP Freq
 ---------------------------------------------------------------------

 Structure from the checkpoint file:  "/beegfs/scratch/user/q/tla25/Gau-27989.chk"
 ------------------------
 2_iteration/TS-784-2.out
 ------------------------
 Charge =  0 Multiplicity = 1

                         Standard orientation:
 ---------------------------------------------------------------------
 Center     Atomic      Atomic             Coordinates (Angstroms)
 Number     Number       Type             X           Y           Z
 ---------------------------------------------------------------------
      1          6           0        0.522206    1.148411    0.205649
      2          6           0       -0.842332    1.593604    0.113384
      3          8           0       -1.134800    2.793839    0.162876
      4          6           0        0.962334   -0.120278   -0.176462
      5          6           0        1.224115   -0.843003    2.491682
      6          1           0        2.299151   -0.679898    2.520371
      7          1           0        0.711971    0.113442    2.604213
      8          1           0        0.933724   -1.506536    3.304539
      9          7           0        0.857100   -1.407800    1.199172
     10          1           0        1.427566   -2.209288    0.950119
     11          1           0       -0.116537   -1.696045    1.181565
     12         35           0        2.871144   -0.281926   -0.549527
     13         17           0        0.086386   -1.058843   -1.399381
     14          6           0        1.508354    2.186522    0.695492
     15          1           0        2.293048    1.752019    1.313350
     16          1           0        1.994065    2.721165   -0.126588
     17          1           0        0.977198    2.924708    1.293860
     18          6           0       -1.997410    0.632290    0.039338
     19          6           0       -2.874319    0.670627   -1.039512
     20          6           0       -3.967458   -0.178609   -1.082075
     21          6           0       -4.213165   -1.055320   -0.032022
     22          6           0       -3.365979   -1.068938    1.065271
     23          6           0       -2.261438   -0.228369    1.098062
     24          1           0       -2.683888    1.355160   -1.856864
     25          1           0       -4.632805   -0.157518   -1.936057
     26          1           0       -5.069277   -1.716968   -0.065939
     27          1           0       -3.564384   -1.730393    1.899037
     28          1           0       -1.619176   -0.219852    1.971246
 ---------------------------------------------------------------------

 SCF Done:  E(RwB97XD) =  -3591.36493896     A.U. after    1 cycles

 The electronic state is 1-A.
 Alpha  occ. eigenvalues -- -483.14159-101.71124 -62.69007 -56.48136 -56.47764
 Alpha  occ. eigenvalues --  -56.47747 -19.21393 -14.50573 -10.45142 -10.36197
 Alpha  occ. eigenvalues --  -10.32530 -10.30019 -10.29588 -10.29432 -10.29336
 Alpha  occ. eigenvalues --  -10.29248 -10.29225 -10.27737 -10.27206  -9.59722
 Alpha  occ. eigenvalues --   -8.83115  -7.34394  -7.33483  -7.33453  -6.65305
 Alpha  occ. eigenvalues --   -6.64124  -6.64074  -2.75682  -2.75354  -2.75315
 Alpha  occ. eigenvalues --   -2.74360  -2.74359  -1.12173  -1.06341  -0.99275
 Alpha  occ. eigenvalues --   -0.96898  -0.90643  -0.87758  -0.85747  -0.85499
 Alpha  occ. eigenvalues --   -0.80114  -0.77516  -0.73348  -0.70922  -0.68670
 Alpha  occ. eigenvalues --   -0.65086  -0.63251  -0.59955  -0.59008  -0.57527
 Alpha  occ. eigenvalues --   -0.55953  -0.55139  -0.54183  -0.53224  -0.51395
 Alpha  occ. eigenvalues --   -0.50467  -0.49626  -0.48926  -0.48332  -0.47776
 Alpha  occ. eigenvalues --   -0.46212  -0.45977  -0.44947  -0.43966  -0.42652
 Alpha  occ. eigenvalues --   -0.41888  -0.40449  -0.38280  -0.37518  -0.34304
 Alpha  occ. eigenvalues --   -0.34114  -0.32058  -0.28225
 Alpha virt. eigenvalues --    0.02333   0.02878   0.04897   0.05732   0.08150
 Alpha virt. eigenvalues --    0.10260   0.12954   0.13332   0.14564   0.14770
 Alpha virt. eigenvalues --    0.15870   0.16358   0.16898   0.18233   0.19126

 Mulliken charges:
               1
     1  C   -0.306113
     2  C    0.256957
     3  O   -0.485760
     4  C    0.179652
     5  C   -0.329512
     6  H    0.172427
     7  H    0.168577
     8  H    0.176763
     9  N   -0.289350
    10  H    0.299144
    11  H    0.285850
    12  Br  -0.063247
    13  Cl  -0.056149
    14  C   -0.379635
    15  H    0.135781
    16  H    0.130722
    17  H    0.134737
    18  C    0.171431
    19  C   -0.229766
    20  C   -0.137647
    21  C   -0.148626
    22  C   -0.137021
    23  C   -0.318271
    24  H    0.139921
    25  H    0.144543
    26  H    0.146009
    27  H    0.144014
    28  H    0.194572
 Sum of Mulliken charges =  -0.00000

 Dipole moment (field-independent basis, Debye):
    X=              2.2113    Y=             -9.2280    Z=              4.4294  Tot=             10.4721
 Quadrupole moment (field-independent basis, Debye-Ang):
   XX=           -103.8705   YY=           -118.6931   ZZ=            -97.5901
   XY=              7.8781   XZ=              7.5377   YZ=             -9.2377

  Exact polarizability: 280.877   0.984 248.857  15.172 -14.491 217.223
 Approx polarizability: 215.074   2.553 211.448  11.981 -11.908 188.607

 ******    1 imaginary frequencies (negative Signs) ******

                      1                      2                      3
                      A                      A                      A
 Frequencies --   -382.6217                35.6446                51.7977
 Red. masses --      6.1010                 6.4157                 5.3468
 Frc consts  --      0.5262                 0.0048                 0.0085
 IR Inten    --    902.0697                 1.8672                 4.2751

                      4                      5                      6
                      A                      A                      A
 Frequencies --     75.1861                79.2932               103.7843
 Red. masses --      5.9995                 3.4408                 3.2650
 Frc consts  --      0.0200                 0.0127                 0.0207
 IR Inten    --      4.7613                 1.1984                 3.4788

                      7                      8                      9
                      A                      A                      A
 Frequencies --    135.7763               166.1764               176.6610
 Red. masses --      2.7253                 2.5116                 2.1025
 Frc consts  --      0.0296                 0.0409                 0.0387
 IR Inten    --      1.1404                 0.9288                 2.6424

                     10                     11                     12
                      A                      A                      A
 Frequencies --    198.6490               201.6925               217.4365
 Red. masses --      1.8584                 1.8842                 5.9115
 Frc consts  --      0.0432                 0.0452                 0.1647
 IR Inten    --      7.2207                 0.2774                 4.9489

                     13                     14                     15
                      A                      A                      A
 Frequencies --    223.7123               255.2895               278.9767
 Red. masses --      5.5954                 3.5115                 3.9439
 Frc consts  --      0.1650                 0.1348                 0.1808
 IR Inten    --      2.9001                14.6965                 3.7510

                     16                     17                     18
                      A                      A                      A
 Frequencies --    327.2976               343.3951               385.8954
 Red. masses --      4.0508                 4.8074                 3.6641
 Frc consts  --      0.2557                 0.3340                 0.3215
 IR Inten    --     39.0906                 1.6393                 0.4447

                     19                     20                     21
                      A                      A                      A
 Frequencies --    387.6026               425.4650               444.1515
 Red. masses --      4.6102                 3.0068                 6.9836
 Frc consts  --      0.4081                 0.3207                 0.8117
 IR Inten    --     19.6376                 2.5096                29.9950

                     22                     23                     24
                      A                      A                      A
 Frequencies --    526.6866               577.5504               636.1143
 Red. masses --      5.1060                 3.7618                 6.4032
 Frc consts  --      0.8345                 0.7393                 1.5266
 IR Inten    --    125.8832                32.4899                 0.6372

                     25                     26                     27
                      A                      A                      A
 Frequencies --    648.5329               695.5593               734.1731
 Red. masses --      2.4758                 2.8849                 1.7231
 Frc consts  --      0.6135                 0.8223                 0.5472
 IR Inten    --     25.3324                51.4153                85.1818

                     28                     29                     30
                      A                      A                      A
 Frequencies --    760.9211               805.9162               815.1389
 Red. masses --      3.2906                 3.0517                 3.9363
 Frc consts  --      1.1225                 1.1678                 1.5410
 IR Inten    --     28.9041               146.3038               114.5774

                     31                     32                     33
                      A                      A                      A
 Frequencies --    819.2436               887.6662               957.5258
 Red. masses --      3.5167                 1.2632                 1.9023
 Frc consts  --      1.3906                 0.5864                 1.0276
 IR Inten    --    135.3124                 0.0618                13.0841

                     34                     35                     36
                      A                      A                      A
 Frequencies --    976.3845              1014.1006              1020.1754
 Red. masses --      1.9145                 1.3700                 1.7298
 Frc consts  --      1.0753                 0.8301                 1.0607
 IR Inten    --    106.4041                10.0422                 9.7485

                     37                     38                     39
                      A                      A                      A
 Frequencies --   1027.4871              1034.3415              1039.1463
 Red. masses --      2.3055                 1.4596                 1.7468
 Frc consts  --      1.4341                 0.9201                 1.1113
 IR Inten    --      6.7413                 4.0157               339.6631

                     40                     41                     42
                      A                      A                      A
 Frequencies --   1060.9457              1064.9423              1066.0273
 Red. masses --      1.4319                 1.5235                 1.4312
 Frc consts  --      0.9496                 1.0180                 0.9583
 IR Inten    --     29.5618                24.4301                11.1473

                     43                     44                     45
                      A                      A                      A
 Frequencies --   1084.3866              1112.3541              1184.4947
 Red. masses --      3.8395                 1.5421                 1.1415
 Frc consts  --      2.6601                 1.1242                 0.9436
 IR Inten    --     74.3367                12.2126                 0.2207

                     46                     47                     48
                      A                      A                      A
 Frequencies --   1205.7404              1210.4438              1234.6087
 Red. masses --      1.2168                 2.9684                 1.3781
 Frc consts  --      1.0423                 2.5625                 1.2376
 IR Inten    --      0.3784                 7.8863                45.2634

                     49                     50                     51
                      A                      A                      A
 Frequencies --   1320.9215              1343.4791              1356.9660
 Red. masses --      4.0715                 1.3171                 1.6630
 Frc consts  --      4.1856                 1.4006                 1.8042
 IR Inten    --     38.1926                11.8046               122.3529

                     52                     53                     54
                      A                      A                      A
 Frequencies --   1367.9701              1389.2890              1420.5494
 Red. masses --      3.9813                 6.0390                 1.2412
 Frc consts  --      4.3897                 6.8676                 1.4757
 IR Inten    --   1255.7684               289.6399                66.8070

                     55                     56                     57
                      A                      A                      A
 Frequencies --   1451.1381              1487.0675              1489.9369
 Red. masses --      1.2031                 1.1189                 1.9201
 Frc consts  --      1.4927                 1.4578                 2.5114
 IR Inten    --      9.8343                35.6810                10.5950

                     58                     59                     60
                      A                      A                      A
 Frequencies --   1493.6927              1497.6783              1502.4243
 Red. masses --      1.0494                 1.0719                 1.0492
 Frc consts  --      1.3794                 1.4166                 1.3954
 IR Inten    --      0.2849                86.4332                78.1730

                     61                     62                     63
                      A                      A                      A
 Frequencies --   1541.8215              1628.0424              1643.7751
 Red. masses --      2.3490                10.5351                 1.0975
 Frc consts  --      3.2900                16.4521                 1.7473
 IR Inten    --      5.6975               713.2243                46.0892

                     64                     65                     66
                      A                      A                      A
 Frequencies --   1651.0239              1675.1034              3039.2113
 Red. masses --      5.7698                 5.8892                 1.0476
 Frc consts  --      9.2665                 9.7361                 5.7013
 IR Inten    --     23.6565                 1.1771                75.3444

                     67                     68                     69
                      A                      A                      A
 Frequencies --   3069.4924              3114.4364              3150.4792
 Red. masses --      1.0339                 1.0885                 1.1035
 Frc consts  --      5.7394                 6.2207                 6.4531
 IR Inten    --     22.4417                32.6973                10.5790

                     70                     71                     72
                      A                      A                      A
 Frequencies --   3152.6615              3173.6960              3189.2688
 Red. masses --      1.1020                 1.1063                 1.0872
 Frc consts  --      6.4533                 6.5652                 6.5156
 IR Inten    --     11.8151                 7.9516                 8.3893

                     73                     74                     75
                      A                      A                      A
 Frequencies --   3195.8423              3204.7218              3212.4113
 Red. masses --      1.0871                 1.0909                 1.0951
 Frc consts  --      6.5420                 6.6012                 6.6583
 IR Inten    --      0.4132                 7.8052                36.6107

                     76                     77                     78
                      A                      A                      A
 Frequencies --   3222.6221              3507.3307              3591.6999
 Red. masses --      1.0988                 1.0507                 1.0967
 Frc consts  --      6.7234                 7.6153                 8.3357
 IR Inten    --     18.1862                61.8427                99.2786

 - Thermochemistry -
 -------------------
 Temperature   298.150 Kelvin.  Pressure   1.00000 Atm.
 Atom     1 has atomic number  6 and mass  12.00000

 Molecular mass:   288.98690 amu.
 Principal axes and moments of inertia in atomic units:
                           1         2         3
     Eigenvalues --  2420.823806690.493087036.93710
           X            0.99945   0.02476   0.02211
           Y           -0.02169   0.99130  -0.12982
           Z           -0.02513   0.12927   0.99129
 This molecule is an asymmetric top.
 Rotational symmetry number  1.
 Warning -- assumption of classical behavior for rotation
           may cause significant error
 Rotational temperatures (Kelvin)      0.03578     0.01295     0.01231
 Rotational constants (GHZ):           0.74551     0.26975     0.25647
    1 imaginary frequencies ignored.
 Zero-point vibrational energy     578988.1 (Joules/Mol)
                                  138.38147 (Kcal/Mol)
 Warning -- explicit consideration of  22 degrees of freedom as
           vibrations may cause significant error
 Vibrational temperatures:     51.28    74.53   108.18   114.09   149.32
          (Kelvin)            195.35   239.09   254.18   285.81   290.19
                              312.84   321.87   367.30   401.39   470.91
                              494.07   555.22   557.67   612.15   639.03
                              757.78   830.97   915.23   933.09  1000.75
                             1056.31  1094.80  1159.53  1172.80  1178.71
                             1277.15  1377.67  1404.80  1459.06  1467.80
                             1478.32  1488.19  1495.10  1526.46  1532.21
                             1533.78  1560.19  1600.43  1704.22  1734.79
                             1741.56  1776.33  1900.51  1932.97  1952.37
                             1968.20  1998.88  2043.85  2087.86  2139.56
                             2143.69  2149.09  2154.83  2161.65  2218.34
                             2342.39  2365.03  2375.46  2410.10  4372.75
                             4416.31  4480.98  4532.84  4535.98  4566.24
                             4588.65  4598.10  4610.88  4621.94  4636.63
                             5046.27  5167.66

 Zero-point correction=                           0.220525 (Hartree/Particle)
 Thermal correction to Energy=                    0.236070
 Thermal correction to Enthalpy=                  0.237014
 Thermal correction to Gibbs Free Energy=         0.176393
 Sum of electronic and zero-point Energies=          -3591.144414
 Sum of electronic and thermal Energies=             -3591.128869
 Sum of electronic and thermal Enthalpies=           -3591.127925
 Sum of electronic and thermal Free Energies=        -3591.188546

                     E (Thermal)             CV                S
                      KCal/Mol        Cal/Mol-Kelvin    Cal/Mol-Kelvin
 Total                  148.136             56.410            127.589
 Electronic               0.000              0.000              0.000
 Translational            0.889              2.981             42.881
 Rotational               0.889              2.981             33.099
 Vibrational            146.359             50.448             51.608
 Vibration     1          0.594              1.982              5.488
 Vibration     2          0.596              1.977              4.748
 Vibration     3          0.599              1.966              4.013
 Vibration     4          0.600              1.963              3.908
 Vibration     5          0.605              1.946              3.382
 Vibration     6          0.614              1.918              2.863
 Vibration     7          0.624              1.884              2.478
 Vibration     8          0.628              1.871              2.363
 Vibration     9          0.637              1.842              2.146
 Vibration    10          0.639              1.837              2.118
 Vibration    11          0.646              1.814              1.980
 Vibration    12          0.649              1.805              1.929
 Vibration    13          0.666              1.754              1.694
 Vibration    14          0.679              1.712              1.540
 Vibration    15          0.711              1.621              1.273
 Vibration    16          0.722              1.589              1.196
 Vibration    17          0.755              1.500              1.016
 Vibration    18          0.756              1.497              1.009
 Vibration    19          0.787              1.415              0.874
 Vibration    20          0.804              1.374              0.814
 Vibration    21          0.882              1.191              0.595
 Vibration    22          0.934              1.080              0.490

 Optimization completed.
    -- Stationary point found.
 Normal termination of Gaussian 16 at Mon Feb 22 15:42:30 2021.
