 Gaussian 16, Revision A.03,
 Gaussian 16:  ES64L-G16RevA.03 25-Dec-2016

 ----------------------------------------------------------------------
 # wB97XD def2tzvp, opt=(ts, noeigen, calcfc, maxcycles=70, maxstep=8),
  freq=noraman, scrf=(iefpcm, solvent=water)
 ----------------------------------------------------------------------

 -----------------------
 1_iteration/TS-79-1.out
 -----------------------
 Symbolic Z-matrix:
 Charge =  0 Multiplicity = 1

 SCF Done:  E(RwB97XD) =  -1264.88646972     A.U. after   15 cycles
 SCF Done:  E(RwB97XD) =  -1264.88646975     A.U. after    7 cycles
 Optimization completed.
    -- Stationary point found.
 Normal termination of Gaussian 16 at Sun Mar 28 23:14:10 2021.

 ---------------------------------------------------------------------
 #N Geom=AllCheck Guess=TCheck SCRF=Check GenChk RwB97XD/def2TZVP Freq
 ---------------------------------------------------------------------

 Structure from the checkpoint file:  "/beegfs/scratch/user/q/tla25/Gau-16429.chk"
 -----------------------
 1_iteration/TS-79-1.out
 -----------------------
 Charge =  0 Multiplicity = 1

                         Standard orientation:
 ---------------------------------------------------------------------
 Center     Atomic      Atomic             Coordinates (Angstroms)
 Number     Number       Type             X           Y           Z
 ---------------------------------------------------------------------
      1          6           0        0.411434    0.201416   -0.117166
      2          6           0       -0.903483   -0.344402   -0.273065
      3          8           0       -1.066932   -1.561439   -0.467774
      4          6           0        1.505407   -0.669583   -0.258744
      5          6           0        1.363978   -1.298914    2.485839
      6          1           0        2.313567   -0.886129    2.817214
      7          1           0        0.623682   -0.500416    2.420600
      8          1           0        1.023506   -2.039499    3.208858
      9          7           0        1.519636   -1.885027    1.159067
     10          1           0        2.331527   -2.488151    1.093072
     11          1           0        0.693168   -2.417254    0.902493
     12          6           0        2.919645   -0.215217   -0.366751
     13          6           0        3.548290    0.566270    0.601033
     14          6           0        4.873208    0.943289    0.449824
     15          6           0        5.588787    0.554346   -0.673955
     16          6           0        4.973502   -0.224140   -1.642559
     17          6           0        3.652050   -0.612597   -1.483229
     18          1           0        3.003796    0.886929    1.477683
     19          1           0        5.347787    1.546378    1.213415
     20          1           0        6.622394    0.854035   -0.791364
     21          1           0        5.523474   -0.536854   -2.520978
     22          1           0        3.180289   -1.230888   -2.237599
     23          1           0        1.282700   -1.461529   -0.965852
     24         17           0        0.603118    1.861957    0.439750
     25          7           0       -1.966776    0.528126   -0.192388
     26          6           0       -3.336706    0.266313   -0.218038
     27          6           0       -3.894047   -0.982443   -0.501262
     28          6           0       -5.273719   -1.136610   -0.505252
     29          6           0       -6.120029   -0.071958   -0.238603
     30          6           0       -5.565831    1.171372    0.037469
     31          6           0       -4.193675    1.339913    0.049713
     32          1           0       -1.719366    1.488584   -0.020920
     33          1           0       -3.245702   -1.816031   -0.714670
     34          1           0       -5.688215   -2.112935   -0.725690
     35          1           0       -7.193861   -0.205803   -0.246816
     36          1           0       -6.205789    2.019234    0.248052
     37          1           0       -3.773379    2.314535    0.270659
 ---------------------------------------------------------------------

 SCF Done:  E(RwB97XD) =  -1264.88646975     A.U. after    1 cycles

 The electronic state is 1-A.
 Alpha  occ. eigenvalues -- -101.69113 -19.20416 -14.48780 -14.46053 -10.38397
 Alpha  occ. eigenvalues --  -10.34622 -10.33726 -10.31800 -10.30866 -10.30409
 Alpha  occ. eigenvalues --  -10.29563 -10.29489 -10.29382 -10.29326 -10.29294
 Alpha  occ. eigenvalues --  -10.28956 -10.28798 -10.28697 -10.28119 -10.28024
 Alpha  occ. eigenvalues --   -9.57641  -7.32254  -7.31457  -7.31410  -1.13194
 Alpha  occ. eigenvalues --   -1.04360  -1.03791  -0.97774  -0.96184  -0.94776
 Alpha  occ. eigenvalues --   -0.88836  -0.85593  -0.85066  -0.84931  -0.82770
 Alpha  occ. eigenvalues --   -0.79128  -0.75551  -0.71885  -0.71143  -0.70655
 Alpha  occ. eigenvalues --   -0.67543  -0.64862  -0.63336  -0.62727  -0.60465
 Alpha  occ. eigenvalues --   -0.59451  -0.57898  -0.57468  -0.55276  -0.55004
 Alpha  occ. eigenvalues --   -0.54305  -0.53382  -0.52392  -0.51809  -0.51551
 Alpha  occ. eigenvalues --   -0.51021  -0.50518  -0.50000  -0.48232  -0.47832
 Alpha  occ. eigenvalues --   -0.47133  -0.46329  -0.44797  -0.44385  -0.43376
 Alpha  occ. eigenvalues --   -0.43136  -0.42709  -0.41595  -0.40235  -0.39328
 Alpha  occ. eigenvalues --   -0.34304  -0.33890  -0.33723  -0.33573  -0.30212
 Alpha  occ. eigenvalues --   -0.26052
 Alpha virt. eigenvalues --    0.02426   0.04932   0.05478   0.05839   0.09906
 Alpha virt. eigenvalues --    0.10348   0.11773   0.12918   0.13222   0.14031
 Alpha virt. eigenvalues --    0.14489   0.15395   0.16623   0.16699   0.17189

 Mulliken charges:
               1
     1  C   -0.284817
     2  C    0.432821
     3  O   -0.585379
     4  C    0.050716
     5  C   -0.311666
     6  H    0.157863
     7  H    0.156974
     8  H    0.158938
     9  N   -0.283937
    10  H    0.286225
    11  H    0.283210
    12  C    0.203630
    13  C   -0.282544
    14  C   -0.139801
    15  C   -0.150881
    16  C   -0.134254
    17  C   -0.251163
    18  H    0.177472
    19  H    0.144910
    20  H    0.146356
    21  H    0.145309
    22  H    0.144843
    23  H    0.153487
    24  Cl  -0.174535
    25  N   -0.280127
    26  C    0.305110
    27  C   -0.295028
    28  C   -0.112642
    29  C   -0.200152
    30  C   -0.098572
    31  C   -0.315599
    32  H    0.231716
    33  H    0.159505
    34  H    0.140174
    35  H    0.139639
    36  H    0.142453
    37  H    0.139746
 Sum of Mulliken charges =  -0.00000

 Dipole moment (field-independent basis, Debye):
    X=              6.1229    Y=             -2.4727    Z=              3.8864  Tot=              7.6622
 Quadrupole moment (field-independent basis, Debye-Ang):
   XX=           -108.8613   YY=           -116.1134   ZZ=           -119.2961
   XY=            -12.6993   XZ=              1.0759   YZ=             -2.3960

  Exact polarizability: 431.998   2.769 283.298   0.390  25.045 231.912
 Approx polarizability: 301.407   5.886 247.738  -1.814  24.453 202.732

 ******    1 imaginary frequencies (negative Signs) ******

                      1                      2                      3
                      A                      A                      A
 Frequencies --   -366.5209                11.0884                22.9272
 Red. masses --      6.1629                 3.9944                 5.3541
 Frc consts  --      0.4878                 0.0003                 0.0017
 IR Inten    --   1002.7232                 0.8255                 0.8701

                      4                      5                      6
                      A                      A                      A
 Frequencies --     39.0383                54.4511                60.5402
 Red. masses --      4.3110                 4.3821                 5.1024
 Frc consts  --      0.0039                 0.0077                 0.0110
 IR Inten    --      0.5126                 9.0436                 2.2225

                      7                      8                      9
                      A                      A                      A
 Frequencies --     75.8537                98.6539               107.8768
 Red. masses --      3.6966                 4.7280                 4.3968
 Frc consts  --      0.0125                 0.0271                 0.0301
 IR Inten    --      4.1774                15.1208                 7.6663

                     10                     11                     12
                      A                      A                      A
 Frequencies --    136.2096               159.8897               201.4504
 Red. masses --      3.0129                 5.0060                 7.0667
 Frc consts  --      0.0329                 0.0754                 0.1690
 IR Inten    --     45.2033                 4.5938                 5.1493

                     13                     14                     15
                      A                      A                      A
 Frequencies --    221.6445               235.2830               242.7360
 Red. masses --      1.4434                 7.1196                 3.3291
 Frc consts  --      0.0418                 0.2322                 0.1156
 IR Inten    --      0.1424                22.4901                 1.8822

                     16                     17                     18
                      A                      A                      A
 Frequencies --    254.1082               271.5917               314.7511
 Red. masses --      4.6457                 2.8829                 4.9191
 Frc consts  --      0.1767                 0.1253                 0.2871
 IR Inten    --      5.3154                31.7804                10.1222

                     19                     20                     21
                      A                      A                      A
 Frequencies --    358.4233               413.4027               423.9156
 Red. masses --      7.3856                 5.2344                 2.9986
 Frc consts  --      0.5590                 0.5271                 0.3175
 IR Inten    --     11.0211                21.3944                 0.2541

                     22                     23                     24
                      A                      A                      A
 Frequencies --    426.3613               467.1213               527.2158
 Red. masses --      2.9562                 8.6929                 2.7882
 Frc consts  --      0.3166                 1.1176                 0.4566
 IR Inten    --      3.6713                13.6959                26.3017

                     25                     26                     27
                      A                      A                      A
 Frequencies --    536.8055               559.8646               577.4562
 Red. masses --      4.9298                 1.1361                 3.4580
 Frc consts  --      0.8370                 0.2098                 0.6794
 IR Inten    --     15.1800               110.4735               133.3165

                     28                     29                     30
                      A                      A                      A
 Frequencies --    620.7313               634.1113               635.3031
 Red. masses --      4.3470                 6.3535                 6.3822
 Frc consts  --      0.9868                 1.5052                 1.5177
 IR Inten    --     20.3015                 1.9048                 2.2478

                     31                     32                     33
                      A                      A                      A
 Frequencies --    691.8578               718.5470               721.4418
 Red. masses --      2.1713                 1.8964                 3.6734
 Frc consts  --      0.6123                 0.5769                 1.1265
 IR Inten    --    100.5445                64.7623                56.2691

                     34                     35                     36
                      A                      A                      A
 Frequencies --    728.3700               771.0862               780.2094
 Red. masses --      1.5829                 6.0958                 3.8014
 Frc consts  --      0.4948                 2.1354                 1.3634
 IR Inten    --    100.1887                20.0049                50.6144

                     37                     38                     39
                      A                      A                      A
 Frequencies --    784.2662               801.4029               860.6346
 Red. masses --      2.3565                 2.1681                 1.2622
 Frc consts  --      0.8540                 0.8204                 0.5508
 IR Inten    --     56.2828                17.3119                 0.2058

                     40                     41                     42
                      A                      A                      A
 Frequencies --    872.6296               880.0565               898.3862
 Red. masses --      5.7744                 1.2468                 3.7068
 Frc consts  --      2.5907                 0.5690                 1.7627
 IR Inten    --      3.3780                 0.2959                24.8974

                     43                     44                     45
                      A                      A                      A
 Frequencies --    930.2104               964.9801              1000.5879
 Red. masses --      1.4711                 1.4327                 1.3462
 Frc consts  --      0.7500                 0.7860                 0.7941
 IR Inten    --     13.0502                 1.4392                 0.0395

                     46                     47                     48
                      A                      A                      A
 Frequencies --   1015.5616              1016.1968              1018.6176
 Red. masses --      1.2809                 1.3765                 5.8138
 Frc consts  --      0.7783                 0.8375                 3.5541
 IR Inten    --      0.6687                 0.3068                 8.0017

                     49                     50                     51
                      A                      A                      A
 Frequencies --   1020.6830              1027.5223              1034.2362
 Red. masses --      1.0990                 5.7589                 1.3214
 Frc consts  --      0.6746                 3.5824                 0.8328
 IR Inten    --     55.0330                 3.8816                 1.3531

                     52                     53                     54
                      A                      A                      A
 Frequencies --   1043.2686              1057.7263              1064.4531
 Red. masses --      2.8713                 2.7024                 2.1473
 Frc consts  --      1.8413                 1.7813                 1.4335
 IR Inten    --    267.0750                10.6869                 4.0316

                     55                     56                     57
                      A                      A                      A
 Frequencies --   1071.4473              1080.9996              1117.5969
 Red. masses --      1.6878                 1.7327                 1.5664
 Frc consts  --      1.1416                 1.1930                 1.1527
 IR Inten    --     22.3019                66.8463                21.1113

                     58                     59                     60
                      A                      A                      A
 Frequencies --   1123.4178              1181.8550              1184.9732
 Red. masses --      1.6287                 1.1199                 1.1346
 Frc consts  --      1.2111                 0.9217                 0.9387
 IR Inten    --      3.6821                 3.0925                 0.1664

                     61                     62                     63
                      A                      A                      A
 Frequencies --   1207.6547              1212.4079              1213.9076
 Red. masses --      1.1463                 2.0293                 1.2382
 Frc consts  --      0.9850                 1.7575                 1.0750
 IR Inten    --     52.1879                52.9835                38.6408

                     64                     65                     66
                      A                      A                      A
 Frequencies --   1227.4884              1230.7833              1278.8090
 Red. masses --      1.4980                 1.7421                 2.4012
 Frc consts  --      1.3298                 1.5548                 2.3136
 IR Inten    --    367.5474                64.8294               343.9287

                     67                     68                     69
                      A                      A                      A
 Frequencies --   1284.4402              1303.2974              1333.8713
 Red. masses --      1.3153                 3.9667                 4.2036
 Frc consts  --      1.2785                 3.9698                 4.4065
 IR Inten    --     23.7237               108.4903               110.4474

                     70                     71                     72
                      A                      A                      A
 Frequencies --   1351.8254              1358.4128              1362.2194
 Red. masses --      2.7952                 1.5907                 1.4659
 Frc consts  --      3.0096                 1.7294                 1.6027
 IR Inten    --    562.2763                61.6259                47.6925

                     73                     74                     75
                      A                      A                      A
 Frequencies --   1368.9653              1448.4354              1464.0283
 Red. masses --      1.3918                 1.7864                 1.6120
 Frc consts  --      1.5368                 2.2082                 2.0358
 IR Inten    --     30.5249               288.7096               173.9843

                     76                     77                     78
                      A                      A                      A
 Frequencies --   1481.5371              1496.1740              1504.3924
 Red. masses --      2.2561                 1.0409                 2.1489
 Frc consts  --      2.9176                 1.3729                 2.8655
 IR Inten    --    393.0005                17.9372               121.8906

                     79                     80                     81
                      A                      A                      A
 Frequencies --   1508.0414              1545.4974              1552.0606
 Red. masses --      1.0778                 2.4245                 2.5202
 Frc consts  --      1.4441                 3.4120                 3.5769
 IR Inten    --      0.7596               213.6311                 9.5009

                     82                     83                     84
                      A                      A                      A
 Frequencies --   1570.4291              1633.6469              1649.8077
 Red. masses --      2.4375                 2.3714                 1.5574
 Frc consts  --      3.5419                 3.7288                 2.4976
 IR Inten    --    763.0615               501.5814                21.5715

                     85                     86                     87
                      A                      A                      A
 Frequencies --   1655.5805              1664.0620              1676.2780
 Red. masses --      5.0093                 3.3824                 6.0461
 Frc consts  --      8.0895                 5.5184                10.0096
 IR Inten    --      8.1158               170.7350               208.6674

                     88                     89                     90
                      A                      A                      A
 Frequencies --   1679.3140              3069.1374              3142.6873
 Red. masses --      5.8647                 1.0339                 1.1046
 Frc consts  --      9.7445                 5.7381                 6.4280
 IR Inten    --      1.1156                32.9793                10.8474

                     91                     92                     93
                      A                      A                      A
 Frequencies --   3164.7605              3175.3457              3184.8622
 Red. masses --      1.0883                 1.1045                 1.0882
 Frc consts  --      6.4221                 6.5612                 6.5034
 IR Inten    --      4.8261                13.9541                14.7705

                     94                     95                     96
                      A                      A                      A
 Frequencies --   3194.0318              3195.2987              3201.4017
 Red. masses --      1.0871                 1.0882                 1.0888
 Frc consts  --      6.5345                 6.5458                 6.5745
 IR Inten    --      4.5900                 2.7590                 1.5517

                     97                     98                     99
                      A                      A                      A
 Frequencies --   3204.9116              3210.9139              3220.5189
 Red. masses --      1.0931                 1.0930                 1.0979
 Frc consts  --      6.6154                 6.6394                 6.7090
 IR Inten    --     31.6457                27.1371                25.1738

                    100                    101                    102
                      A                      A                      A
 Frequencies --   3221.7740              3235.6680              3269.0762
 Red. masses --      1.0973                 1.0941                 1.0924
 Frc consts  --      6.7104                 6.7489                 6.8785
 IR Inten    --     26.2151                 5.4003                 6.4359

                    103                    104                    105
                      A                      A                      A
 Frequencies --   3500.5125              3593.9018              3637.1093
 Red. masses --      1.0529                 1.0950                 1.0760
 Frc consts  --      7.6013                 8.3326                 8.3865
 IR Inten    --     38.6298                78.1154                83.1789

 - Thermochemistry -
 -------------------
 Temperature   298.150 Kelvin.  Pressure   1.00000 Atm.
 Atom     1 has atomic number  6 and mass  12.00000

 Molecular mass:   288.10294 amu.
 Principal axes and moments of inertia in atomic units:
                           1         2         3
     Eigenvalues --  2162.91906********************
           X            0.99999  -0.00303   0.00110
           Y            0.00306   0.99961  -0.02772
           Z           -0.00102   0.02772   0.99962
 This molecule is an asymmetric top.
 Rotational symmetry number  1.
 Warning -- assumption of classical behavior for rotation
           may cause significant error
 Rotational temperatures (Kelvin)      0.04004     0.00647     0.00623
 Rotational constants (GHZ):           0.83440     0.13480     0.12974
    1 imaginary frequencies ignored.
 Zero-point vibrational energy     794543.5 (Joules/Mol)
                                  189.90046 (Kcal/Mol)
 Warning -- explicit consideration of  27 degrees of freedom as
           vibrations may cause significant error
 Vibrational temperatures:     15.95    32.99    56.17    78.34    87.10
          (Kelvin)            109.14   141.94   155.21   195.98   230.05
                              289.84   318.90   338.52   349.24   365.61
                              390.76   452.86   515.69   594.79   609.92
                              613.44   672.08   758.55   772.34   805.52
                              830.83   893.09   912.34   914.06   995.43
                             1033.83  1037.99  1047.96  1109.42  1122.55
                             1128.38  1153.04  1238.26  1255.52  1266.20
                             1292.58  1338.37  1388.39  1439.62  1461.17
                             1462.08  1465.56  1468.54  1478.38  1488.04
                             1501.03  1521.83  1531.51  1541.57  1555.32
                             1607.97  1616.35  1700.43  1704.91  1737.55
                             1744.38  1746.54  1766.08  1770.82  1839.92
                             1848.02  1875.15  1919.14  1944.98  1954.45
                             1959.93  1969.64  2083.98  2106.41  2131.60
                             2152.66  2164.49  2169.74  2223.63  2233.07
                             2259.50  2350.45  2373.71  2382.01  2394.21
                             2411.79  2416.16  4415.80  4521.63  4553.38
                             4568.61  4582.31  4595.50  4597.32  4606.10
                             4611.15  4619.79  4633.61  4635.41  4655.40
                             4703.47  5036.46  5170.82  5232.99

 Zero-point correction=                           0.302626 (Hartree/Particle)
 Thermal correction to Energy=                    0.321158
 Thermal correction to Enthalpy=                  0.322102
 Thermal correction to Gibbs Free Energy=         0.252356
 Sum of electronic and zero-point Energies=          -1264.583844
 Sum of electronic and thermal Energies=             -1264.565312
 Sum of electronic and thermal Enthalpies=           -1264.564368
 Sum of electronic and thermal Free Energies=        -1264.634114

                     E (Thermal)             CV                S
                      KCal/Mol        Cal/Mol-Kelvin    Cal/Mol-Kelvin
 Total                  201.530             69.377            146.793
 Electronic               0.000              0.000              0.000
 Translational            0.889              2.981             42.872
 Rotational               0.889              2.981             34.354
 Vibrational            199.752             63.416             69.567
 Vibration     1          0.593              1.987              7.806
 Vibration     2          0.593              1.985              6.363
 Vibration     3          0.594              1.981              5.307
 Vibration     4          0.596              1.976              4.649
 Vibration     5          0.597              1.973              4.440
 Vibration     6          0.599              1.965              3.995
 Vibration     7          0.604              1.950              3.481
 Vibration     8          0.606              1.943              3.307
 Vibration     9          0.614              1.917              2.856
 Vibration    10          0.622              1.891              2.551
 Vibration    11          0.638              1.838              2.120
 Vibration    12          0.648              1.808              1.946
 Vibration    13          0.655              1.787              1.838
 Vibration    14          0.659              1.775              1.783
 Vibration    15          0.665              1.756              1.702
 Vibration    16          0.675              1.726              1.586
 Vibration    17          0.702              1.645              1.337
 Vibration    18          0.733              1.558              1.129
 Vibration    19          0.777              1.441              0.915
 Vibration    20          0.786              1.418              0.879
 Vibration    21          0.788              1.413              0.871
 Vibration    22          0.824              1.323              0.746
 Vibration    23          0.882              1.190              0.593
 Vibration    24          0.892              1.169              0.572
 Vibration    25          0.915              1.118              0.524
 Vibration    26          0.934              1.080              0.490
 Vibration    27          0.981              0.988              0.415

 Optimization completed.
    -- Stationary point found.
 Normal termination of Gaussian 16 at Mon Mar 29 01:10:24 2021.
