 Gaussian 16, Revision A.03,
 Gaussian 16:  ES64L-G16RevA.03 25-Dec-2016

 ----------------------------------------------------------------------
 # wB97XD def2tzvp, opt=(ts, noeigen, calcfc, maxcycles=70, maxstep=1),
  freq=noraman, scrf=(iefpcm, solvent=water)
 ----------------------------------------------------------------------

 ------------------------
 0_iteration/TS-734-0.out
 ------------------------
 Symbolic Z-matrix:
 Charge =  0 Multiplicity = 1

 SCF Done:  E(RwB97XD) =  -5568.99185818     A.U. after   15 cycles
 SCF Done:  E(RwB97XD) =  -5568.99171341     A.U. after   10 cycles
 SCF Done:  E(RwB97XD) =  -5568.99157218     A.U. after   10 cycles
 SCF Done:  E(RwB97XD) =  -5568.99143476     A.U. after   10 cycles
 SCF Done:  E(RwB97XD) =  -5568.99130131     A.U. after   10 cycles
 SCF Done:  E(RwB97XD) =  -5568.99117197     A.U. after   11 cycles
 SCF Done:  E(RwB97XD) =  -5568.99104700     A.U. after   11 cycles
 SCF Done:  E(RwB97XD) =  -5568.99092675     A.U. after   11 cycles
 SCF Done:  E(RwB97XD) =  -5568.99081156     A.U. after   11 cycles
 SCF Done:  E(RwB97XD) =  -5568.99070151     A.U. after   11 cycles
 SCF Done:  E(RwB97XD) =  -5568.98964028     A.U. after   11 cycles
 SCF Done:  E(RwB97XD) =  -5568.98964489     A.U. after   11 cycles
 SCF Done:  E(RwB97XD) =  -5568.98964799     A.U. after   11 cycles
 SCF Done:  E(RwB97XD) =  -5568.98964713     A.U. after   11 cycles
 SCF Done:  E(RwB97XD) =  -5568.98964886     A.U. after   10 cycles
 SCF Done:  E(RwB97XD) =  -5568.98964950     A.U. after   10 cycles
 SCF Done:  E(RwB97XD) =  -5568.98965014     A.U. after   10 cycles
 SCF Done:  E(RwB97XD) =  -5568.98965028     A.U. after   10 cycles
 SCF Done:  E(RwB97XD) =  -5568.98965037     A.U. after    8 cycles
 Optimization completed.
    -- Stationary point found.
 Normal termination of Gaussian 16 at Mon Feb 22 07:16:28 2021.

 ---------------------------------------------------------------------
 #N Geom=AllCheck Guess=TCheck SCRF=Check GenChk RwB97XD/def2TZVP Freq
 ---------------------------------------------------------------------

 Structure from the checkpoint file:  "/beegfs/scratch/user/q/tla25/Gau-15341.chk"
 ------------------------
 0_iteration/TS-734-0.out
 ------------------------
 Charge =  0 Multiplicity = 1

                         Standard orientation:
 ---------------------------------------------------------------------
 Center     Atomic      Atomic             Coordinates (Angstroms)
 Number     Number       Type             X           Y           Z
 ---------------------------------------------------------------------
      1          6           0       -0.379113    0.811382   -0.831358
      2          6           0       -1.773833    1.066190   -0.426972
      3          8           0       -2.142967    2.213323   -0.144553
      4          6           0        0.553961    0.164468   -0.047056
      5          6           0        1.066389    2.362096    1.386206
      6          1           0        1.143294    2.790581    2.383055
      7          1           0        1.978834    2.558918    0.829315
      8          1           0        0.209300    2.778508    0.861410
      9          7           0        0.871733    0.911405    1.493025
     10          1           0        1.659468    0.453002    1.944781
     11          1           0        0.043062    0.707499    2.045914
     12         35           0        2.349768    0.145674   -0.821164
     13         35           0        0.152839   -1.661838    0.702969
     14          1           0        0.032153    1.599091   -1.450674
     15          7           0       -2.660634    0.032648   -0.373505
     16          6           0       -2.550608   -1.154422   -1.196077
     17          6           0       -3.986018    0.285036    0.151013
     18          1           0       -1.583414   -1.172143   -1.689351
     19          1           0       -2.661447   -2.058628   -0.594738
     20          1           0       -3.337678   -1.146909   -1.957834
     21          1           0       -3.934593    1.011516    0.957560
     22          1           0       -4.661483    0.670906   -0.620384
     23          1           0       -4.397386   -0.650059    0.533027
 ---------------------------------------------------------------------

 SCF Done:  E(RwB97XD) =  -5568.98965037     A.U. after    1 cycles

 The electronic state is 1-A.
 Alpha  occ. eigenvalues -- -483.13722-483.12799 -62.68572 -62.67660 -56.47694
 Alpha  occ. eigenvalues --  -56.47326 -56.47321 -56.46765 -56.46424 -56.46414
 Alpha  occ. eigenvalues --  -19.20314 -14.52737 -14.45513 -10.44264 -10.37805
 Alpha  occ. eigenvalues --  -10.32576 -10.30327 -10.30242 -10.25015  -8.82681
 Alpha  occ. eigenvalues --   -8.81766  -6.64852  -6.63880  -6.63684  -6.63669
 Alpha  occ. eigenvalues --   -6.62806  -6.62774  -2.75232  -2.74899  -2.74887
 Alpha  occ. eigenvalues --   -2.74261  -2.73969  -2.73944  -2.73943  -2.73942
 Alpha  occ. eigenvalues --   -2.73075  -2.73075  -1.12977  -1.07991  -1.02777
 Alpha  occ. eigenvalues --   -0.94366  -0.87066  -0.84391  -0.81110  -0.80521
 Alpha  occ. eigenvalues --   -0.78016  -0.68663  -0.66162  -0.62372  -0.60090
 Alpha  occ. eigenvalues --   -0.58628  -0.56653  -0.55914  -0.54190  -0.52426
 Alpha  occ. eigenvalues --   -0.50043  -0.49187  -0.48140  -0.48099  -0.47801
 Alpha  occ. eigenvalues --   -0.46245  -0.45404  -0.43119  -0.39656  -0.38471
 Alpha  occ. eigenvalues --   -0.37605  -0.36189  -0.34609  -0.31701  -0.26952
 Alpha virt. eigenvalues --    0.02242   0.05144   0.08889   0.09882   0.12646
 Alpha virt. eigenvalues --    0.13372   0.14547   0.14785   0.16676   0.17394
 Alpha virt. eigenvalues --    0.18081   0.18745   0.19402   0.19598   0.20601

 Mulliken charges:
               1
     1  C   -0.508136
     2  C    0.304426
     3  O   -0.527355
     4  C    0.111063
     5  C   -0.298266
     6  H    0.171956
     7  H    0.163291
     8  H    0.163536
     9  N   -0.219806
    10  H    0.307717
    11  H    0.301990
    12  Br  -0.096168
    13  Br  -0.149922
    14  H    0.148512
    15  N   -0.132554
    16  C   -0.286621
    17  C   -0.288272
    18  H    0.156294
    19  H    0.141759
    20  H    0.132026
    21  H    0.138306
    22  H    0.130762
    23  H    0.135462
 Sum of Mulliken charges =  -0.00000

 Dipole moment (field-independent basis, Debye):
    X=              2.3945    Y=             -0.6820    Z=              5.2937  Tot=              5.8500
 Quadrupole moment (field-independent basis, Debye-Ang):
   XX=            -88.9727   YY=            -99.4512   ZZ=            -83.4169
   XY=             15.8774   XZ=              5.4812   YZ=              7.3649

  Exact polarizability: 213.762   3.257 201.318   2.924  -4.343 164.679
 Approx polarizability: 162.911   1.663 166.152  -0.526  -4.498 141.747

 ******    1 imaginary frequencies (negative Signs) ******

                      1                      2                      3
                      A                      A                      A
 Frequencies --   -310.6226                29.1653                61.7150
 Red. masses --      5.9968                 5.7478                 5.8117
 Frc consts  --      0.3409                 0.0029                 0.0130
 IR Inten    --    396.4625                 7.8993                82.5542

                      4                      5                      6
                      A                      A                      A
 Frequencies --     73.6579                96.1858               125.4002
 Red. masses --      4.4760                 1.7196                 3.3744
 Frc consts  --      0.0143                 0.0094                 0.0313
 IR Inten    --      2.2841                12.3232                17.5670

                      7                      8                      9
                      A                      A                      A
 Frequencies --    142.8363               143.6371               168.5908
 Red. masses --      1.2481                10.1406                 2.7687
 Frc consts  --      0.0150                 0.1233                 0.0464
 IR Inten    --      1.2388                 2.6575                 0.4778

                     10                     11                     12
                      A                      A                      A
 Frequencies --    193.6984               210.3204               243.3383
 Red. masses --      3.0686                 2.0948                 2.6421
 Frc consts  --      0.0678                 0.0546                 0.0922
 IR Inten    --     13.8454                 2.9580                 3.5168

                     13                     14                     15
                      A                      A                      A
 Frequencies --    264.4436               291.1375               303.3643
 Red. masses --      3.8656                 3.1006                 3.3410
 Frc consts  --      0.1593                 0.1548                 0.1812
 IR Inten    --    109.0989                86.7838                59.7661

                     16                     17                     18
                      A                      A                      A
 Frequencies --    338.2875               355.1331               415.4427
 Red. masses --      1.2287                 3.3205                 2.4322
 Frc consts  --      0.0828                 0.2467                 0.2473
 IR Inten    --      8.0651                35.7485                35.2096

                     19                     20                     21
                      A                      A                      A
 Frequencies --    428.0346               563.1666               576.4481
 Red. masses --      1.9227                 4.9266                 3.7731
 Frc consts  --      0.2075                 0.9206                 0.7387
 IR Inten    --    195.5449                57.0403                77.6209

                     22                     23                     24
                      A                      A                      A
 Frequencies --    625.2859               743.1705               746.7406
 Red. masses --      4.4948                 3.5155                 3.3265
 Frc consts  --      1.0354                 1.1440                 1.0929
 IR Inten    --     92.7681                12.9384                95.4679

                     25                     26                     27
                      A                      A                      A
 Frequencies --    801.6468               885.7947              1012.4084
 Red. masses --      2.3356                 2.9737                 2.3431
 Frc consts  --      0.8843                 1.3747                 1.4150
 IR Inten    --    115.4191               106.7165                57.2328

                     28                     29                     30
                      A                      A                      A
 Frequencies --   1044.6813              1070.7261              1077.2347
 Red. masses --      2.0819                 1.4335                 1.3767
 Frc consts  --      1.3387                 0.9683                 0.9413
 IR Inten    --     18.9956                18.7374                18.9133

                     31                     32                     33
                      A                      A                      A
 Frequencies --   1111.1945              1133.7995              1177.6957
 Red. masses --      1.4127                 1.2313                 1.3940
 Frc consts  --      1.0277                 0.9326                 1.1391
 IR Inten    --     74.0497                 1.2129                10.9849

                     34                     35                     36
                      A                      A                      A
 Frequencies --   1201.4018              1248.4436              1300.4050
 Red. masses --      2.8820                 1.3675                 1.3402
 Frc consts  --      2.4509                 1.2558                 1.3353
 IR Inten    --    277.9157               341.8969                89.4665

                     37                     38                     39
                      A                      A                      A
 Frequencies --   1308.7028              1348.7816              1415.4846
 Red. masses --      4.6960                 1.2655                 2.8017
 Frc consts  --      4.7387                 1.3564                 3.3073
 IR Inten    --     38.8681                 3.6251               808.6488

                     40                     41                     42
                      A                      A                      A
 Frequencies --   1428.5121              1436.3913              1458.1316
 Red. masses --      2.1080                 1.1937                 1.2655
 Frc consts  --      2.5345                 1.4511                 1.5853
 IR Inten    --    118.9430                31.6208                61.6386

                     43                     44                     45
                      A                      A                      A
 Frequencies --   1465.2115              1481.2257              1494.3077
 Red. masses --      1.2767                 1.0940                 1.0380
 Frc consts  --      1.6148                 1.4142                 1.3656
 IR Inten    --     57.6726                16.4461                10.1279

                     46                     47                     48
                      A                      A                      A
 Frequencies --   1498.2096              1502.1575              1511.1908
 Red. masses --      1.0387                 1.0678                 1.0508
 Frc consts  --      1.3736                 1.4196                 1.4138
 IR Inten    --     24.8798                11.0005                28.8963

                     49                     50                     51
                      A                      A                      A
 Frequencies --   1537.4535              1632.0974              1636.2805
 Red. masses --      1.4205                 1.3207                 3.3880
 Frc consts  --      1.9783                 2.0728                 5.3445
 IR Inten    --    218.5607               126.0254               773.4672

                     52                     53                     54
                      A                      A                      A
 Frequencies --   3026.3028              3029.1013              3088.8117
 Red. masses --      1.0444                 1.0478                 1.0320
 Frc consts  --      5.6355                 5.6643                 5.8013
 IR Inten    --     43.0532               160.2003                24.2057

                     55                     56                     57
                      A                      A                      A
 Frequencies --   3095.7965              3106.3088              3169.0839
 Red. masses --      1.0955                 1.0922                 1.1009
 Frc consts  --      6.1858                 6.2095                 6.5143
 IR Inten    --     69.3938                27.2120                13.6466

                     58                     59                     60
                      A                      A                      A
 Frequencies --   3182.5141              3182.9950              3188.8980
 Red. masses --      1.1066                 1.0976                 1.0881
 Frc consts  --      6.6034                 6.5521                 6.5190
 IR Inten    --      2.0534                 8.9856                 3.3792

                     61                     62                     63
                      A                      A                      A
 Frequencies --   3190.5634              3488.0147              3567.3149
 Red. masses --      1.1047                 1.0512                 1.0970
 Frc consts  --      6.6258                 7.5351                 8.2249
 IR Inten    --      2.7810                57.7489                75.6605

 - Thermochemistry -
 -------------------
 Temperature   298.150 Kelvin.  Pressure   1.00000 Atm.
 Atom     1 has atomic number  6 and mass  12.00000

 Molecular mass:   285.93164 amu.
 Principal axes and moments of inertia in atomic units:
                           1         2         3
     Eigenvalues --  2319.579534381.324865285.64462
           X            0.99912   0.01597   0.03883
           Y           -0.02035   0.99315   0.11507
           Z           -0.03673  -0.11576   0.99260
 This molecule is an asymmetric top.
 Rotational symmetry number  1.
 Warning -- assumption of classical behavior for rotation
           may cause significant error
 Rotational temperatures (Kelvin)      0.03734     0.01977     0.01639
 Rotational constants (GHZ):           0.77805     0.41192     0.34144
    1 imaginary frequencies ignored.
 Zero-point vibrational energy     482540.5 (Joules/Mol)
                                  115.32995 (Kcal/Mol)
 Warning -- explicit consideration of  20 degrees of freedom as
           vibrations may cause significant error
 Vibrational temperatures:     41.96    88.79   105.98   138.39   180.42
          (Kelvin)            205.51   206.66   242.56   278.69   302.60
                              350.11   380.48   418.88   436.47   486.72
                              510.96   597.73   615.85   810.27   829.38
                              899.65  1069.26  1074.39  1153.39  1274.46
                             1456.63  1503.06  1540.54  1549.90  1598.76
                             1631.28  1694.44  1728.55  1796.23  1870.99
                             1882.93  1940.60  2036.57  2055.31  2066.65
                             2097.93  2108.11  2131.15  2149.98  2155.59
                             2161.27  2174.27  2212.05  2348.22  2354.24
                             4354.17  4358.20  4444.11  4454.16  4469.29
                             4559.60  4578.93  4579.62  4588.11  4590.51
                             5018.48  5132.57

 Zero-point correction=                           0.183790 (Hartree/Particle)
 Thermal correction to Energy=                    0.197824
 Thermal correction to Enthalpy=                  0.198768
 Thermal correction to Gibbs Free Energy=         0.140914
 Sum of electronic and zero-point Energies=          -5568.805860
 Sum of electronic and thermal Energies=             -5568.791827
 Sum of electronic and thermal Enthalpies=           -5568.790882
 Sum of electronic and thermal Free Energies=        -5568.848737

                     E (Thermal)             CV                S
                      KCal/Mol        Cal/Mol-Kelvin    Cal/Mol-Kelvin
 Total                  124.136             47.688            121.764
 Electronic               0.000              0.000              0.000
 Translational            0.889              2.981             42.850
 Rotational               0.889              2.981             32.352
 Vibrational            122.359             41.727             46.563
 Vibration     1          0.593              1.984              5.885
 Vibration     2          0.597              1.973              4.402
 Vibration     3          0.599              1.966              4.053
 Vibration     4          0.603              1.952              3.530
 Vibration     5          0.610              1.928              3.015
 Vibration     6          0.616              1.910              2.766
 Vibration     7          0.616              1.910              2.755
 Vibration     8          0.625              1.881              2.451
 Vibration     9          0.635              1.849              2.192
 Vibration    10          0.642              1.825              2.041
 Vibration    11          0.659              1.774              1.778
 Vibration    12          0.671              1.738              1.632
 Vibration    13          0.687              1.690              1.467
 Vibration    14          0.695              1.667              1.398
 Vibration    15          0.719              1.599              1.220
 Vibration    16          0.731              1.565              1.143
 Vibration    17          0.779              1.437              0.908
 Vibration    18          0.790              1.409              0.865
 Vibration    19          0.919              1.111              0.518
 Vibration    20          0.933              1.082              0.492

 Optimization completed.
    -- Stationary point found.
 Normal termination of Gaussian 16 at Mon Feb 22 07:44:03 2021.
