 Gaussian 16, Revision A.03,
 Gaussian 16:  ES64L-G16RevA.03 25-Dec-2016

 ----------------------------------------------------------------------
 # wB97XD def2tzvp, opt=(ts, noeigen, calcfc, maxcycles=70, maxstep=1),
  freq=noraman, scrf=(iefpcm, solvent=water)
 ----------------------------------------------------------------------

 -----------------------
 0_iteration/TS-75-0.out
 -----------------------
 Symbolic Z-matrix:
 Charge =  0 Multiplicity = 1

 SCF Done:  E(RwB97XD) =  -1033.84009925     A.U. after   15 cycles
 SCF Done:  E(RwB97XD) =  -1033.84006296     A.U. after   10 cycles
 SCF Done:  E(RwB97XD) =  -1033.84003273     A.U. after   10 cycles
 SCF Done:  E(RwB97XD) =  -1033.84000828     A.U. after   10 cycles
 SCF Done:  E(RwB97XD) =  -1033.83999080     A.U. after   10 cycles
 SCF Done:  E(RwB97XD) =  -1033.83998399     A.U. after   11 cycles
 SCF Done:  E(RwB97XD) =  -1033.83999534     A.U. after   12 cycles
 SCF Done:  E(RwB97XD) =  -1033.84000952     A.U. after   12 cycles
 SCF Done:  E(RwB97XD) =  -1033.84002653     A.U. after    9 cycles
 SCF Done:  E(RwB97XD) =  -1033.84003201     A.U. after   12 cycles
 SCF Done:  E(RwB97XD) =  -1033.84005055     A.U. after   12 cycles
 SCF Done:  E(RwB97XD) =  -1033.84006732     A.U. after   10 cycles
 SCF Done:  E(RwB97XD) =  -1033.84007985     A.U. after   11 cycles
 SCF Done:  E(RwB97XD) =  -1033.84008501     A.U. after   11 cycles
 SCF Done:  E(RwB97XD) =  -1033.84008559     A.U. after   10 cycles
 SCF Done:  E(RwB97XD) =  -1033.84008585     A.U. after    8 cycles
 SCF Done:  E(RwB97XD) =  -1033.84008597     A.U. after    7 cycles
 SCF Done:  E(RwB97XD) =  -1033.84008462     A.U. after    8 cycles
 SCF Done:  E(RwB97XD) =  -1033.84008589     A.U. after    8 cycles
 Optimization completed.
    -- Stationary point found.
 Normal termination of Gaussian 16 at Sat Jan 30 16:03:03 2021.

 ---------------------------------------------------------------------
 #N Geom=AllCheck Guess=TCheck SCRF=Check GenChk RwB97XD/def2TZVP Freq
 ---------------------------------------------------------------------

 Structure from the checkpoint file:  "/beegfs/scratch/user/q/tla25/Gau-32720.chk"
 -----------------------
 0_iteration/TS-75-0.out
 -----------------------
 Charge =  0 Multiplicity = 1

                         Standard orientation:
 ---------------------------------------------------------------------
 Center     Atomic      Atomic             Coordinates (Angstroms)
 Number     Number       Type             X           Y           Z
 ---------------------------------------------------------------------
      1          6           0        1.261510   -0.370285   -0.299954
      2          6           0        2.575864    0.021570   -0.700409
      3          8           0        2.797325    1.166952   -1.146345
      4          6           0        0.209969    0.549169   -0.472151
      5          6           0        0.720310    1.639704    2.062134
      6          1           0        1.390302    0.779082    2.072847
      7          1           0        1.195490    2.466825    2.588378
      8          1           0       -0.208878    1.382647    2.564407
      9          7           0        0.447407    1.984746    0.670782
     10          1           0        1.273273    2.382810    0.231927
     11          1           0       -0.321560    2.638555    0.576647
     12          6           0       -1.231165    0.195517   -0.333779
     13          6           0       -1.777236   -0.351963    0.825787
     14          6           0       -3.130293   -0.643248    0.897538
     15          6           0       -3.958040   -0.401916   -0.189953
     16          6           0       -3.425488    0.142899   -1.348587
     17          6           0       -2.074266    0.446967   -1.413964
     18          1           0       -1.146119   -0.557155    1.678578
     19          1           0       -3.538937   -1.063696    1.807656
     20          1           0       -5.013784   -0.634461   -0.132406
     21          1           0       -4.062563    0.339281   -2.201512
     22          1           0       -1.666122    0.883615   -2.317808
     23          1           0        0.384407    1.174864   -1.341266
     24         17           0        1.054793   -1.884013    0.579559
     25          7           0        3.603404   -0.878377   -0.615713
     26          1           0        3.490484   -1.716170   -0.073527
     27          1           0        4.531271   -0.498642   -0.681115
 ---------------------------------------------------------------------

 SCF Done:  E(RwB97XD) =  -1033.84008589     A.U. after    1 cycles

 The electronic state is 1-A.
 Alpha  occ. eigenvalues -- -101.68678 -19.19617 -14.48907 -14.43328 -10.37446
 Alpha  occ. eigenvalues --  -10.34464 -10.31799 -10.30782 -10.29839 -10.29503
 Alpha  occ. eigenvalues --  -10.29423 -10.29337 -10.29283 -10.29250  -9.57202
 Alpha  occ. eigenvalues --   -7.31814  -7.31016  -7.30976  -1.11922  -1.04427
 Alpha  occ. eigenvalues --   -0.99184  -0.97511  -0.94916  -0.88659  -0.85528
 Alpha  occ. eigenvalues --   -0.82831  -0.79146  -0.74660  -0.71025  -0.69085
 Alpha  occ. eigenvalues --   -0.64721  -0.63037  -0.61606  -0.60175  -0.58212
 Alpha  occ. eigenvalues --   -0.57007  -0.55120  -0.54422  -0.53839  -0.51501
 Alpha  occ. eigenvalues --   -0.50862  -0.50227  -0.49089  -0.48206  -0.47513
 Alpha  occ. eigenvalues --   -0.46317  -0.44535  -0.43243  -0.42951  -0.41386
 Alpha  occ. eigenvalues --   -0.39881  -0.34943  -0.34167  -0.33737  -0.33505
 Alpha  occ. eigenvalues --   -0.26144
 Alpha virt. eigenvalues --    0.03033   0.04977   0.09099   0.10389   0.12123
 Alpha virt. eigenvalues --    0.13041   0.13560   0.14294   0.15800   0.16682
 Alpha virt. eigenvalues --    0.17140   0.17959   0.18170   0.19266   0.19514

 Mulliken charges:
               1
     1  C   -0.237603
     2  C    0.317165
     3  O   -0.584592
     4  C    0.031424
     5  C   -0.312531
     6  H    0.157497
     7  H    0.158953
     8  H    0.158499
     9  N   -0.275523
    10  H    0.281979
    11  H    0.286327
    12  C    0.213375
    13  C   -0.292112
    14  C   -0.132838
    15  C   -0.156176
    16  C   -0.131183
    17  C   -0.244404
    18  H    0.175997
    19  H    0.144766
    20  H    0.146011
    21  H    0.145168
    22  H    0.144170
    23  H    0.149458
    24  Cl  -0.182759
    25  N   -0.484932
    26  H    0.259180
    27  H    0.264685
 Sum of Mulliken charges =  -0.00000

 Dipole moment (field-independent basis, Debye):
    X=             -3.6919    Y=              3.8213    Z=              4.5068  Tot=              6.9673
 Quadrupole moment (field-independent basis, Debye-Ang):
   XX=            -84.5606   YY=            -85.3604   ZZ=            -87.0529
   XY=             -5.7540   XZ=              9.9510   YZ=              3.9801

  Exact polarizability: 256.872  -2.423 183.415  -7.744 -14.815 187.335
 Approx polarizability: 192.076   1.438 158.133  -4.008 -16.432 162.194

 ******    1 imaginary frequencies (negative Signs) ******

                      1                      2                      3
                      A                      A                      A
 Frequencies --   -366.4331                43.0673                49.7417
 Red. masses --      5.8383                 4.1866                 6.2229
 Frc consts  --      0.4619                 0.0046                 0.0091
 IR Inten    --    904.5635                 0.7107                 3.4785

                      4                      5                      6
                      A                      A                      A
 Frequencies --     71.2069                90.8259               108.1648
 Red. masses --      3.0960                 4.3345                 4.6004
 Frc consts  --      0.0092                 0.0211                 0.0317
 IR Inten    --      2.8898                 0.1255                24.2962

                      7                      8                      9
                      A                      A                      A
 Frequencies --    139.7845               151.3945               219.4337
 Red. masses --      4.6861                 2.5357                 6.2945
 Frc consts  --      0.0539                 0.0342                 0.1786
 IR Inten    --     14.1490                45.0669                14.5389

                     10                     11                     12
                      A                      A                      A
 Frequencies --    225.7498               245.6572               271.3244
 Red. masses --      1.4201                 5.0946                 2.6139
 Frc consts  --      0.0426                 0.1811                 0.1134
 IR Inten    --      6.1522                 0.6176                68.6607

                     13                     14                     15
                      A                      A                      A
 Frequencies --    300.0170               320.7274               335.3564
 Red. masses --      4.0925                 3.9391                 1.3870
 Frc consts  --      0.2170                 0.2387                 0.0919
 IR Inten    --      5.0255                44.4065               261.5002

                     16                     17                     18
                      A                      A                      A
 Frequencies --    425.2463               442.1370               462.9365
 Red. masses --      2.9325                 3.9049                 4.8766
 Frc consts  --      0.3124                 0.4498                 0.6158
 IR Inten    --      1.7441                30.0043                20.6360

                     19                     20                     21
                      A                      A                      A
 Frequencies --    496.0216               566.8676               579.1446
 Red. masses --      1.2497                 3.2244                 3.3438
 Frc consts  --      0.1812                 0.6105                 0.6608
 IR Inten    --     13.1385                16.3825               137.0974

                     22                     23                     24
                      A                      A                      A
 Frequencies --    633.9341               666.2090               700.5196
 Red. masses --      6.3526                 3.7692                 2.3120
 Frc consts  --      1.5042                 0.9856                 0.6685
 IR Inten    --      1.3372                21.2778                48.3571

                     25                     26                     27
                      A                      A                      A
 Frequencies --    727.9525               731.8153               784.7416
 Red. masses --      1.7110                 2.5885                 7.7415
 Frc consts  --      0.5342                 0.8168                 2.8088
 IR Inten    --     59.0517               110.1044                27.0671

                     28                     29                     30
                      A                      A                      A
 Frequencies --    800.9778               877.5546               879.8323
 Red. masses --      2.1404                 3.3963                 1.2489
 Frc consts  --      0.8091                 1.5410                 0.5696
 IR Inten    --     14.8411                29.8040                 0.3512

                     31                     32                     33
                      A                      A                      A
 Frequencies --    962.7153              1015.1810              1024.1494
 Red. masses --      1.4266                 1.3828                 1.1065
 Frc consts  --      0.7790                 0.8396                 0.6838
 IR Inten    --      1.7926                 0.5308                44.7566

                     34                     35                     36
                      A                      A                      A
 Frequencies --   1026.5255              1033.1677              1045.4541
 Red. masses --      5.4814                 1.3242                 3.3209
 Frc consts  --      3.4031                 0.8328                 2.1386
 IR Inten    --      3.8526                 1.0196               152.5405

                     37                     38                     39
                      A                      A                      A
 Frequencies --   1062.5819              1064.5790              1085.5593
 Red. masses --      3.0248                 2.3149                 1.2741
 Frc consts  --      2.0122                 1.5457                 0.8847
 IR Inten    --      7.0179                 2.3699                64.9987

                     40                     41                     42
                      A                      A                      A
 Frequencies --   1090.2018              1119.9459              1185.5613
 Red. masses --      1.6942                 1.5998                 1.1347
 Frc consts  --      1.1864                 1.1823                 0.9397
 IR Inten    --     46.2786                14.4595                 0.2613

                     43                     44                     45
                      A                      A                      A
 Frequencies --   1214.1056              1217.6108              1231.8216
 Red. masses --      1.2054                 2.1188                 1.4686
 Frc consts  --      1.0469                 1.8508                 1.3129
 IR Inten    --     19.4697                17.7364               109.1862

                     46                     47                     48
                      A                      A                      A
 Frequencies --   1240.7355              1291.7030              1332.8637
 Red. masses --      1.7854                 1.2038                 4.0948
 Frc consts  --      1.6193                 1.1833                 4.2860
 IR Inten    --     68.5548                30.6186                18.1650

                     49                     50                     51
                      A                      A                      A
 Frequencies --   1358.0850              1367.9097              1407.1173
 Red. masses --      1.3732                 1.3680                 3.7411
 Frc consts  --      1.4922                 1.5081                 4.3642
 IR Inten    --     15.7009                14.9825               412.6496

                     52                     53                     54
                      A                      A                      A
 Frequencies --   1449.1890              1464.8082              1497.4996
 Red. masses --      1.9135                 1.5832                 1.0420
 Frc consts  --      2.3677                 2.0014                 1.3768
 IR Inten    --    490.6544               259.4886                18.6046

                     55                     56                     57
                      A                      A                      A
 Frequencies --   1503.1012              1508.7136              1551.0128
 Red. masses --      2.2275                 1.0572                 2.4687
 Frc consts  --      2.9652                 1.4179                 3.4991
 IR Inten    --     91.2880                 1.8186                 3.8307

                     58                     59                     60
                      A                      A                      A
 Frequencies --   1591.1849              1627.3234              1650.3457
 Red. masses --      2.5602                 1.6528                 1.2330
 Frc consts  --      3.8191                 2.5789                 1.9786
 IR Inten    --    504.9927               454.0458                 0.9774

                     61                     62                     63
                      A                      A                      A
 Frequencies --   1655.0510              1678.8725              3068.9457
 Red. masses --      4.5842                 5.8756                 1.0337
 Frc consts  --      7.3983                 9.7575                 5.7362
 IR Inten    --      2.3812                 0.1438                33.0036

                     64                     65                     66
                      A                      A                      A
 Frequencies --   3143.8894              3157.3904              3173.5625
 Red. masses --      1.1048                 1.0884                 1.1050
 Frc consts  --      6.4335                 6.3929                 6.5570
 IR Inten    --     10.7656                 6.2464                13.8535

                     67                     68                     69
                      A                      A                      A
 Frequencies --   3192.5925              3199.9483              3209.9018
 Red. masses --      1.0874                 1.0886                 1.0929
 Frc consts  --      6.5300                 6.5674                 6.6345
 IR Inten    --      4.9457                 1.5036                26.1641

                     70                     71                     72
                      A                      A                      A
 Frequencies --   3221.0626              3235.5381              3497.0379
 Red. masses --      1.0974                 1.0939                 1.0531
 Frc consts  --      6.7082                 6.7473                 7.5877
 IR Inten    --     24.8633                 4.9526                42.6271

                     73                     74                     75
                      A                      A                      A
 Frequencies --   3590.8768              3621.4454              3741.4892
 Red. masses --      1.0947                 1.0458                 1.1031
 Frc consts  --      8.3163                 8.0811                 9.0979
 IR Inten    --     74.4380                66.8010                75.6090

 - Thermochemistry -
 -------------------
 Temperature   298.150 Kelvin.  Pressure   1.00000 Atm.
 Atom     1 has atomic number  6 and mass  12.00000

 Molecular mass:   212.07164 amu.
 Principal axes and moments of inertia in atomic units:
                           1         2         3
     Eigenvalues --  1772.783194683.919364982.63422
           X            0.99996   0.00487   0.00724
           Y           -0.00555   0.99519   0.09786
           Z           -0.00673  -0.09789   0.99517
 This molecule is an asymmetric top.
 Rotational symmetry number  1.
 Warning -- assumption of classical behavior for rotation
           may cause significant error
 Rotational temperatures (Kelvin)      0.04886     0.01849     0.01738
 Rotational constants (GHZ):           1.01803     0.38531     0.36221
    1 imaginary frequencies ignored.
 Zero-point vibrational energy     579929.8 (Joules/Mol)
                                  138.60656 (Kcal/Mol)
 Warning -- explicit consideration of  20 degrees of freedom as
           vibrations may cause significant error
 Vibrational temperatures:     61.96    71.57   102.45   130.68   155.63
          (Kelvin)            201.12   217.82   315.72   324.80   353.45
                              390.38   431.66   461.46   482.50   611.83
                              636.14   666.06   713.66   815.60   833.26
                              912.09   958.53  1007.89  1047.36  1052.92
                             1129.07  1152.43  1262.61  1265.88  1385.13
                             1460.62  1473.52  1476.94  1486.50  1504.18
                             1528.82  1531.69  1561.88  1568.56  1611.35
                             1705.76  1746.83  1751.87  1772.32  1785.14
                             1858.47  1917.69  1953.98  1968.12  2024.53
                             2085.06  2107.53  2154.57  2162.63  2170.70
                             2231.56  2289.36  2341.36  2374.48  2381.25
                             2415.52  4415.53  4523.36  4542.78  4566.05
                             4593.43  4604.01  4618.33  4634.39  4655.22
                             5031.46  5166.47  5210.45  5383.17

 Zero-point correction=                           0.220884 (Hartree/Particle)
 Thermal correction to Energy=                    0.234919
 Thermal correction to Enthalpy=                  0.235863
 Thermal correction to Gibbs Free Energy=         0.179128
 Sum of electronic and zero-point Energies=          -1033.619202
 Sum of electronic and thermal Energies=             -1033.605167
 Sum of electronic and thermal Enthalpies=           -1033.604223
 Sum of electronic and thermal Free Energies=        -1033.660958

                     E (Thermal)             CV                S
                      KCal/Mol        Cal/Mol-Kelvin    Cal/Mol-Kelvin
 Total                  147.414             51.710            119.409
 Electronic               0.000              0.000              0.000
 Translational            0.889              2.981             41.959
 Rotational               0.889              2.981             32.092
 Vibrational            145.636             45.748             45.358
 Vibration     1          0.595              1.980              5.113
 Vibration     2          0.595              1.978              4.828
 Vibration     3          0.598              1.968              4.120
 Vibration     4          0.602              1.956              3.642
 Vibration     5          0.606              1.943              3.302
 Vibration     6          0.615              1.914              2.807
 Vibration     7          0.619              1.901              2.655
 Vibration     8          0.647              1.811              1.964
 Vibration     9          0.650              1.802              1.912
 Vibration    10          0.660              1.770              1.762
 Vibration    11          0.675              1.726              1.588
 Vibration    12          0.693              1.674              1.417
 Vibration    13          0.706              1.634              1.306
 Vibration    14          0.716              1.605              1.234
 Vibration    15          0.787              1.415              0.874
 Vibration    16          0.802              1.378              0.820
 Vibration    17          0.821              1.332              0.758
 Vibration    18          0.852              1.259              0.668
 Vibration    19          0.923              1.103              0.510
 Vibration    20          0.936              1.076              0.487

 Optimization completed.
    -- Stationary point found.
 Normal termination of Gaussian 16 at Sat Jan 30 16:49:28 2021.
