 Gaussian 16, Revision A.03,
 Gaussian 16:  ES64L-G16RevA.03 25-Dec-2016

 ----------------------------------------------------------------------
 # wB97XD def2tzvp, opt=(ts, noeigen, calcfc, maxcycles=70, maxstep=5),
  freq=noraman, scrf=(iefpcm, solvent=water)
 ----------------------------------------------------------------------

 ------------------------
 2_iteration/TS-722-2.out
 ------------------------
 Symbolic Z-matrix:
 Charge =  0 Multiplicity = 1

 SCF Done:  E(RwB97XD) =  -5705.36849701     A.U. after   15 cycles
 SCF Done:  E(RwB97XD) =  -5705.36849961     A.U. after   11 cycles
 SCF Done:  E(RwB97XD) =  -5705.36834403     A.U. after   12 cycles
 SCF Done:  E(RwB97XD) =  -5705.36852444     A.U. after   12 cycles
 SCF Done:  E(RwB97XD) =  -5705.36843407     A.U. after   12 cycles
 SCF Done:  E(RwB97XD) =  -5705.36852129     A.U. after   12 cycles
 SCF Done:  E(RwB97XD) =  -5705.36845068     A.U. after   12 cycles
 SCF Done:  E(RwB97XD) =  -5705.36852516     A.U. after   12 cycles
 SCF Done:  E(RwB97XD) =  -5705.36852275     A.U. after   11 cycles
 SCF Done:  E(RwB97XD) =  -5705.36853058     A.U. after   10 cycles
 Optimization completed.
    -- Stationary point found.
 Normal termination of Gaussian 16 at Mon Feb 22 14:54:33 2021.

 ---------------------------------------------------------------------
 #N Geom=AllCheck Guess=TCheck SCRF=Check GenChk RwB97XD/def2TZVP Freq
 ---------------------------------------------------------------------

 Structure from the checkpoint file:  "/beegfs/scratch/user/q/tla25/Gau-69445.chk"
 ------------------------
 2_iteration/TS-722-2.out
 ------------------------
 Charge =  0 Multiplicity = 1

                         Standard orientation:
 ---------------------------------------------------------------------
 Center     Atomic      Atomic             Coordinates (Angstroms)
 Number     Number       Type             X           Y           Z
 ---------------------------------------------------------------------
      1          6           0        0.186958    0.829920   -0.028814
      2          6           0       -0.056209    2.256740   -0.080565
      3          8           0        0.871158    3.039505   -0.298392
      4          6           0       -0.793435   -0.149638    0.094791
      5          6           0       -0.644670    0.090820    2.872018
      6          1           0       -1.131362    0.149088    3.844353
      7          1           0        0.121385   -0.681831    2.893169
      8          1           0       -0.181910    1.049856    2.641799
      9          7           0       -1.608112   -0.219952    1.826164
     10          1           0       -1.997425   -1.151653    1.924709
     11          1           0       -2.380585    0.436510    1.823485
     12         35           0       -0.190400   -1.984959    0.017649
     13         35           0       -2.475729   -0.026165   -0.918070
     14          6           0        1.629724    0.439710   -0.129520
     15          6           0        2.461603    0.401798    0.985331
     16          6           0        3.799886    0.053995    0.865859
     17          6           0        4.331214   -0.255252   -0.377708
     18          6           0        3.516134   -0.207481   -1.500442
     19          6           0        2.179988    0.140038   -1.374086
     20          1           0        2.059751    0.646427    1.960230
     21          1           0        4.428476    0.024967    1.747360
     22          1           0        5.374643   -0.528693   -0.472354
     23          1           0        3.922054   -0.441635   -2.476900
     24          1           0        1.545065    0.174298   -2.251573
     25          6           0       -1.423182    2.867011    0.155003
     26          1           0       -1.952671    2.953538   -0.795148
     27          1           0       -2.060871    2.307591    0.834691
     28          1           0       -1.272596    3.868525    0.553681
 ---------------------------------------------------------------------

 SCF Done:  E(RwB97XD) =  -5705.36853058     A.U. after    1 cycles

 The electronic state is 1-A.
 Alpha  occ. eigenvalues -- -483.14525-483.13972 -62.69354 -62.68819 -56.48492
 Alpha  occ. eigenvalues --  -56.48112 -56.48093 -56.47946 -56.47575 -56.47563
 Alpha  occ. eigenvalues --  -19.21155 -14.50624 -10.44765 -10.36386 -10.32556
 Alpha  occ. eigenvalues --  -10.29910 -10.28729 -10.28695 -10.28637 -10.28477
 Alpha  occ. eigenvalues --  -10.28417 -10.27929 -10.27784  -8.83454  -8.82923
 Alpha  occ. eigenvalues --   -6.65665  -6.65105  -6.64455  -6.64397  -6.63930
 Alpha  occ. eigenvalues --   -6.63893  -2.76042  -2.75703  -2.75659  -2.75480
 Alpha  occ. eigenvalues --   -2.75154  -2.75125  -2.74680  -2.74679  -2.74176
 Alpha  occ. eigenvalues --   -2.74175  -1.12120  -1.06003  -0.97329  -0.95288
 Alpha  occ. eigenvalues --   -0.88103  -0.87869  -0.84717  -0.84045  -0.80713
 Alpha  occ. eigenvalues --   -0.80044  -0.71044  -0.70041  -0.68568  -0.65079
 Alpha  occ. eigenvalues --   -0.62426  -0.59389  -0.58432  -0.56927  -0.55317
 Alpha  occ. eigenvalues --   -0.55040  -0.53653  -0.52549  -0.51984  -0.50496
 Alpha  occ. eigenvalues --   -0.49525  -0.49062  -0.48657  -0.47617  -0.46797
 Alpha  occ. eigenvalues --   -0.45743  -0.43542  -0.42367  -0.42210  -0.40200
 Alpha  occ. eigenvalues --   -0.38869  -0.38007  -0.36651  -0.33374  -0.33199
 Alpha  occ. eigenvalues --   -0.32094  -0.28845
 Alpha virt. eigenvalues --    0.01309   0.02888   0.05295   0.05719   0.06387
 Alpha virt. eigenvalues --    0.09684   0.12687   0.13864   0.14200   0.14501
 Alpha virt. eigenvalues --    0.15631   0.16576   0.17455   0.18099   0.18509

 Mulliken charges:
               1
     1  C   -0.325154
     2  C    0.245690
     3  O   -0.490046
     4  C    0.094004
     5  C   -0.311823
     6  H    0.176677
     7  H    0.171704
     8  H    0.162450
     9  N   -0.303967
    10  H    0.300774
    11  H    0.288118
    12  Br  -0.035305
    13  Br  -0.068732
    14  C    0.288908
    15  C   -0.215282
    16  C   -0.174749
    17  C   -0.132561
    18  C   -0.149306
    19  C   -0.252867
    20  H    0.149046
    21  H    0.137863
    22  H    0.141960
    23  H    0.138866
    24  H    0.135825
    25  C   -0.362314
    26  H    0.157338
    27  H    0.095798
    28  H    0.137085
 Sum of Mulliken charges =  -0.00000

 Dipole moment (field-independent basis, Debye):
    X=             -5.8604    Y=             -4.5509    Z=              6.7547  Tot=             10.0340
 Quadrupole moment (field-independent basis, Debye-Ang):
   XX=           -105.5596   YY=           -131.0246   ZZ=            -96.2123
   XY=            -11.1948   XZ=             -8.0164   YZ=              2.3555

  Exact polarizability: 294.850   2.844 245.907  -0.648  -4.340 243.579
 Approx polarizability: 230.843   1.756 200.826   0.227  -2.523 208.075

 ******    1 imaginary frequencies (negative Signs) ******

                      1                      2                      3
                      A                      A                      A
 Frequencies --   -371.3847                39.3555                53.2352
 Red. masses --      5.8002                 4.1798                 6.8227
 Frc consts  --      0.4714                 0.0038                 0.0114
 IR Inten    --    741.4278                 0.9404                 3.4657

                      4                      5                      6
                      A                      A                      A
 Frequencies --     66.9823                72.5581                81.2066
 Red. masses --      6.7464                 5.3969                 3.0092
 Frc consts  --      0.0178                 0.0167                 0.0117
 IR Inten    --      2.3357                 8.1606                 1.9436

                      7                      8                      9
                      A                      A                      A
 Frequencies --    123.7460               139.9046               166.9666
 Red. masses --      4.1448                 6.1578                 6.2314
 Frc consts  --      0.0374                 0.0710                 0.1024
 IR Inten    --      4.0122                 2.3255                 0.2051

                     10                     11                     12
                      A                      A                      A
 Frequencies --    179.4225               190.2481               208.6206
 Red. masses --      2.4478                 1.5241                 5.3320
 Frc consts  --      0.0464                 0.0325                 0.1367
 IR Inten    --      1.3670                 2.6392                 5.8530

                     13                     14                     15
                      A                      A                      A
 Frequencies --    238.5805               251.9081               259.3191
 Red. masses --      4.2247                 2.5665                 1.4210
 Frc consts  --      0.1417                 0.0960                 0.0563
 IR Inten    --      4.7663                18.9085                 9.9802

                     16                     17                     18
                      A                      A                      A
 Frequencies --    274.7841               305.4529               366.1597
 Red. masses --      3.9223                 5.7125                 3.3915
 Frc consts  --      0.1745                 0.3140                 0.2679
 IR Inten    --     18.0017                 5.8212                 6.0708

                     19                     20                     21
                      A                      A                      A
 Frequencies --    411.9960               422.8353               506.4996
 Red. masses --      4.3804                 2.8763                 4.9073
 Frc consts  --      0.4381                 0.3030                 0.7417
 IR Inten    --      8.2070                 0.1193                52.3675

                     22                     23                     24
                      A                      A                      A
 Frequencies --    526.7208               585.0058               630.0747
 Red. masses --      3.6115                 4.0880                 4.5764
 Frc consts  --      0.5903                 0.8243                 1.0704
 IR Inten    --     32.6922                76.4678                53.4281

                     25                     26                     27
                      A                      A                      A
 Frequencies --    638.6373               653.0195               694.9331
 Red. masses --      5.0948                 1.6314                 3.8382
 Frc consts  --      1.2243                 0.4099                 1.0921
 IR Inten    --     77.5792                 9.1548                55.9568

                     28                     29                     30
                      A                      A                      A
 Frequencies --    724.9273               745.8183               788.2099
 Red. masses --      1.6248                 3.6606                 2.5582
 Frc consts  --      0.5031                 1.1997                 0.9364
 IR Inten    --     83.1540               161.0855                81.2333

                     31                     32                     33
                      A                      A                      A
 Frequencies --    834.0975               875.7803               926.7889
 Red. masses --      3.4293                 1.2507                 2.7106
 Frc consts  --      1.4057                 0.5652                 1.3717
 IR Inten    --     88.5972                 0.1456                15.9566

                     34                     35                     36
                      A                      A                      A
 Frequencies --    962.3017              1007.3803              1010.6934
 Red. masses --      1.7804                 1.1403                 1.2895
 Frc consts  --      0.9714                 0.6818                 0.7761
 IR Inten    --     37.2545                 3.8584                 0.7718

                     37                     38                     39
                      A                      A                      A
 Frequencies --   1026.2286              1026.9049              1033.1950
 Red. masses --      1.5241                 3.6125                 1.5587
 Frc consts  --      0.9457                 2.2445                 0.9803
 IR Inten    --      4.8632                 1.4210                96.3184

                     40                     41                     42
                      A                      A                      A
 Frequencies --   1038.4430              1048.9686              1064.7568
 Red. masses --      1.5500                 1.5366                 1.9281
 Frc consts  --      0.9848                 0.9962                 1.2879
 IR Inten    --      9.3693                98.3601                27.2653

                     43                     44                     45
                      A                      A                      A
 Frequencies --   1084.2078              1109.1299              1181.7870
 Red. masses --      5.0796                 1.5492                 1.1354
 Frc consts  --      3.5181                 1.1229                 0.9343
 IR Inten    --     61.0367                14.5478                 0.0825

                     46                     47                     48
                      A                      A                      A
 Frequencies --   1206.7355              1210.0486              1229.5433
 Red. masses --      1.1190                 3.6349                 1.4026
 Frc consts  --      0.9600                 3.1358                 1.2493
 IR Inten    --      0.4754                64.4127                28.2841

                     49                     50                     51
                      A                      A                      A
 Frequencies --   1307.7422              1323.1090              1341.1803
 Red. masses --      4.4490                 4.4499                 1.3422
 Frc consts  --      4.4829                 4.5898                 1.4225
 IR Inten    --     13.0381              1174.9274                20.2997

                     52                     53                     54
                      A                      A                      A
 Frequencies --   1355.8741              1393.5675              1405.0884
 Red. masses --      1.4529                 1.5021                 3.7707
 Frc consts  --      1.5737                 1.7187                 4.3862
 IR Inten    --      0.3630               261.5890               330.4602

                     55                     56                     57
                      A                      A                      A
 Frequencies --   1458.9035              1466.9059              1487.2023
 Red. masses --      1.2165                 1.0808                 2.1866
 Frc consts  --      1.5255                 1.3702                 2.8495
 IR Inten    --     21.8678                11.8461                 6.7807

                     58                     59                     60
                      A                      A                      A
 Frequencies --   1495.4399              1499.9418              1507.9872
 Red. masses --      1.0316                 1.0528                 1.0724
 Frc consts  --      1.3592                 1.3955                 1.4368
 IR Inten    --     12.7259                44.3239                28.9049

                     61                     62                     63
                      A                      A                      A
 Frequencies --   1543.4962              1640.8993              1646.4093
 Red. masses --      2.4095                 1.1220                 5.7648
 Frc consts  --      3.3822                 1.7799                 9.2068
 IR Inten    --     44.2395               160.3217                12.2521

                     64                     65                     66
                      A                      A                      A
 Frequencies --   1650.1120              1672.5811              3075.1813
 Red. masses --      7.8146                 6.1036                 1.0324
 Frc consts  --     12.5367                10.0602                 5.7522
 IR Inten    --    536.7377                72.4906                19.2409

                     67                     68                     69
                      A                      A                      A
 Frequencies --   3076.5286              3150.8444              3158.5817
 Red. masses --      1.0388                 1.0987                 1.1050
 Frc consts  --      5.7933                 6.4264                 6.4952
 IR Inten    --      8.2544                14.9029                 5.7216

                     70                     71                     72
                      A                      A                      A
 Frequencies --   3172.1080              3179.1707              3188.2186
 Red. masses --      1.1063                 1.1012                 1.0862
 Frc consts  --      6.5586                 6.5578                 6.5053
 IR Inten    --      8.1175                41.8721                 5.2489

                     73                     74                     75
                      A                      A                      A
 Frequencies --   3194.2241              3203.8333              3212.5871
 Red. masses --      1.0879                 1.0923                 1.0943
 Frc consts  --      6.5402                 6.6059                 6.6541
 IR Inten    --      0.3527                24.9585                44.3902

                     76                     77                     78
                      A                      A                      A
 Frequencies --   3220.5263              3517.6770              3599.6233
 Red. masses --      1.0981                 1.0510                 1.0964
 Frc consts  --      6.7106                 7.6627                 8.3704
 IR Inten    --     16.4021                69.6987                61.6923

 - Thermochemistry -
 -------------------
 Temperature   298.150 Kelvin.  Pressure   1.00000 Atm.
 Atom     1 has atomic number  6 and mass  12.00000

 Molecular mass:   332.93639 amu.
 Principal axes and moments of inertia in atomic units:
                           1         2         3
     Eigenvalues --  3591.737446116.540857270.36944
           X            0.99905  -0.02571  -0.03510
           Y            0.02640   0.99946   0.01939
           Z            0.03458  -0.02030   0.99920
 This molecule is an asymmetric top.
 Rotational symmetry number  1.
 Warning -- assumption of classical behavior for rotation
           may cause significant error
 Rotational temperatures (Kelvin)      0.02411     0.01416     0.01191
 Rotational constants (GHZ):           0.50247     0.29506     0.24823
    1 imaginary frequencies ignored.
 Zero-point vibrational energy     576418.6 (Joules/Mol)
                                  137.76735 (Kcal/Mol)
 Warning -- explicit consideration of  22 degrees of freedom as
           vibrations may cause significant error
 Vibrational temperatures:     56.62    76.59    96.37   104.39   116.84
          (Kelvin)            178.04   201.29   240.23   258.15   273.72
                              300.16   343.26   362.44   373.10   395.35
                              439.48   526.82   592.77   608.37   728.74
                              757.83   841.69   906.54   918.86   939.55
                              999.85  1043.01  1073.07  1134.06  1200.08
                             1260.05  1333.44  1384.54  1449.40  1454.16
                             1476.51  1477.49  1486.54  1494.09  1509.23
                             1531.95  1559.93  1595.79  1700.33  1736.22
                             1740.99  1769.04  1881.55  1903.66  1929.66
                             1950.80  2005.03  2021.61  2099.04  2110.55
                             2139.75  2151.60  2158.08  2169.66  2220.75
                             2360.89  2368.82  2374.14  2406.47  4424.50
                             4426.44  4533.36  4544.49  4563.96  4574.12
                             4587.14  4595.78  4609.60  4622.20  4633.62
                             5061.15  5179.06

 Zero-point correction=                           0.219546 (Hartree/Particle)
 Thermal correction to Energy=                    0.235464
 Thermal correction to Enthalpy=                  0.236408
 Thermal correction to Gibbs Free Energy=         0.174368
 Sum of electronic and zero-point Energies=          -5705.148984
 Sum of electronic and thermal Energies=             -5705.133067
 Sum of electronic and thermal Enthalpies=           -5705.132123
 Sum of electronic and thermal Free Energies=        -5705.194163

                     E (Thermal)             CV                S
                      KCal/Mol        Cal/Mol-Kelvin    Cal/Mol-Kelvin
 Total                  147.756             57.129            130.575
 Electronic               0.000              0.000              0.000
 Translational            0.889              2.981             43.303
 Rotational               0.889              2.981             33.435
 Vibrational            145.978             51.168             53.837
 Vibration     1          0.594              1.981              5.291
 Vibration     2          0.596              1.976              4.693
 Vibration     3          0.598              1.970              4.240
 Vibration     4          0.599              1.967              4.083
 Vibration     5          0.600              1.962              3.861
 Vibration     6          0.610              1.929              3.041
 Vibration     7          0.615              1.913              2.805
 Vibration     8          0.624              1.883              2.469
 Vibration     9          0.629              1.868              2.334
 Vibration    10          0.634              1.853              2.225
 Vibration    11          0.642              1.828              2.056
 Vibration    12          0.657              1.782              1.813
 Vibration    13          0.664              1.760              1.717
 Vibration    14          0.668              1.747              1.666
 Vibration    15          0.677              1.720              1.566
 Vibration    16          0.696              1.663              1.387
 Vibration    17          0.739              1.542              1.096
 Vibration    18          0.776              1.444              0.920
 Vibration    19          0.785              1.421              0.882
 Vibration    20          0.862              1.236              0.642
 Vibration    21          0.882              1.191              0.595
 Vibration    22          0.942              1.064              0.476

 Optimization completed.
    -- Stationary point found.
 Normal termination of Gaussian 16 at Mon Feb 22 15:59:55 2021.
