 Gaussian 16, Revision A.03,
 Gaussian 16:  ES64L-G16RevA.03 25-Dec-2016

 ----------------------------------------------------------------------
 # wB97XD def2tzvp, opt=(ts, noeigen, calcfc, maxcycles=70, maxstep=8),
  freq=noraman, scrf=(iefpcm, solvent=water)
 ----------------------------------------------------------------------

 ------------------------
 1_iteration/TS-760-1.out
 ------------------------
 Symbolic Z-matrix:
 Charge =  0 Multiplicity = 1

 SCF Done:  E(RwB97XD) =  -6125.64888937     A.U. after   16 cycles
 SCF Done:  E(RwB97XD) =  -6125.65015848     A.U. after   14 cycles
 SCF Done:  E(RwB97XD) =  -6125.65107165     A.U. after   13 cycles
 SCF Done:  E(RwB97XD) =  -6125.65162304     A.U. after   13 cycles
 SCF Done:  E(RwB97XD) =  -6125.65207423     A.U. after   13 cycles
 SCF Done:  E(RwB97XD) =  -6125.65258681     A.U. after   14 cycles
 SCF Done:  E(RwB97XD) =  -6125.65383214     A.U. after   13 cycles
 SCF Done:  E(RwB97XD) =  -6125.65491422     A.U. after   15 cycles
 SCF Done:  E(RwB97XD) =  -6125.65605909     A.U. after   13 cycles
 SCF Done:  E(RwB97XD) =  -6125.65473777     A.U. after   14 cycles
 SCF Done:  E(RwB97XD) =  -6125.65625812     A.U. after   13 cycles
 SCF Done:  E(RwB97XD) =  -6125.65606355     A.U. after   13 cycles
 SCF Done:  E(RwB97XD) =  -6125.65636983     A.U. after   12 cycles
 SCF Done:  E(RwB97XD) =  -6125.65639459     A.U. after   11 cycles
 SCF Done:  E(RwB97XD) =  -6125.65639516     A.U. after   10 cycles
 SCF Done:  E(RwB97XD) =  -6125.65639542     A.U. after    8 cycles
 SCF Done:  E(RwB97XD) =  -6125.65639571     A.U. after    8 cycles
 SCF Done:  E(RwB97XD) =  -6125.65639600     A.U. after    7 cycles
 SCF Done:  E(RwB97XD) =  -6125.65639601     A.U. after    6 cycles
 Optimization completed.
    -- Stationary point found.
 Normal termination of Gaussian 16 at Mon Feb 22 12:52:56 2021.

 ---------------------------------------------------------------------
 #N Geom=AllCheck Guess=TCheck SCRF=Check GenChk RwB97XD/def2TZVP Freq
 ---------------------------------------------------------------------

 Structure from the checkpoint file:  "/beegfs/scratch/user/q/tla25/Gau-115243.chk"
 ------------------------
 1_iteration/TS-760-1.out
 ------------------------
 Charge =  0 Multiplicity = 1

                         Standard orientation:
 ---------------------------------------------------------------------
 Center     Atomic      Atomic             Coordinates (Angstroms)
 Number     Number       Type             X           Y           Z
 ---------------------------------------------------------------------
      1          6           0        0.489907    1.120206   -0.266161
      2          6           0       -0.848509    1.611892   -0.535137
      3          8           0       -1.043449    2.716347   -1.028529
      4          6           0        0.903244   -0.185613   -0.018974
      5          6           0        1.183954    0.451121    2.730007
      6          1           0        0.938043    0.262840    3.774634
      7          1           0        2.256364    0.605296    2.631551
      8          1           0        0.664911    1.350630    2.397569
      9          7           0        0.778520   -0.661623    1.882006
     10          1           0        1.333894   -1.494814    2.044840
     11          1           0       -0.197524   -0.902818    2.018801
     12         35           0        2.774098   -0.590402   -0.247609
     13         35           0       -0.136914   -1.665749   -0.690880
     14         17           0        1.701765    2.387102   -0.298861
     15          6           0       -2.052695    0.800667   -0.156160
     16          6           0       -2.310422    0.500040    1.175407
     17          6           0       -3.460279   -0.192611    1.526731
     18          6           0       -4.354330   -0.592400    0.545278
     19          6           0       -4.111395   -0.270934   -0.784596
     20          6           0       -2.973128    0.436159   -1.132532
     21          1           0       -1.629505    0.836699    1.947906
     22          1           0       -3.656879   -0.416358    2.567333
     23          1           0       -5.245827   -1.143556    0.815679
     24          1           0       -4.813534   -0.572077   -1.551545
     25          1           0       -2.781505    0.688177   -2.167986
 ---------------------------------------------------------------------

 SCF Done:  E(RwB97XD) =  -6125.65639601     A.U. after    1 cycles

 The electronic state is 1-A.
 Alpha  occ. eigenvalues -- -483.15001-483.14932-101.69503 -62.69829 -62.69769
 Alpha  occ. eigenvalues --  -56.48979 -56.48915 -56.48578 -56.48565 -56.48522
 Alpha  occ. eigenvalues --  -56.48500 -19.23069 -14.49860 -10.45516 -10.38155
 Alpha  occ. eigenvalues --  -10.33720 -10.32424 -10.30695 -10.30075 -10.29733
 Alpha  occ. eigenvalues --  -10.29731 -10.29630 -10.29574  -9.58033  -8.83929
 Alpha  occ. eigenvalues --   -8.83878  -7.32696  -7.31802  -7.31788  -6.66174
 Alpha  occ. eigenvalues --   -6.66120  -6.64902  -6.64867  -6.64862  -6.64802
 Alpha  occ. eigenvalues --   -2.76544  -2.76491  -2.76185  -2.76153  -2.76142
 Alpha  occ. eigenvalues --   -2.76091  -2.75125  -2.75125  -2.75078  -2.75077
 Alpha  occ. eigenvalues --   -1.14244  -1.05431  -0.99127  -0.97412  -0.93941
 Alpha  occ. eigenvalues --   -0.88890  -0.87286  -0.85935  -0.82735  -0.79760
 Alpha  occ. eigenvalues --   -0.74531  -0.71384  -0.69794  -0.64765  -0.63919
 Alpha  occ. eigenvalues --   -0.60027  -0.58547  -0.57965  -0.56027  -0.55629
 Alpha  occ. eigenvalues --   -0.54980  -0.53769  -0.51781  -0.51249  -0.49613
 Alpha  occ. eigenvalues --   -0.48881  -0.48536  -0.47270  -0.46428  -0.44908
 Alpha  occ. eigenvalues --   -0.43590  -0.42566  -0.41667  -0.40156  -0.38718
 Alpha  occ. eigenvalues --   -0.38194  -0.36657  -0.35195  -0.34505  -0.32762
 Alpha  occ. eigenvalues --   -0.29396
 Alpha virt. eigenvalues --    0.00496   0.01483   0.03637   0.04761   0.05116
 Alpha virt. eigenvalues --    0.10188   0.12852   0.13260   0.14063   0.14726
 Alpha virt. eigenvalues --    0.15151   0.16078   0.17223   0.17961   0.18449

 Mulliken charges:
               1
     1  C   -0.219920
     2  C    0.229158
     3  O   -0.429654
     4  C    0.148369
     5  C   -0.306908
     6  H    0.170998
     7  H    0.167125
     8  H    0.162314
     9  N   -0.337290
    10  H    0.298155
    11  H    0.285138
    12  Br  -0.018423
    13  Br  -0.016920
    14  Cl  -0.135069
    15  C    0.153261
    16  C   -0.298705
    17  C   -0.129665
    18  C   -0.148058
    19  C   -0.125850
    20  C   -0.225613
    21  H    0.191046
    22  H    0.146318
    23  H    0.148305
    24  H    0.147668
    25  H    0.144218
 Sum of Mulliken charges =  -0.00000

 Dipole moment (field-independent basis, Debye):
    X=             -0.1126    Y=             -7.8394    Z=              7.7559  Tot=             11.0283
 Quadrupole moment (field-independent basis, Debye-Ang):
   XX=           -111.2964   YY=           -137.2224   ZZ=           -102.9131
   XY=              5.8320   XZ=              3.7699   YZ=              3.1862

  Exact polarizability: 290.982  15.592 248.558  13.910 -21.118 241.535
 Approx polarizability: 226.650  15.039 211.645   9.851 -17.210 209.672

 ******    1 imaginary frequencies (negative Signs) ******

                      1                      2                      3
                      A                      A                      A
 Frequencies --   -369.7812                33.0157                44.8755
 Red. masses --      5.9795                 7.6882                 8.1880
 Frc consts  --      0.4817                 0.0049                 0.0097
 IR Inten    --    816.7031                 1.7776                 2.2927

                      4                      5                      6
                      A                      A                      A
 Frequencies --     64.4861                79.0140                96.1958
 Red. masses --      7.4608                 4.6606                 3.3518
 Frc consts  --      0.0183                 0.0171                 0.0183
 IR Inten    --      1.5180                 1.6805                 0.4525

                      7                      8                      9
                      A                      A                      A
 Frequencies --    123.2975               135.1660               175.7436
 Red. masses --      4.6517                 9.3037                 7.8569
 Frc consts  --      0.0417                 0.1001                 0.1430
 IR Inten    --      3.2967                 2.9116                 1.8559

                     10                     11                     12
                      A                      A                      A
 Frequencies --    179.3155               196.2057               208.6365
 Red. masses --      4.2692                 1.4855                 7.3178
 Frc consts  --      0.0809                 0.0337                 0.1877
 IR Inten    --      2.5256                 8.2960                 2.9144

                     13                     14                     15
                      A                      A                      A
 Frequencies --    220.9603               237.6378               268.9900
 Red. masses --      8.0810                 2.6599                 4.7997
 Frc consts  --      0.2325                 0.0885                 0.2046
 IR Inten    --      2.3327                 9.4472                20.1609

                     16                     17                     18
                      A                      A                      A
 Frequencies --    288.3867               319.1448               361.1646
 Red. masses --      5.0440                12.7283                10.2915
 Frc consts  --      0.2472                 0.7638                 0.7909
 IR Inten    --      5.4555                 1.3810                 1.5718

                     19                     20                     21
                      A                      A                      A
 Frequencies --    387.2262               422.1522               499.8331
 Red. masses --      5.2704                 2.9587                 7.0786
 Frc consts  --      0.4656                 0.3107                 1.0419
 IR Inten    --     16.7991                 2.1880               103.2374

                     22                     23                     24
                      A                      A                      A
 Frequencies --    559.0070               634.5586               636.8079
 Red. masses --      4.1721                 5.9357                 2.0510
 Frc consts  --      0.7681                 1.4082                 0.4901
 IR Inten    --      5.6565                 1.1235                 5.7806

                     25                     26                     27
                      A                      A                      A
 Frequencies --    675.0252               730.1072               749.9856
 Red. masses --      2.9937                 1.7740                 8.7918
 Frc consts  --      0.8037                 0.5572                 2.9136
 IR Inten    --    123.9409                83.5041               164.2463

                     28                     29                     30
                      A                      A                      A
 Frequencies --    757.1068               801.9085               814.8036
 Red. masses --      3.7361                 3.7408                 3.8323
 Frc consts  --      1.2618                 1.4173                 1.4991
 IR Inten    --     52.8876               109.0136               123.8716

                     31                     32                     33
                      A                      A                      A
 Frequencies --    874.0788               884.9586               966.5534
 Red. masses --      4.9416                 1.2892                 1.4359
 Frc consts  --      2.2244                 0.5949                 0.7904
 IR Inten    --     17.9637                 2.3046                19.1029

                     34                     35                     36
                      A                      A                      A
 Frequencies --   1000.8592              1015.8491              1027.3348
 Red. masses --      1.1034                 1.5195                 3.2957
 Frc consts  --      0.6512                 0.9239                 2.0494
 IR Inten    --     19.1616                 3.6943                10.8368

                     37                     38                     39
                      A                      A                      A
 Frequencies --   1034.6549              1036.1579              1058.3084
 Red. masses --      1.2299                 1.2580                 2.3150
 Frc consts  --      0.7758                 0.7958                 1.5276
 IR Inten    --     39.6972                53.3766                12.8871

                     40                     41                     42
                      A                      A                      A
 Frequencies --   1078.2029              1112.8932              1144.0352
 Red. masses --      5.0739                 1.5574                 4.1554
 Frc consts  --      3.4753                 1.1365                 3.2044
 IR Inten    --     45.1151                25.2374               105.8875

                     43                     44                     45
                      A                      A                      A
 Frequencies --   1185.1640              1206.1977              1219.0388
 Red. masses --      1.1403                 1.1216                 1.4033
 Frc consts  --      0.9437                 0.9615                 1.2287
 IR Inten    --      0.2000                 5.3161                21.1984

                     46                     47                     48
                      A                      A                      A
 Frequencies --   1312.1734              1328.8504              1337.7319
 Red. masses --      4.5464                 5.3155                 1.3412
 Frc consts  --      4.6121                 5.5303                 1.4141
 IR Inten    --    431.6115               156.2721                17.1465

                     49                     50                     51
                      A                      A                      A
 Frequencies --   1358.2749              1367.5877              1460.7456
 Red. masses --      1.4942                 8.4199                 1.2000
 Frc consts  --      1.6241                 9.2782                 1.5086
 IR Inten    --      4.2373              1127.4818                11.4822

                     52                     53                     54
                      A                      A                      A
 Frequencies --   1490.2637              1493.1542              1500.5277
 Red. masses --      2.2123                 1.0435                 1.0326
 Frc consts  --      2.8948                 1.3708                 1.3698
 IR Inten    --     15.8569                20.9262                15.8687

                     55                     56                     57
                      A                      A                      A
 Frequencies --   1541.3670              1642.1265              1650.4420
 Red. masses --      2.3273                 1.0916                 5.8476
 Frc consts  --      3.2577                 1.7343                 9.3848
 IR Inten    --      5.5424                62.1126                27.0518

                     58                     59                     60
                      A                      A                      A
 Frequencies --   1674.1390              1674.7489              3069.0207
 Red. masses --      9.6597                 6.8606                 1.0331
 Frc consts  --     15.9514                11.3373                 5.7332
 IR Inten    --    490.7568               176.1845                22.4703

                     61                     62                     63
                      A                      A                      A
 Frequencies --   3146.5531              3169.3489              3195.1175
 Red. masses --      1.1048                 1.1056                 1.0865
 Frc consts  --      6.4450                 6.5432                 6.5349
 IR Inten    --      9.2013                 9.0889                 4.7224

                     64                     65                     66
                      A                      A                      A
 Frequencies --   3199.8071              3207.9534              3215.7815
 Red. masses --      1.0878                 1.0913                 1.0953
 Frc consts  --      6.5621                 6.6171                 6.6737
 IR Inten    --      0.5046                 8.5160                30.8878

                     67                     68                     69
                      A                      A                      A
 Frequencies --   3224.9915              3512.6274              3597.3991
 Red. masses --      1.0990                 1.0506                 1.0968
 Frc consts  --      6.7342                 7.6372                 8.3629
 IR Inten    --     15.5596                63.5761                83.9778

 - Thermochemistry -
 -------------------
 Temperature   298.150 Kelvin.  Pressure   1.00000 Atm.
 Atom     1 has atomic number  6 and mass  12.00000

 Molecular mass:   352.88176 amu.
 Principal axes and moments of inertia in atomic units:
                           1         2         3
     Eigenvalues --  3478.247607060.982858190.26377
           X            0.99984   0.01476   0.00972
           Y           -0.01446   0.99943  -0.03056
           Z           -0.01016   0.03042   0.99949
 This molecule is an asymmetric top.
 Rotational symmetry number  1.
 Warning -- assumption of classical behavior for rotation
           may cause significant error
 Rotational temperatures (Kelvin)      0.02490     0.01227     0.01058
 Rotational constants (GHZ):           0.51887     0.25559     0.22035
    1 imaginary frequencies ignored.
 Zero-point vibrational energy     478002.5 (Joules/Mol)
                                  114.24534 (Kcal/Mol)
 Warning -- explicit consideration of  21 degrees of freedom as
           vibrations may cause significant error
 Vibrational temperatures:     47.50    64.57    92.78   113.68   138.40
          (Kelvin)            177.40   194.47   252.86   258.00   282.30
                              300.18   317.91   341.91   387.02   414.92
                              459.18   519.64   557.13   607.38   719.15
                              804.29   912.99   916.22   971.21  1050.46
                             1079.06  1089.31  1153.77  1172.32  1257.60
                             1273.26  1390.65  1440.01  1461.58  1478.11
                             1488.64  1490.80  1522.67  1551.29  1601.21
                             1646.01  1705.19  1735.45  1753.92  1887.92
                             1911.92  1924.70  1954.25  1967.65  2101.69
                             2144.16  2148.32  2158.92  2217.68  2362.65
                             2374.62  2408.71  2409.59  4415.64  4527.19
                             4559.99  4597.06  4603.81  4615.53  4626.79
                             4640.04  5053.89  5175.85

 Zero-point correction=                           0.182062 (Hartree/Particle)
 Thermal correction to Energy=                    0.197699
 Thermal correction to Enthalpy=                  0.198643
 Thermal correction to Gibbs Free Energy=         0.136640
 Sum of electronic and zero-point Energies=          -6125.474334
 Sum of electronic and thermal Energies=             -6125.458697
 Sum of electronic and thermal Enthalpies=           -6125.457753
 Sum of electronic and thermal Free Energies=        -6125.519756

                     E (Thermal)             CV                S
                      KCal/Mol        Cal/Mol-Kelvin    Cal/Mol-Kelvin
 Total                  124.058             55.041            130.497
 Electronic               0.000              0.000              0.000
 Translational            0.889              2.981             43.477
 Rotational               0.889              2.981             33.664
 Vibrational            122.281             49.079             53.356
 Vibration     1          0.594              1.983              5.639
 Vibration     2          0.595              1.979              5.031
 Vibration     3          0.597              1.971              4.315
 Vibration     4          0.600              1.963              3.915
 Vibration     5          0.603              1.952              3.530
 Vibration     6          0.610              1.930              3.048
 Vibration     7          0.613              1.918              2.871
 Vibration     8          0.628              1.872              2.373
 Vibration     9          0.629              1.868              2.336
 Vibration    10          0.636              1.845              2.168
 Vibration    11          0.642              1.828              2.056
 Vibration    12          0.648              1.809              1.951
 Vibration    13          0.656              1.783              1.820
 Vibration    14          0.673              1.730              1.603
 Vibration    15          0.685              1.695              1.483
 Vibration    16          0.705              1.637              1.314
 Vibration    17          0.735              1.552              1.117
 Vibration    18          0.756              1.497              1.011
 Vibration    19          0.784              1.422              0.885
 Vibration    20          0.855              1.250              0.659
 Vibration    21          0.915              1.120              0.526

 Optimization completed.
    -- Stationary point found.
 Normal termination of Gaussian 16 at Mon Feb 22 13:50:56 2021.
