 Gaussian 16, Revision A.03,
 Gaussian 16:  ES64L-G16RevA.03 25-Dec-2016

 ----------------------------------------------------------------------
 # wB97XD def2tzvp, opt=(ts, noeigen, calcfc, maxcycles=70, maxstep=8),
  freq=noraman, scrf=(iefpcm, solvent=water)
 ----------------------------------------------------------------------

 ------------------------
 1_iteration/TS-794-1.out
 ------------------------
 Symbolic Z-matrix:
 Charge =  0 Multiplicity = 1

 SCF Done:  E(RwB97XD) =  -3819.91864031     A.U. after   15 cycles
 SCF Done:  E(RwB97XD) =  -3819.91943944     A.U. after   13 cycles
 SCF Done:  E(RwB97XD) =  -3819.91994692     A.U. after   13 cycles
 SCF Done:  E(RwB97XD) =  -3819.91995293     A.U. after   12 cycles
 SCF Done:  E(RwB97XD) =  -3819.92003692     A.U. after   12 cycles
 SCF Done:  E(RwB97XD) =  -3819.91983338     A.U. after   12 cycles
 SCF Done:  E(RwB97XD) =  -3819.92004499     A.U. after   12 cycles
 SCF Done:  E(RwB97XD) =  -3819.92005144     A.U. after   10 cycles
 SCF Done:  E(RwB97XD) =  -3819.92005150     A.U. after   10 cycles
 SCF Done:  E(RwB97XD) =  -3819.92004868     A.U. after   10 cycles
 SCF Done:  E(RwB97XD) =  -3819.92005101     A.U. after   10 cycles
 SCF Done:  E(RwB97XD) =  -3819.92005094     A.U. after    7 cycles
 SCF Done:  E(RwB97XD) =  -3819.92005087     A.U. after    6 cycles
 Optimization completed.
    -- Stationary point found.
 Normal termination of Gaussian 16 at Mon Feb 22 03:16:46 2021.

 ---------------------------------------------------------------------
 #N Geom=AllCheck Guess=TCheck SCRF=Check GenChk RwB97XD/def2TZVP Freq
 ---------------------------------------------------------------------

 Structure from the checkpoint file:  "/beegfs/scratch/user/q/tla25/Gau-37984.chk"
 ------------------------
 1_iteration/TS-794-1.out
 ------------------------
 Charge =  0 Multiplicity = 1

                         Standard orientation:
 ---------------------------------------------------------------------
 Center     Atomic      Atomic             Coordinates (Angstroms)
 Number     Number       Type             X           Y           Z
 ---------------------------------------------------------------------
      1          6           0        0.885636   -0.420893   -0.235136
      2          6           0        2.291612   -0.066879   -0.256553
      3          8           0        3.152052   -0.927670   -0.415975
      4          6           0       -0.217515    0.422585   -0.100566
      5          6           0       -0.272978   -0.173549    2.640119
      6          1           0       -0.310509    0.159022    3.676578
      7          1           0       -1.027674   -0.939656    2.476139
      8          1           0        0.712977   -0.586741    2.431294
      9          7           0       -0.511354    0.939182    1.727278
     10          1           0       -1.452741    1.309640    1.808081
     11          1           0        0.137948    1.699804    1.898447
     12         35           0       -1.967717   -0.313351   -0.457991
     13         17           0       -0.142624    2.051684   -0.772988
     14         17           0        0.604101   -2.152092   -0.221600
     15          6           0        2.755630    1.361499   -0.057551
     16          1           0        2.191048    1.906108    0.696441
     17          1           0        3.801563    1.319596    0.238627
     18          1           0        2.681130    1.916957   -0.992945
 ---------------------------------------------------------------------

 SCF Done:  E(RwB97XD) =  -3819.92005087     A.U. after    1 cycles

 The electronic state is 1-A.
 Alpha  occ. eigenvalues -- -483.14847-101.72012-101.69124 -62.69692 -56.48836
 Alpha  occ. eigenvalues --  -56.48444 -56.48423 -19.21877 -14.50462 -10.46119
 Alpha  occ. eigenvalues --  -10.37341 -10.32942 -10.32456 -10.28089  -9.60604
 Alpha  occ. eigenvalues --   -9.57654  -8.83805  -7.35292  -7.34356  -7.34327
 Alpha  occ. eigenvalues --   -7.32312  -7.31427  -7.31411  -6.66042  -6.64795
 Alpha  occ. eigenvalues --   -6.64732  -2.76414  -2.76066  -2.76018  -2.75009
 Alpha  occ. eigenvalues --   -2.75008  -1.13141  -1.06297  -1.00655  -0.95748
 Alpha  occ. eigenvalues --   -0.90086  -0.85550  -0.80994  -0.79946  -0.71175
 Alpha  occ. eigenvalues --   -0.64878  -0.61654  -0.59147  -0.57637  -0.56096
 Alpha  occ. eigenvalues --   -0.55775  -0.52721  -0.50681  -0.49879  -0.48942
 Alpha  occ. eigenvalues --   -0.48595  -0.47267  -0.45495  -0.42463  -0.41651
 Alpha  occ. eigenvalues --   -0.41436  -0.40076  -0.38572  -0.36889  -0.33443
 Alpha  occ. eigenvalues --   -0.28943
 Alpha virt. eigenvalues --    0.01947   0.02862   0.05819   0.09740   0.12661
 Alpha virt. eigenvalues --    0.13962   0.14633   0.15223   0.16289   0.18444
 Alpha virt. eigenvalues --    0.18714   0.19812   0.21049   0.21901   0.22907

 Mulliken charges:
               1
     1  C   -0.169970
     2  C    0.203010
     3  O   -0.465175
     4  C    0.124258
     5  C   -0.296984
     6  H    0.169083
     7  H    0.163426
     8  H    0.163765
     9  N   -0.311072
    10  H    0.300139
    11  H    0.287680
    12  Br  -0.028274
    13  Cl  -0.034023
    14  Cl  -0.144601
    15  C   -0.368434
    16  H    0.117438
    17  H    0.134304
    18  H    0.155430
 Sum of Mulliken charges =  -0.00000

 Dipole moment (field-independent basis, Debye):
    X=             -5.5246    Y=              6.7679    Z=              6.7767  Tot=             11.0566
 Quadrupole moment (field-independent basis, Debye-Ang):
   XX=            -99.2221   YY=            -86.5144   ZZ=            -73.8776
   XY=             10.3740   XZ=              0.1657   YZ=              2.9562

  Exact polarizability: 199.447  -8.591 171.042 -11.718   4.784 141.031
 Approx polarizability: 158.077  -7.109 148.160  -7.385   3.752 122.021

 ******    1 imaginary frequencies (negative Signs) ******

                      1                      2                      3
                      A                      A                      A
 Frequencies --   -364.8529                41.7182                55.9590
 Red. masses --      5.9982                 2.5776                 7.0433
 Frc consts  --      0.4704                 0.0026                 0.0130
 IR Inten    --    877.9923                 1.2073                 0.3218

                      4                      5                      6
                      A                      A                      A
 Frequencies --     72.1690               125.6188               155.9455
 Red. masses --      4.9826                 3.3878                 1.4630
 Frc consts  --      0.0153                 0.0315                 0.0210
 IR Inten    --      9.5866                 2.8648                 1.8012

                      7                      8                      9
                      A                      A                      A
 Frequencies --    166.8756               179.6659               216.5379
 Red. masses --      1.7197                 4.5415                 2.6761
 Frc consts  --      0.0282                 0.0864                 0.0739
 IR Inten    --      2.9477                 2.4627                 4.1766

                     10                     11                     12
                      A                      A                      A
 Frequencies --    227.9864               241.4831               264.7067
 Red. masses --      4.0475                 5.0090                 4.4872
 Frc consts  --      0.1240                 0.1721                 0.1852
 IR Inten    --      5.6450                 3.8068                 6.7942

                     13                     14                     15
                      A                      A                      A
 Frequencies --    287.2991               323.6320               382.7340
 Red. masses --      4.5124                 7.3560                13.3630
 Frc consts  --      0.2194                 0.4539                 1.1533
 IR Inten    --      4.2338                23.8791                 9.6773

                     16                     17                     18
                      A                      A                      A
 Frequencies --    411.1043               501.3307               593.2464
 Red. masses --      4.5783                 5.6023                 3.9894
 Frc consts  --      0.4559                 0.8296                 0.8272
 IR Inten    --      3.8902                99.2930                49.7305

                     19                     20                     21
                      A                      A                      A
 Frequencies --    632.6155               663.6531               790.0372
 Red. masses --      2.6584                 1.7027                10.3057
 Frc consts  --      0.6268                 0.4419                 3.7899
 IR Inten    --     24.8730                30.5133               223.5921

                     22                     23                     24
                      A                      A                      A
 Frequencies --    821.8585               929.8698              1007.5917
 Red. masses --      3.6082                 4.3515                 1.0908
 Frc consts  --      1.4359                 2.2168                 0.6525
 IR Inten    --    155.3293                15.5120                 5.5013

                     25                     26                     27
                      A                      A                      A
 Frequencies --   1025.9974              1043.6589              1053.1883
 Red. masses --      1.6142                 1.7769                 1.2679
 Frc consts  --      1.0012                 1.1403                 0.8286
 IR Inten    --    134.7694                13.4016                86.0124

                     28                     29                     30
                      A                      A                      A
 Frequencies --   1078.5186              1234.6775              1294.6610
 Red. masses --      4.7392                 1.3955                 4.6315
 Frc consts  --      3.2480                 1.2534                 4.5739
 IR Inten    --     63.4754                26.1738               458.8708

                     31                     32                     33
                      A                      A                      A
 Frequencies --   1339.5609              1367.7489              1396.8135
 Red. masses --      1.3408                 8.0984                 1.2991
 Frc consts  --      1.4176                 8.9261                 1.4933
 IR Inten    --     10.7060              1164.4915                76.0450

                     34                     35                     36
                      A                      A                      A
 Frequencies --   1453.0025              1461.8051              1477.4841
 Red. masses --      1.0573                 1.1969                 1.0700
 Frc consts  --      1.3151                 1.5069                 1.3762
 IR Inten    --     14.9752                12.4493                10.7303

                     37                     38                     39
                      A                      A                      A
 Frequencies --   1490.3101              1501.7260              1635.4363
 Red. masses --      1.0413                 1.0302                 1.0907
 Frc consts  --      1.3627                 1.3688                 1.7188
 IR Inten    --     24.6380                17.9349                79.4893

                     40                     41                     42
                      A                      A                      A
 Frequencies --   1672.7591              3075.5777              3076.1323
 Red. masses --     10.4224                 1.0362                 1.0325
 Frc consts  --     17.1825                 5.7749                 5.7566
 IR Inten    --    635.2596                 7.3156                19.0284

                     43                     44                     45
                      A                      A                      A
 Frequencies --   3152.9315              3157.6922              3169.7473
 Red. masses --      1.1003                 1.1054                 1.1041
 Frc consts  --      6.4446                 6.4941                 6.5362
 IR Inten    --     12.0164                 6.3327                26.0240

                     46                     47                     48
                      A                      A                      A
 Frequencies --   3174.9322              3509.9590              3594.0299
 Red. masses --      1.1063                 1.0506                 1.0968
 Frc consts  --      6.5703                 7.6261                 8.3475
 IR Inten    --      7.9761                71.8614                64.9477

 - Thermochemistry -
 -------------------
 Temperature   298.150 Kelvin.  Pressure   1.00000 Atm.
 Atom     1 has atomic number  6 and mass  12.00000

 Molecular mass:   246.91663 amu.
 Principal axes and moments of inertia in atomic units:
                           1         2         3
     Eigenvalues --  2092.639023132.256083784.19473
           X            0.99913   0.03491  -0.02270
           Y           -0.03462   0.99932   0.01302
           Z            0.02314  -0.01222   0.99966
 This molecule is an asymmetric top.
 Rotational symmetry number  1.
 Warning -- assumption of classical behavior for rotation
           may cause significant error
 Rotational temperatures (Kelvin)      0.04139     0.02765     0.02289
 Rotational constants (GHZ):           0.86242     0.57618     0.47692
    1 imaginary frequencies ignored.
 Zero-point vibrational energy     338136.4 (Joules/Mol)
                                   80.81654 (Kcal/Mol)
 Warning -- explicit consideration of  17 degrees of freedom as
           vibrations may cause significant error
 Vibrational temperatures:     60.02    80.51   103.84   180.74   224.37
          (Kelvin)            240.10   258.50   311.55   328.02   347.44
                              380.85   413.36   465.63   550.67   591.49
                              721.30   853.55   910.19   954.85  1136.69
                             1182.47  1337.88  1449.70  1476.18  1501.59
                             1515.30  1551.75  1776.43  1862.73  1927.33
                             1967.89  2009.70  2090.55  2103.21  2125.77
                             2144.22  2160.65  2353.03  2406.73  4425.07
                             4425.87  4536.37  4543.21  4560.56  4568.02
                             5050.05  5171.01

 Zero-point correction=                           0.128789 (Hartree/Particle)
 Thermal correction to Energy=                    0.141186
 Thermal correction to Enthalpy=                  0.142130
 Thermal correction to Gibbs Free Energy=         0.088295
 Sum of electronic and zero-point Energies=          -3819.791262
 Sum of electronic and thermal Energies=             -3819.778865
 Sum of electronic and thermal Enthalpies=           -3819.777921
 Sum of electronic and thermal Free Energies=        -3819.831756

                     E (Thermal)             CV                S
                      KCal/Mol        Cal/Mol-Kelvin    Cal/Mol-Kelvin
 Total                   88.595             41.621            113.305
 Electronic               0.000              0.000              0.000
 Translational            0.889              2.981             42.412
 Rotational               0.889              2.981             31.584
 Vibrational             86.818             35.659             39.309
 Vibration     1          0.594              1.981              5.176
 Vibration     2          0.596              1.975              4.595
 Vibration     3          0.598              1.967              4.093
 Vibration     4          0.611              1.927              3.012
 Vibration     5          0.620              1.896              2.598
 Vibration     6          0.624              1.883              2.470
 Vibration     7          0.629              1.867              2.332
 Vibration     8          0.645              1.816              1.988
 Vibration     9          0.651              1.798              1.895
 Vibration    10          0.658              1.777              1.792
 Vibration    11          0.671              1.738              1.631
 Vibration    12          0.684              1.697              1.490
 Vibration    13          0.708              1.628              1.292
 Vibration    14          0.752              1.507              1.028
 Vibration    15          0.775              1.446              0.923
 Vibration    16          0.857              1.247              0.655
 Vibration    17          0.951              1.046              0.461

 Optimization completed.
    -- Stationary point found.
 Normal termination of Gaussian 16 at Mon Feb 22 03:30:09 2021.
