 Gaussian 16, Revision A.03,
 Gaussian 16:  ES64L-G16RevA.03 25-Dec-2016

 ----------------------------------------------------------------------
 # wB97XD def2tzvp, opt=(ts, noeigen, calcfc, maxcycles=70, maxstep=5),
  freq=noraman, scrf=(iefpcm, solvent=water)
 ----------------------------------------------------------------------

 ------------------------
 2_iteration/TS-704-2.out
 ------------------------
 Symbolic Z-matrix:
 Charge =  0 Multiplicity = 1

 SCF Done:  E(RwB97XD) =  -3171.08603072     A.U. after   15 cycles
 SCF Done:  E(RwB97XD) =  -3171.08603074     A.U. after    7 cycles
 Optimization completed.
    -- Stationary point found.
 Normal termination of Gaussian 16 at Mon Feb 22 16:44:18 2021.

 ---------------------------------------------------------------------
 #N Geom=AllCheck Guess=TCheck SCRF=Check GenChk RwB97XD/def2TZVP Freq
 ---------------------------------------------------------------------

 Structure from the checkpoint file:  "/beegfs/scratch/user/q/tla25/Gau-3374.chk"
 ------------------------
 2_iteration/TS-704-2.out
 ------------------------
 Charge =  0 Multiplicity = 1

                         Standard orientation:
 ---------------------------------------------------------------------
 Center     Atomic      Atomic             Coordinates (Angstroms)
 Number     Number       Type             X           Y           Z
 ---------------------------------------------------------------------
      1          6           0        0.102781   -0.262931   -0.063848
      2          6           0       -0.939411    0.660589    0.251253
      3          8           0       -0.744710    1.830000    0.643820
      4          6           0        1.395965    0.061617    0.389173
      5          6           0        3.169314    2.352564   -0.485515
      6          1           0        3.295993    3.141476   -1.229371
      7          1           0        3.182270    2.802923    0.504693
      8          1           0        4.000743    1.652834   -0.567994
      9          7           0        1.914373    1.634534   -0.673765
     10          1           0        1.097593    2.192031   -0.432049
     11          1           0        1.807515    1.296288   -1.621795
     12         35           0        2.797557   -1.187017   -0.107025
     13          6           0        1.683876    0.604786    1.762270
     14          1           0        0.974682    1.390241    2.005160
     15          1           0        1.576170   -0.210141    2.479521
     16          1           0        2.699462    0.987421    1.839296
     17          6           0       -0.128136   -1.367195   -1.070678
     18          1           0        0.049170   -2.364998   -0.660651
     19          1           0       -1.149537   -1.341790   -1.443194
     20          1           0        0.527242   -1.256297   -1.939249
     21          6           0       -2.374743    0.235095    0.091493
     22          6           0       -2.823418   -0.995743    0.561037
     23          6           0       -4.164707   -1.336831    0.473102
     24          6           0       -5.069207   -0.455818   -0.103362
     25          6           0       -4.628901    0.772679   -0.577752
     26          6           0       -3.291145    1.119592   -0.468974
     27          1           0       -2.116411   -1.686189    1.005071
     28          1           0       -4.504367   -2.291884    0.853798
     29          1           0       -6.115270   -0.724614   -0.180345
     30          1           0       -5.330775    1.462783   -1.029090
     31          1           0       -2.945515    2.083336   -0.821327
 ---------------------------------------------------------------------

 SCF Done:  E(RwB97XD) =  -3171.08603074     A.U. after    1 cycles

 The electronic state is 1-A.
 Alpha  occ. eigenvalues -- -483.13043 -62.67900 -56.47002 -56.46674 -56.46649
 Alpha  occ. eigenvalues --  -19.20807 -14.47412 -10.39666 -10.35427 -10.31549
 Alpha  occ. eigenvalues --  -10.29418 -10.29138 -10.29122 -10.29043 -10.29021
 Alpha  occ. eigenvalues --  -10.28981 -10.28322 -10.27156 -10.26638  -8.82012
 Alpha  occ. eigenvalues --   -6.64123  -6.63079  -6.63001  -2.74520  -2.74231
 Alpha  occ. eigenvalues --   -2.74171  -2.73324  -2.73323  -1.11367  -1.03039
 Alpha  occ. eigenvalues --   -0.96601  -0.94399  -0.87528  -0.85227  -0.84856
 Alpha  occ. eigenvalues --   -0.83241  -0.78820  -0.75522  -0.72772  -0.70436
 Alpha  occ. eigenvalues --   -0.67049  -0.62920  -0.62025  -0.58765  -0.56641
 Alpha  occ. eigenvalues --   -0.55647  -0.55175  -0.54392  -0.53915  -0.52745
 Alpha  occ. eigenvalues --   -0.51239  -0.51030  -0.49687  -0.48859  -0.47813
 Alpha  occ. eigenvalues --   -0.47448  -0.46199  -0.45321  -0.44951  -0.44431
 Alpha  occ. eigenvalues --   -0.43388  -0.42449  -0.41817  -0.37219  -0.37059
 Alpha  occ. eigenvalues --   -0.34112  -0.33619  -0.32043  -0.27032
 Alpha virt. eigenvalues --    0.01689   0.05288   0.05769   0.06915   0.10155
 Alpha virt. eigenvalues --    0.12930   0.13633   0.13885   0.14942   0.15843
 Alpha virt. eigenvalues --    0.16394   0.17201   0.17570   0.18363   0.18806

 Mulliken charges:
               1
     1  C   -0.244231
     2  C    0.341437
     3  O   -0.555812
     4  C    0.175338
     5  C   -0.290773
     6  H    0.152367
     7  H    0.157470
     8  H    0.147754
     9  N   -0.341393
    10  H    0.272270
    11  H    0.278212
    12  Br  -0.100477
    13  C   -0.417706
    14  H    0.165745
    15  H    0.149692
    16  H    0.148471
    17  C   -0.396104
    18  H    0.129215
    19  H    0.147559
    20  H    0.127756
    21  C    0.136513
    22  C   -0.251890
    23  C   -0.133169
    24  C   -0.138511
    25  C   -0.143119
    26  C   -0.238478
    27  H    0.154536
    28  H    0.142818
    29  H    0.145190
    30  H    0.142040
    31  H    0.137281
 Sum of Mulliken charges =  -0.00000

 Dipole moment (field-independent basis, Debye):
    X=              3.4341    Y=              1.0635    Z=             -2.4811  Tot=              4.3680
 Quadrupole moment (field-independent basis, Debye-Ang):
   XX=            -90.4464   YY=            -99.9903   ZZ=           -101.2364
   XY=             14.4678   XZ=              0.5795   YZ=             -8.0691

  Exact polarizability: 335.027   5.637 246.660  -2.175 -12.879 179.635
 Approx polarizability: 235.802   0.742 209.556  -0.716 -10.202 157.385

 ******    1 imaginary frequencies (negative Signs) ******

                      1                      2                      3
                      A                      A                      A
 Frequencies --   -395.9088                33.6914                48.4383
 Red. masses --      6.1320                 4.3900                 4.0418
 Frc consts  --      0.5663                 0.0029                 0.0056
 IR Inten    --   1012.2678                 1.1433                 4.4171

                      4                      5                      6
                      A                      A                      A
 Frequencies --     54.0516                91.2757               107.5939
 Red. masses --      4.4147                 3.1889                 3.1485
 Frc consts  --      0.0076                 0.0157                 0.0215
 IR Inten    --     10.0284                 1.0950                 9.1453

                      7                      8                      9
                      A                      A                      A
 Frequencies --    122.5478               158.2770               179.7432
 Red. masses --      2.1902                 1.8932                 1.4923
 Frc consts  --      0.0194                 0.0279                 0.0284
 IR Inten    --     13.1238                15.4570                 4.2883

                     10                     11                     12
                      A                      A                      A
 Frequencies --    191.7751               212.6434               226.8372
 Red. masses --      2.3654                 6.5171                 2.5624
 Frc consts  --      0.0513                 0.1736                 0.0777
 IR Inten    --      0.4047                 1.6452                 7.2240

                     13                     14                     15
                      A                      A                      A
 Frequencies --    230.4106               244.8210               277.9132
 Red. masses --      2.1277                 2.1258                 1.4442
 Frc consts  --      0.0666                 0.0751                 0.0657
 IR Inten    --      9.2196                14.2588                 0.8682

                     16                     17                     18
                      A                      A                      A
 Frequencies --    294.8352               321.5272               344.3501
 Red. masses --      4.2664                 2.8987                 2.9800
 Frc consts  --      0.2185                 0.1766                 0.2082
 IR Inten    --      0.3939                 9.4852                12.5660

                     19                     20                     21
                      A                      A                      A
 Frequencies --    388.1667               422.0017               461.8655
 Red. masses --      4.7690                 2.8839                 3.4188
 Frc consts  --      0.4234                 0.3026                 0.4297
 IR Inten    --      4.5723                 0.8689                31.3950

                     22                     23                     24
                      A                      A                      A
 Frequencies --    490.4982               541.5841               599.0046
 Red. masses --      4.4089                 3.7777                 3.9762
 Frc consts  --      0.6250                 0.6528                 0.8406
 IR Inten    --    103.6434                16.0262                48.6669

                     25                     26                     27
                      A                      A                      A
 Frequencies --    635.7157               644.0012               679.7061
 Red. masses --      6.3460                 4.0774                 1.4826
 Frc consts  --      1.5111                 0.9963                 0.4036
 IR Inten    --      1.8097                65.5469                22.4099

                     28                     29                     30
                      A                      A                      A
 Frequencies --    724.0013               731.9269               751.0905
 Red. masses --      2.1349                 2.5376                 3.6373
 Frc consts  --      0.6593                 0.8009                 1.2090
 IR Inten    --     52.2204                32.1278               117.2865

                     31                     32                     33
                      A                      A                      A
 Frequencies --    827.5166               882.4273               916.2365
 Red. masses --      2.8905                 1.2499                 2.2310
 Frc consts  --      1.1662                 0.5734                 1.1035
 IR Inten    --     29.2284                 0.5916                87.2147

                     34                     35                     36
                      A                      A                      A
 Frequencies --    967.0050              1004.4506              1016.7769
 Red. masses --      1.4602                 1.8100                 1.3829
 Frc consts  --      0.8045                 1.0759                 0.8424
 IR Inten    --     28.4511               329.5619                 0.3704

                     37                     38                     39
                      A                      A                      A
 Frequencies --   1024.2601              1026.2470              1032.1823
 Red. masses --      1.3532                 4.2347                 1.3157
 Frc consts  --      0.8364                 2.6277                 0.8259
 IR Inten    --     50.8447                 4.4377                13.9013

                     40                     41                     42
                      A                      A                      A
 Frequencies --   1034.1445              1053.5943              1059.6751
 Red. masses --      1.1451                 1.7665                 1.9081
 Frc consts  --      0.7215                 1.1553                 1.2624
 IR Inten    --    172.0327                32.0364                 9.0766

                     43                     44                     45
                      A                      A                      A
 Frequencies --   1065.0948              1088.4913              1105.3813
 Red. masses --      1.4726                 2.4270                 2.0508
 Frc consts  --      0.9843                 1.6942                 1.4764
 IR Inten    --      1.3716                29.9235                35.5649

                     46                     47                     48
                      A                      A                      A
 Frequencies --   1110.4256              1138.0270              1182.9173
 Red. masses --      1.7104                 2.5073                 1.1370
 Frc consts  --      1.2426                 1.9132                 0.9374
 IR Inten    --     31.9086                92.6881                 0.6414

                     49                     50                     51
                      A                      A                      A
 Frequencies --   1198.7107              1201.3111              1226.7900
 Red. masses --      1.3597                 1.1706                 3.5633
 Frc consts  --      1.1511                 0.9954                 3.1597
 IR Inten    --     32.5404                 9.8554                16.4618

                     52                     53                     54
                      A                      A                      A
 Frequencies --   1325.3938              1345.1828              1352.9955
 Red. masses --      3.9171                 1.3986                 1.5877
 Frc consts  --      4.0541                 1.4911                 1.7125
 IR Inten    --     41.0908                95.2729                17.2932

                     55                     56                     57
                      A                      A                      A
 Frequencies --   1363.9963              1379.2078              1411.4847
 Red. masses --      2.4446                 4.5056                 1.6713
 Frc consts  --      2.6797                 5.0496                 1.9618
 IR Inten    --    376.0737               920.1958               269.7937

                     58                     59                     60
                      A                      A                      A
 Frequencies --   1425.9892              1459.6817              1478.5166
 Red. masses --      1.2184                 1.2069                 1.0735
 Frc consts  --      1.4597                 1.5151                 1.3827
 IR Inten    --     10.6770                29.1818                20.1698

                     61                     62                     63
                      A                      A                      A
 Frequencies --   1485.3945              1487.0214              1489.7698
 Red. masses --      1.0510                 1.1014                 1.9536
 Frc consts  --      1.3663                 1.4350                 2.5547
 IR Inten    --     19.2669                12.0615                 8.9552

                     64                     65                     66
                      A                      A                      A
 Frequencies --   1495.6365              1498.4354              1507.1142
 Red. masses --      1.0431                 1.0934                 1.0343
 Frc consts  --      1.3747                 1.4465                 1.3841
 IR Inten    --     13.3412               145.0121                21.6424

                     67                     68                     69
                      A                      A                      A
 Frequencies --   1538.7857              1596.4494              1653.0791
 Red. masses --      2.3386                 9.4513                 2.3944
 Frc consts  --      3.2626                14.1922                 3.8551
 IR Inten    --      2.6210               474.2961                32.7001

                     70                     71                     72
                      A                      A                      A
 Frequencies --   1654.3621              1673.0217              3034.3243
 Red. masses --      1.5030                 5.9165                 1.0415
 Frc consts  --      2.4237                 9.7571                 5.6497
 IR Inten    --     36.1685                 5.5680                67.4877

                     73                     74                     75
                      A                      A                      A
 Frequencies --   3058.7591              3075.4171              3082.2739
 Red. masses --      1.0362                 1.0381                 1.1019
 Frc consts  --      5.7118                 5.7850                 6.1680
 IR Inten    --     62.5674                17.8804                40.9838

                     76                     77                     78
                      A                      A                      A
 Frequencies --   3132.5648              3150.2633              3154.2508
 Red. masses --      1.1019                 1.0998                 1.0949
 Frc consts  --      6.3709                 6.4305                 6.4183
 IR Inten    --     17.2111                14.1231                30.8478

                     79                     80                     81
                      A                      A                      A
 Frequencies --   3164.7076              3185.9203              3192.0891
 Red. masses --      1.1045                 1.1035                 1.0858
 Frc consts  --      6.5174                 6.5993                 6.5187
 IR Inten    --     16.2292                 0.9097                 2.2051

                     82                     83                     84
                      A                      A                      A
 Frequencies --   3197.5637              3205.7295              3213.1195
 Red. masses --      1.0881                 1.0916                 1.0949
 Frc consts  --      6.5548                 6.6092                 6.6600
 IR Inten    --      0.6905                11.5415                35.7614

                     85                     86                     87
                      A                      A                      A
 Frequencies --   3221.2935              3465.3989              3593.4837
 Red. masses --      1.0988                 1.0598                 1.0895
 Frc consts  --      6.7178                 7.4986                 8.2888
 IR Inten    --     22.6846                58.7696                55.7241

 - Thermochemistry -
 -------------------
 Temperature   298.150 Kelvin.  Pressure   1.00000 Atm.
 Atom     1 has atomic number  6 and mass  12.00000

 Molecular mass:   269.04153 amu.
 Principal axes and moments of inertia in atomic units:
                           1         2         3
     Eigenvalues --  1867.323757855.517938922.40394
           X            0.99919   0.04002   0.00409
           Y           -0.03996   0.99911  -0.01332
           Z           -0.00462   0.01315   0.99990
 This molecule is an asymmetric top.
 Rotational symmetry number  1.
 Warning -- assumption of classical behavior for rotation
           may cause significant error
 Rotational temperatures (Kelvin)      0.04638     0.01103     0.00971
 Rotational constants (GHZ):           0.96649     0.22974     0.20227
    1 imaginary frequencies ignored.
 Zero-point vibrational energy     676611.7 (Joules/Mol)
                                  161.71407 (Kcal/Mol)
 Warning -- explicit consideration of  23 degrees of freedom as
           vibrations may cause significant error
 Vibrational temperatures:     48.47    69.69    77.77   131.33   154.80
          (Kelvin)            176.32   227.73   258.61   275.92   305.95
                              326.37   331.51   352.24   399.86   424.20
                              462.61   495.44   558.49   607.17   664.52
                              705.72   779.22   861.83   914.65   926.57
                              977.95  1041.68  1053.08  1080.65  1190.61
                             1269.62  1318.26  1391.30  1445.18  1462.92
                             1473.68  1476.54  1485.08  1487.90  1515.89
                             1524.64  1532.43  1566.10  1590.40  1597.65
                             1637.37  1701.95  1724.68  1728.42  1765.08
                             1906.95  1935.42  1946.66  1962.49  1984.37
                             2030.81  2051.68  2100.16  2127.26  2137.15
                             2139.49  2143.45  2151.89  2155.91  2168.40
                             2213.97  2296.93  2378.41  2380.26  2407.11
                             4365.72  4400.87  4424.84  4434.70  4507.06
                             4532.53  4538.26  4553.31  4583.83  4592.70
                             4600.58  4612.33  4622.96  4634.72  4985.94
                             5170.22

 Zero-point correction=                           0.257708 (Hartree/Particle)
 Thermal correction to Energy=                    0.273677
 Thermal correction to Enthalpy=                  0.274621
 Thermal correction to Gibbs Free Energy=         0.213112
 Sum of electronic and zero-point Energies=          -3170.828323
 Sum of electronic and thermal Energies=             -3170.812354
 Sum of electronic and thermal Enthalpies=           -3170.811410
 Sum of electronic and thermal Free Energies=        -3170.872919

                     E (Thermal)             CV                S
                      KCal/Mol        Cal/Mol-Kelvin    Cal/Mol-Kelvin
 Total                  171.735             58.596            129.458
 Electronic               0.000              0.000              0.000
 Translational            0.889              2.981             42.668
 Rotational               0.889              2.981             33.237
 Vibrational            169.957             52.634             53.553
 Vibration     1          0.594              1.983              5.599
 Vibration     2          0.595              1.978              4.880
 Vibration     3          0.596              1.976              4.663
 Vibration     4          0.602              1.955              3.633
 Vibration     5          0.606              1.943              3.312
 Vibration     6          0.610              1.930              3.060
 Vibration     7          0.621              1.893              2.570
 Vibration     8          0.629              1.867              2.331
 Vibration     9          0.634              1.851              2.211
 Vibration    10          0.644              1.822              2.021
 Vibration    11          0.650              1.800              1.904
 Vibration    12          0.652              1.795              1.876
 Vibration    13          0.660              1.771              1.768
 Vibration    14          0.679              1.714              1.546
 Vibration    15          0.689              1.683              1.446
 Vibration    16          0.707              1.632              1.302
 Vibration    17          0.723              1.587              1.192
 Vibration    18          0.756              1.495              1.007
 Vibration    19          0.784              1.422              0.885
 Vibration    20          0.820              1.335              0.761
 Vibration    21          0.846              1.271              0.682
 Vibration    22          0.897              1.158              0.562
 Vibration    23          0.957              1.034              0.451

 Optimization completed.
    -- Stationary point found.
 Normal termination of Gaussian 16 at Mon Feb 22 17:49:32 2021.
