 Gaussian 16, Revision A.03,
 Gaussian 16:  ES64L-G16RevA.03 25-Dec-2016

 ----------------------------------------------------------------------
 # wB97XD def2tzvp, opt=(ts, noeigen, calcfc, maxcycles=70, maxstep=8),
  freq=noraman, scrf=(iefpcm, solvent=water)
 ----------------------------------------------------------------------

 ------------------------
 1_iteration/TS-791-1.out
 ------------------------
 Symbolic Z-matrix:
 Charge =  0 Multiplicity = 1

 SCF Done:  E(RwB97XD) =  -6181.03382810     A.U. after   15 cycles
 SCF Done:  E(RwB97XD) =  -6181.03389962     A.U. after   13 cycles
 SCF Done:  E(RwB97XD) =  -6181.03391243     A.U. after   11 cycles
 SCF Done:  E(RwB97XD) =  -6181.03391605     A.U. after   11 cycles
 SCF Done:  E(RwB97XD) =  -6181.03391882     A.U. after   11 cycles
 SCF Done:  E(RwB97XD) =  -6181.03391490     A.U. after   12 cycles
 SCF Done:  E(RwB97XD) =  -6181.03391979     A.U. after   12 cycles
 SCF Done:  E(RwB97XD) =  -6181.03391940     A.U. after    9 cycles
 SCF Done:  E(RwB97XD) =  -6181.03391990     A.U. after    9 cycles
 SCF Done:  E(RwB97XD) =  -6181.03391986     A.U. after    7 cycles
 Optimization completed.
    -- Stationary point found.
 Normal termination of Gaussian 16 at Mon Mar 29 12:34:56 2021.

 ---------------------------------------------------------------------
 #N Geom=AllCheck Guess=TCheck SCRF=Check GenChk RwB97XD/def2TZVP Freq
 ---------------------------------------------------------------------

 Structure from the checkpoint file:  "/beegfs/scratch/user/q/tla25/Gau-53084.chk"
 ------------------------
 1_iteration/TS-791-1.out
 ------------------------
 Charge =  0 Multiplicity = 1

                         Standard orientation:
 ---------------------------------------------------------------------
 Center     Atomic      Atomic             Coordinates (Angstroms)
 Number     Number       Type             X           Y           Z
 ---------------------------------------------------------------------
      1          6           0        0.662444    0.505829   -0.319375
      2          6           0       -0.771136    0.821716   -0.296140
      3          8           0       -1.180823    1.973630   -0.354445
      4          6           0        1.250490   -0.732540   -0.093807
      5          6           0        1.157124   -0.289152    2.656928
      6          1           0        0.614871    0.602014    2.343059
      7          1           0        0.816278   -0.585180    3.647927
      8          1           0        2.222401   -0.071768    2.687924
      9          7           0        0.908451   -1.347723    1.684877
     10          1           0        1.467995   -2.176234    1.858757
     11          1           0       -0.069081   -1.620803    1.687548
     12         35           0        3.162723   -0.883984   -0.123297
     13         17           0        0.583514   -2.187869   -0.915534
     14         35           0        1.744941    2.074125   -0.340267
     15          7           0       -1.646787   -0.234644   -0.149175
     16          6           0       -3.048047   -0.145957   -0.081885
     17          6           0       -3.711658    0.912169    0.535740
     18          6           0       -5.096341    0.906613    0.609726
     19          6           0       -5.836155   -0.144251    0.087193
     20          6           0       -5.173154   -1.203328   -0.516136
     21          6           0       -3.791214   -1.203988   -0.604528
     22          1           0       -1.303334   -1.146205   -0.400029
     23          1           0       -3.146523    1.730960    0.951855
     24          1           0       -5.600162    1.735914    1.090624
     25          1           0       -6.916423   -0.139533    0.151831
     26          1           0       -5.732483   -2.034146   -0.927406
     27          1           0       -3.280689   -2.031331   -1.083899
 ---------------------------------------------------------------------

 SCF Done:  E(RwB97XD) =  -6181.03391986     A.U. after    1 cycles

 The electronic state is 1-A.
 Alpha  occ. eigenvalues -- -483.15253-483.12706-101.72266 -62.70092 -62.67532
 Alpha  occ. eigenvalues --  -56.49241 -56.48843 -56.48822 -56.46663 -56.46289
 Alpha  occ. eigenvalues --  -56.46280 -19.21607 -14.50717 -14.46766 -10.46321
 Alpha  occ. eigenvalues --  -10.40261 -10.33845 -10.32804 -10.32552 -10.29200
 Alpha  occ. eigenvalues --  -10.29097 -10.29082 -10.28687 -10.28560  -9.60863
 Alpha  occ. eigenvalues --   -8.84203  -8.81647  -7.35520  -7.34636  -7.34596
 Alpha  occ. eigenvalues --   -6.66453  -6.65186  -6.65125  -6.63838  -6.62644
 Alpha  occ. eigenvalues --   -6.62618  -2.76825  -2.76469  -2.76422  -2.75396
 Alpha  occ. eigenvalues --   -2.75396  -2.74221  -2.73874  -2.73853  -2.72887
 Alpha  occ. eigenvalues --   -2.72887  -1.14986  -1.06549  -1.04486  -1.00155
 Alpha  occ. eigenvalues --   -0.95743  -0.92812  -0.89716  -0.85580  -0.85326
 Alpha  occ. eigenvalues --   -0.81724  -0.80081  -0.74223  -0.71852  -0.68936
 Alpha  occ. eigenvalues --   -0.65951  -0.64806  -0.62959  -0.60501  -0.59230
 Alpha  occ. eigenvalues --   -0.58160  -0.56310  -0.54725  -0.54024  -0.52552
 Alpha  occ. eigenvalues --   -0.52182  -0.51748  -0.50724  -0.49053  -0.48896
 Alpha  occ. eigenvalues --   -0.47247  -0.46770  -0.44939  -0.43546  -0.42794
 Alpha  occ. eigenvalues --   -0.41826  -0.40526  -0.39928  -0.39229  -0.38368
 Alpha  occ. eigenvalues --   -0.36974  -0.34491  -0.33501  -0.31176  -0.28294
 Alpha virt. eigenvalues --    0.01741   0.02474   0.03933   0.05249   0.06750
 Alpha virt. eigenvalues --    0.09999   0.11941   0.13248   0.13929   0.14661
 Alpha virt. eigenvalues --    0.15499   0.15973   0.16825   0.17916   0.18217

 Mulliken charges:
               1
     1  C   -0.260393
     2  C    0.343448
     3  O   -0.481712
     4  C    0.099233
     5  C   -0.297135
     6  H    0.164451
     7  H    0.170552
     8  H    0.164474
     9  N   -0.308541
    10  H    0.303216
    11  H    0.289618
    12  Br  -0.005946
    13  Cl  -0.064746
    14  Br  -0.100249
    15  N   -0.289757
    16  C    0.300690
    17  C   -0.301362
    18  C   -0.092244
    19  C   -0.188617
    20  C   -0.100056
    21  C   -0.293212
    22  H    0.223508
    23  H    0.148671
    24  H    0.143519
    25  H    0.142374
    26  H    0.144553
    27  H    0.145662
 Sum of Mulliken charges =  -0.00000

 Dipole moment (field-independent basis, Debye):
    X=              1.3579    Y=             -8.8688    Z=              6.3662  Tot=             11.0013
 Quadrupole moment (field-independent basis, Debye-Ang):
   XX=           -120.7266   YY=           -127.3227   ZZ=           -116.2633
   XY=              1.9942   XZ=              5.2386   YZ=             -0.4295

  Exact polarizability: 338.622  -1.823 280.572   2.889  11.729 203.402
 Approx polarizability: 253.345   0.537 239.453   0.920  11.390 177.649

 ******    1 imaginary frequencies (negative Signs) ******

                      1                      2                      3
                      A                      A                      A
 Frequencies --   -374.7947                19.1587                28.5621
 Red. masses --      5.7791                 4.2776                 5.7723
 Frc consts  --      0.4783                 0.0009                 0.0028
 IR Inten    --    725.0680                 0.9769                 1.4776

                      4                      5                      6
                      A                      A                      A
 Frequencies --     52.1425                65.1740                76.5918
 Red. masses --     10.9645                 6.2345                 2.7340
 Frc consts  --      0.0176                 0.0156                 0.0094
 IR Inten    --      7.8735                 0.1645                 0.3210

                      7                      8                      9
                      A                      A                      A
 Frequencies --     92.6091               126.6192               151.1751
 Red. masses --      8.0392                 4.6905                 2.5790
 Frc consts  --      0.0406                 0.0443                 0.0347
 IR Inten    --      3.5916                 8.4074                 3.3314

                     10                     11                     12
                      A                      A                      A
 Frequencies --    152.5978               174.7409               201.8999
 Red. masses --      5.9514                 2.6253                 7.5429
 Frc consts  --      0.0817                 0.0472                 0.1812
 IR Inten    --      0.5355                 2.9414                11.8384

                     13                     14                     15
                      A                      A                      A
 Frequencies --    217.4701               237.8786               250.1770
 Red. masses --      3.4270                 8.6175                 5.0809
 Frc consts  --      0.0955                 0.2873                 0.1874
 IR Inten    --      6.6894                 5.3452                 1.0004

                     16                     17                     18
                      A                      A                      A
 Frequencies --    268.5626               303.2917               337.7778
 Red. masses --      6.2247                 4.2253                 8.9497
 Frc consts  --      0.2645                 0.2290                 0.6016
 IR Inten    --      4.7554                 6.1081                24.1544

                     19                     20                     21
                      A                      A                      A
 Frequencies --    369.6594               382.4839               424.5632
 Red. masses --     14.7491                 5.7821                 2.9715
 Frc consts  --      1.1875                 0.4984                 0.3156
 IR Inten    --     13.0167                 6.8903                 0.9404

                     22                     23                     24
                      A                      A                      A
 Frequencies --    506.8235               523.7349               551.2927
 Red. masses --      5.7951                 2.7322                 1.5896
 Frc consts  --      0.8771                 0.4416                 0.2847
 IR Inten    --     43.9945               108.1991               103.6634

                     25                     26                     27
                      A                      A                      A
 Frequencies --    578.2474               634.9801               663.2565
 Red. masses --      3.5648                 5.7035                 1.8675
 Frc consts  --      0.7023                 1.3549                 0.4840
 IR Inten    --     57.9759                 3.7436                 9.7146

                     28                     29                     30
                      A                      A                      A
 Frequencies --    719.1947               721.0342               750.8718
 Red. masses --      1.9867                 7.6261                 3.2981
 Frc consts  --      0.6055                 2.3359                 1.0956
 IR Inten    --     49.4805               211.5168                66.0565

                     31                     32                     33
                      A                      A                      A
 Frequencies --    774.4511               787.6767               844.4038
 Red. masses --      6.8229                 2.0157                 4.3407
 Frc consts  --      2.4111                 0.7369                 1.8235
 IR Inten    --     73.9327                85.3496                37.8877

                     34                     35                     36
                      A                      A                      A
 Frequencies --    862.4196               910.5361               942.5344
 Red. masses --      1.2641                 4.1120                 1.6265
 Frc consts  --      0.5539                 2.0086                 0.8513
 IR Inten    --      1.2300                38.3268                 6.1537

                     37                     38                     39
                      A                      A                      A
 Frequencies --   1004.1142              1015.4699              1020.7788
 Red. masses --      1.3581                 1.1034                 1.9512
 Frc consts  --      0.8068                 0.6703                 1.1979
 IR Inten    --      0.0870                16.0038                 1.5775

                     40                     41                     42
                      A                      A                      A
 Frequencies --   1022.1284              1030.2986              1058.9363
 Red. masses --      2.3672                 5.4342                 1.2313
 Frc consts  --      1.4571                 3.3987                 0.8135
 IR Inten    --      0.2665                 4.0960                44.8929

                     43                     44                     45
                      A                      A                      A
 Frequencies --   1067.3388              1081.6706              1125.2935
 Red. masses --      2.0796                 4.1691                 1.5427
 Frc consts  --      1.3958                 2.8740                 1.1509
 IR Inten    --     16.8631                62.8408                13.4245

                     46                     47                     48
                      A                      A                      A
 Frequencies --   1183.4574              1214.1598              1233.8625
 Red. masses --      1.1264                 1.1272                 1.9205
 Frc consts  --      0.9295                 0.9791                 1.7227
 IR Inten    --      4.6860                19.1632               381.8821

                     49                     50                     51
                      A                      A                      A
 Frequencies --   1248.5667              1281.9584              1336.7690
 Red. masses --      2.1372                 3.2900                 4.4313
 Frc consts  --      1.9630                 3.1856                 4.6654
 IR Inten    --    662.6161                78.3834               414.0721

                     52                     53                     54
                      A                      A                      A
 Frequencies --   1346.3469              1367.7359              1381.9505
 Red. masses --      1.3736                 1.4679                 6.4336
 Frc consts  --      1.4670                 1.6179                 7.2392
 IR Inten    --     30.9869                27.8677               629.5025

                     55                     56                     57
                      A                      A                      A
 Frequencies --   1461.2110              1482.5024              1491.4728
 Red. masses --      1.2018                 2.1031                 1.0444
 Frc consts  --      1.5118                 2.7234                 1.3688
 IR Inten    --      7.9498               185.5794                30.3249

                     58                     59                     60
                      A                      A                      A
 Frequencies --   1500.6045              1549.3518              1573.2940
 Red. masses --      1.0318                 2.3629                 1.8825
 Frc consts  --      1.3689                 3.3419                 2.7454
 IR Inten    --     13.1148               157.1240               525.8823

                     61                     62                     63
                      A                      A                      A
 Frequencies --   1640.4972              1665.7087              1673.8717
 Red. masses --      1.0925                 5.6733                 4.8091
 Frc consts  --      1.7322                 9.2743                 7.9388
 IR Inten    --     83.6904               108.8471                51.5513

                     64                     65                     66
                      A                      A                      A
 Frequencies --   1694.8446              3077.1071              3158.8090
 Red. masses --      7.4776                 1.0325                 1.1052
 Frc consts  --     12.6552                 5.7603                 6.4976
 IR Inten    --    662.4828                17.9939                 5.7491

                     67                     68                     69
                      A                      A                      A
 Frequencies --   3175.7288              3188.8687              3198.6146
 Red. masses --      1.1063                 1.0885                 1.0882
 Frc consts  --      6.5738                 6.5213                 6.5598
 IR Inten    --      7.6719                11.5249                 1.6663

                     70                     71                     72
                      A                      A                      A
 Frequencies --   3208.2994              3222.3735              3262.9851
 Red. masses --      1.0931                 1.0980                 1.0926
 Frc consts  --      6.6293                 6.7174                 6.8540
 IR Inten    --     27.6054                23.0147                 1.2967

                     73                     74                     75
                      A                      A                      A
 Frequencies --   3513.5080              3597.5541              3623.5610
 Red. masses --      1.0505                 1.0968                 1.0763
 Frc consts  --      7.6405                 8.3634                 8.3267
 IR Inten    --     71.1628                74.2855               194.8018

 - Thermochemistry -
 -------------------
 Temperature   298.150 Kelvin.  Pressure   1.00000 Atm.
 Atom     1 has atomic number  6 and mass  12.00000

 Molecular mass:   367.89266 amu.
 Principal axes and moments of inertia in atomic units:
                           1         2         3
     Eigenvalues --  3480.42335********************
           X            0.99997  -0.00072   0.00719
           Y            0.00068   0.99998   0.00579
           Z           -0.00720  -0.00578   0.99996
 This molecule is an asymmetric top.
 Rotational symmetry number  1.
 Warning -- assumption of classical behavior for rotation
           may cause significant error
 Rotational temperatures (Kelvin)      0.02489     0.00807     0.00686
 Rotational constants (GHZ):           0.51854     0.16822     0.14285
    1 imaginary frequencies ignored.
 Zero-point vibrational energy     524479.9 (Joules/Mol)
                                  125.35371 (Kcal/Mol)
 Warning -- explicit consideration of  24 degrees of freedom as
           vibrations may cause significant error
 Vibrational temperatures:     27.57    41.09    75.02    93.77   110.20
          (Kelvin)            133.24   182.18   217.51   219.55   251.41
                              290.49   312.89   342.25   359.95   386.40
                              436.37   485.99   531.86   550.31   610.85
                              729.21   753.54   793.19   831.97   913.59
                              954.28  1034.76  1037.41  1080.34  1114.26
                             1133.29  1214.91  1240.83  1310.06  1356.10
                             1444.70  1461.03  1468.67  1470.61  1482.37
                             1523.57  1535.66  1556.28  1619.05  1702.73
                             1746.91  1775.25  1796.41  1844.45  1923.31
                             1937.09  1967.87  1988.32  2102.36  2132.99
                             2145.90  2159.04  2229.17  2263.62  2360.31
                             2396.58  2408.33  2438.50  4427.27  4544.82
                             4569.17  4588.07  4602.09  4616.03  4636.28
                             4694.71  5055.15  5176.08  5213.50

 Zero-point correction=                           0.199764 (Hartree/Particle)
 Thermal correction to Energy=                    0.216577
 Thermal correction to Enthalpy=                  0.217521
 Thermal correction to Gibbs Free Energy=         0.151556
 Sum of electronic and zero-point Energies=          -6180.834156
 Sum of electronic and thermal Energies=             -6180.817343
 Sum of electronic and thermal Enthalpies=           -6180.816399
 Sum of electronic and thermal Free Energies=        -6180.882364

                     E (Thermal)             CV                S
                      KCal/Mol        Cal/Mol-Kelvin    Cal/Mol-Kelvin
 Total                  135.904             59.295            138.836
 Electronic               0.000              0.000              0.000
 Translational            0.889              2.981             43.601
 Rotational               0.889              2.981             34.511
 Vibrational            134.126             53.334             60.724
 Vibration     1          0.593              1.986              6.720
 Vibration     2          0.593              1.984              5.927
 Vibration     3          0.596              1.977              4.734
 Vibration     4          0.597              1.971              4.294
 Vibration     5          0.599              1.965              3.976
 Vibration     6          0.602              1.954              3.604
 Vibration     7          0.611              1.927              2.997
 Vibration     8          0.619              1.901              2.657
 Vibration     9          0.619              1.900              2.640
 Vibration    10          0.627              1.874              2.384
 Vibration    11          0.639              1.837              2.116
 Vibration    12          0.646              1.814              1.980
 Vibration    13          0.656              1.783              1.819
 Vibration    14          0.663              1.762              1.729
 Vibration    15          0.673              1.731              1.605
 Vibration    16          0.695              1.667              1.399
 Vibration    17          0.718              1.600              1.223
 Vibration    18          0.742              1.535              1.081
 Vibration    19          0.752              1.508              1.029
 Vibration    20          0.787              1.417              0.877
 Vibration    21          0.862              1.235              0.641
 Vibration    22          0.879              1.197              0.601
 Vibration    23          0.907              1.137              0.541
 Vibration    24          0.935              1.078              0.489

 Optimization completed.
    -- Stationary point found.
 Normal termination of Gaussian 16 at Mon Mar 29 13:36:16 2021.
