 Gaussian 16, Revision A.03,
 Gaussian 16:  ES64L-G16RevA.03 25-Dec-2016

 ----------------------------------------------------------------------
 # wB97XD def2tzvp, opt=(ts, noeigen, calcfc, maxcycles=70, maxstep=8),
  freq=noraman, scrf=(iefpcm, solvent=water)
 ----------------------------------------------------------------------

 ------------------------
 1_iteration/TS-772-1.out
 ------------------------
 Symbolic Z-matrix:
 Charge =  0 Multiplicity = 1

 SCF Done:  E(RwB97XD) =  -3435.55972972     A.U. after   15 cycles
 SCF Done:  E(RwB97XD) =  -3435.56103912     A.U. after   13 cycles
 SCF Done:  E(RwB97XD) =  -3435.56224054     A.U. after   13 cycles
 SCF Done:  E(RwB97XD) =  -3435.56240375     A.U. after   12 cycles
 SCF Done:  E(RwB97XD) =  -3435.56243480     A.U. after   12 cycles
 SCF Done:  E(RwB97XD) =  -3435.56258164     A.U. after   12 cycles
 SCF Done:  E(RwB97XD) =  -3435.56267134     A.U. after   12 cycles
 SCF Done:  E(RwB97XD) =  -3435.56268899     A.U. after   12 cycles
 SCF Done:  E(RwB97XD) =  -3435.56269495     A.U. after   10 cycles
 SCF Done:  E(RwB97XD) =  -3435.56269443     A.U. after    9 cycles
 SCF Done:  E(RwB97XD) =  -3435.56269518     A.U. after    8 cycles
 SCF Done:  E(RwB97XD) =  -3435.56269479     A.U. after    8 cycles
 SCF Done:  E(RwB97XD) =  -3435.56269300     A.U. after    9 cycles
 SCF Done:  E(RwB97XD) =  -3435.56269239     A.U. after   10 cycles
 SCF Done:  E(RwB97XD) =  -3435.56269527     A.U. after    9 cycles
 SCF Done:  E(RwB97XD) =  -3435.56269439     A.U. after    8 cycles
 SCF Done:  E(RwB97XD) =  -3435.56269488     A.U. after    9 cycles
 Optimization completed.
    -- Stationary point found.
 Normal termination of Gaussian 16 at Mon Feb 22 03:31:24 2021.

 ---------------------------------------------------------------------
 #N Geom=AllCheck Guess=TCheck SCRF=Check GenChk RwB97XD/def2TZVP Freq
 ---------------------------------------------------------------------

 Structure from the checkpoint file:  "/beegfs/scratch/user/q/tla25/Gau-1962.chk"
 ------------------------
 1_iteration/TS-772-1.out
 ------------------------
 Charge =  0 Multiplicity = 1

                         Standard orientation:
 ---------------------------------------------------------------------
 Center     Atomic      Atomic             Coordinates (Angstroms)
 Number     Number       Type             X           Y           Z
 ---------------------------------------------------------------------
      1          6           0        0.639802   -0.032028   -0.706375
      2          6           0        1.967683    0.100783   -0.177945
      3          8           0        2.266745    0.386749    0.971183
      4          6           0       -0.472724    0.278282    0.038945
      5          6           0       -0.480116   -2.341477    1.131142
      6          1           0       -0.150760   -2.989505    1.942881
      7          1           0       -1.438900   -2.691350    0.755389
      8          1           0        0.257267   -2.381628    0.325079
      9          7           0       -0.599624   -0.959375    1.562123
     10          1           0       -1.431211   -0.780600    2.112362
     11          1           0        0.215676   -0.655854    2.084616
     12         35           0       -2.154306   -0.037956   -0.826892
     13         17           0       -0.531657    1.741924    1.032598
     14          1           0        0.510285   -0.540147   -1.648462
     15          8           0        2.905749   -0.173402   -1.108788
     16          6           0        4.258697   -0.142217   -0.668870
     17          1           0        4.532409    0.853737   -0.320115
     18          1           0        4.423226   -0.860330    0.134888
     19          1           0        4.858265   -0.409779   -1.534995
 ---------------------------------------------------------------------

 SCF Done:  E(RwB97XD) =  -3435.56269488     A.U. after    1 cycles

 The electronic state is 1-A.
 Alpha  occ. eigenvalues -- -483.14463-101.70813 -62.69310 -56.48441 -56.48063
 Alpha  occ. eigenvalues --  -56.48053 -19.28766 -19.22322 -14.48641 -10.44413
 Alpha  occ. eigenvalues --  -10.40614 -10.32852 -10.31697 -10.27076  -9.59393
 Alpha  occ. eigenvalues --   -8.83424  -7.34064  -7.33158  -7.33125  -6.65626
 Alpha  occ. eigenvalues --   -6.64418  -6.64388  -2.76007  -2.75659  -2.75636
 Alpha  occ. eigenvalues --   -2.74659  -2.74659  -1.20239  -1.10869  -1.04588
 Alpha  occ. eigenvalues --   -0.98879  -0.90487  -0.86690  -0.81026  -0.78989
 Alpha  occ. eigenvalues --   -0.69933  -0.64101  -0.63292  -0.60323  -0.58039
 Alpha  occ. eigenvalues --   -0.57269  -0.56779  -0.54821  -0.53378  -0.51080
 Alpha  occ. eigenvalues --   -0.48804  -0.48075  -0.47814  -0.46774  -0.43978
 Alpha  occ. eigenvalues --   -0.41889  -0.40191  -0.38646  -0.37837  -0.37690
 Alpha  occ. eigenvalues --   -0.35869  -0.29717
 Alpha virt. eigenvalues --    0.02813   0.04460   0.08715   0.10790   0.13606
 Alpha virt. eigenvalues --    0.14610   0.16242   0.16439   0.17128   0.18247
 Alpha virt. eigenvalues --    0.19249   0.20218   0.20539   0.21381   0.22854

 Mulliken charges:
               1
     1  C   -0.558239
     2  C    0.458456
     3  O   -0.492338
     4  C    0.229183
     5  C   -0.283584
     6  H    0.158544
     7  H    0.157779
     8  H    0.147831
     9  N   -0.358355
    10  H    0.293003
    11  H    0.284306
    12  Br  -0.051163
    13  Cl  -0.065464
    14  H    0.170519
    15  O   -0.301614
    16  C   -0.187625
    17  H    0.129363
    18  H    0.128470
    19  H    0.140931
 Sum of Mulliken charges =  -0.00000

 Dipole moment (field-independent basis, Debye):
    X=             -1.8306    Y=             -4.6410    Z=              2.2730  Tot=              5.4824
 Quadrupole moment (field-independent basis, Debye-Ang):
   XX=            -73.4033   YY=            -75.5210   ZZ=            -75.3170
   XY=              0.3753   XZ=             -6.7283   YZ=             -5.2849

  Exact polarizability: 187.249   6.023 137.568  -5.894   0.883 145.267
 Approx polarizability: 140.738   4.163 116.008  -2.085   4.282 129.142

 ******    1 imaginary frequencies (negative Signs) ******

                      1                      2                      3
                      A                      A                      A
 Frequencies --   -370.9406                58.8909                69.6898
 Red. masses --      5.5122                 3.6408                 6.7168
 Frc consts  --      0.4469                 0.0074                 0.0192
 IR Inten    --    673.7078                 3.5157                16.8227

                      4                      5                      6
                      A                      A                      A
 Frequencies --    105.7262               106.8658               145.5612
 Red. masses --      4.2896                 2.9265                 1.8646
 Frc consts  --      0.0283                 0.0197                 0.0233
 IR Inten    --      1.7392                 2.0489                14.7736

                      7                      8                      9
                      A                      A                      A
 Frequencies --    162.4917               173.4776               194.8266
 Red. masses --      3.0060                 1.3549                 1.6234
 Frc consts  --      0.0468                 0.0240                 0.0363
 IR Inten    --      3.5801                 1.0649                 2.5494

                     10                     11                     12
                      A                      A                      A
 Frequencies --    209.9372               239.9004               255.1441
 Red. masses --      8.3926                 4.0469                 7.2602
 Frc consts  --      0.2179                 0.1372                 0.2785
 IR Inten    --      4.8428                 4.6528                 3.3248

                     13                     14                     15
                      A                      A                      A
 Frequencies --    301.4542               329.4964               388.5172
 Red. masses --      3.7436                 5.6677                 7.6225
 Frc consts  --      0.2004                 0.3625                 0.6779
 IR Inten    --      5.6466                56.2469                24.4424

                     16                     17                     18
                      A                      A                      A
 Frequencies --    465.7272               594.7644               656.5479
 Red. masses --      4.1983                 2.0888                 1.3892
 Frc consts  --      0.5365                 0.4353                 0.3528
 IR Inten    --     46.7125                22.3426                70.1201

                     19                     20                     21
                      A                      A                      A
 Frequencies --    705.0898               716.1605               802.3065
 Red. masses --      4.0632                 2.5984                 7.3479
 Frc consts  --      1.1902                 0.7852                 2.7867
 IR Inten    --     66.6379               102.3616                82.7712

                     22                     23                     24
                      A                      A                      A
 Frequencies --    828.4875               981.0786               998.2770
 Red. masses --      5.2081                 4.4065                 1.0804
 Frc consts  --      2.1062                 2.4989                 0.6344
 IR Inten    --    135.7497               100.1588                58.9123

                     25                     26                     27
                      A                      A                      A
 Frequencies --   1045.2861              1080.6442              1090.7872
 Red. masses --      1.1805                 5.7926                 4.7441
 Frc consts  --      0.7599                 3.9856                 3.3257
 IR Inten    --     86.6662               105.1461                32.7819

                     28                     29                     30
                      A                      A                      A
 Frequencies --   1182.5785              1200.9773              1204.4881
 Red. masses --      1.2838                 1.8922                 1.4080
 Frc consts  --      1.0578                 1.6080                 1.2035
 IR Inten    --      2.6937               905.7289                22.7789

                     31                     32                     33
                      A                      A                      A
 Frequencies --   1218.7149              1317.7318              1342.3023
 Red. masses --      1.5250                 3.0556                 1.3432
 Frc consts  --      1.3345                 3.1261                 1.4259
 IR Inten    --     48.9283               132.6393                16.5856

                     34                     35                     36
                      A                      A                      A
 Frequencies --   1453.7410              1472.2111              1483.5174
 Red. masses --      1.3947                 1.4722                 1.0470
 Frc consts  --      1.7366                 1.8800                 1.3576
 IR Inten    --    336.8877               189.1322                15.8420

                     37                     38                     39
                      A                      A                      A
 Frequencies --   1487.4436              1491.9238              1499.9196
 Red. masses --      1.3404                 1.0627                 1.3331
 Frc consts  --      1.7473                 1.3937                 1.7671
 IR Inten    --    484.5797                46.8097               277.5188

                     40                     41                     42
                      A                      A                      A
 Frequencies --   1504.3583              1643.8178              1709.7973
 Red. masses --      1.0480                 1.1078                 9.4427
 Frc consts  --      1.3974                 1.7638                16.2643
 IR Inten    --      1.1685               102.4747               502.6217

                     43                     44                     45
                      A                      A                      A
 Frequencies --   3053.5068              3063.4338              3129.5632
 Red. masses --      1.0374                 1.0310                 1.0997
 Frc consts  --      5.6992                 5.7005                 6.3457
 IR Inten    --     32.7032                55.6499                10.2551

                     46                     47                     48
                      A                      A                      A
 Frequencies --   3139.3343              3168.6517              3175.4456
 Red. masses --      1.1068                 1.1048                 1.1053
 Frc consts  --      6.4266                 6.5357                 6.5666
 IR Inten    --     36.6007                12.0730                24.5504

                     49                     50                     51
                      A                      A                      A
 Frequencies --   3249.8141              3515.0564              3607.5954
 Red. masses --      1.0903                 1.0510                 1.0969
 Frc consts  --      6.7847                 7.6508                 8.4114
 IR Inten    --      3.0234                47.1149                85.2190

 - Thermochemistry -
 -------------------
 Temperature   298.150 Kelvin.  Pressure   1.00000 Atm.
 Atom     1 has atomic number  6 and mass  12.00000

 Molecular mass:   228.95052 amu.
 Principal axes and moments of inertia in atomic units:
                           1         2         3
     Eigenvalues --  1492.443284047.855974146.07526
           X            0.99933  -0.02060  -0.03031
           Y           -0.00076   0.81528  -0.57907
           Z            0.03664   0.57870   0.81471
 This molecule is an asymmetric top.
 Rotational symmetry number  1.
 Warning -- assumption of classical behavior for rotation
           may cause significant error
 Rotational temperatures (Kelvin)      0.05803     0.02140     0.02089
 Rotational constants (GHZ):           1.20925     0.44585     0.43529
    1 imaginary frequencies ignored.
 Zero-point vibrational energy     376961.6 (Joules/Mol)
                                   90.09599 (Kcal/Mol)
 Warning -- explicit consideration of  16 degrees of freedom as
           vibrations may cause significant error
 Vibrational temperatures:     84.73   100.27   152.12   153.76   209.43
          (Kelvin)            233.79   249.60   280.31   302.05   345.16
                              367.10   433.73   474.07   558.99   670.08
                              855.73   944.63  1014.47  1030.40  1154.34
                             1192.01  1411.55  1436.30  1503.93  1554.81
                             1569.40  1701.47  1727.94  1732.99  1753.46
                             1895.92  1931.27  2091.61  2118.18  2134.45
                             2140.10  2146.55  2158.05  2164.44  2365.09
                             2460.02  4393.32  4407.60  4502.74  4516.80
                             4558.98  4568.76  4675.76  5057.38  5190.53

 Zero-point correction=                           0.143577 (Hartree/Particle)
 Thermal correction to Energy=                    0.155759
 Thermal correction to Enthalpy=                  0.156703
 Thermal correction to Gibbs Free Energy=         0.103762
 Sum of electronic and zero-point Energies=          -3435.419118
 Sum of electronic and thermal Energies=             -3435.406936
 Sum of electronic and thermal Enthalpies=           -3435.405992
 Sum of electronic and thermal Free Energies=        -3435.458933

                     E (Thermal)             CV                S
                      KCal/Mol        Cal/Mol-Kelvin    Cal/Mol-Kelvin
 Total                   97.740             41.017            111.423
 Electronic               0.000              0.000              0.000
 Translational            0.889              2.981             42.187
 Rotational               0.889              2.981             31.594
 Vibrational             95.963             35.055             37.642
 Vibration     1          0.596              1.974              4.494
 Vibration     2          0.598              1.969              4.162
 Vibration     3          0.605              1.945              3.346
 Vibration     4          0.606              1.944              3.325
 Vibration     5          0.617              1.907              2.729
 Vibration     6          0.623              1.888              2.521
 Vibration     7          0.627              1.875              2.397
 Vibration     8          0.635              1.847              2.181
 Vibration     9          0.642              1.826              2.044
 Vibration    10          0.657              1.779              1.804
 Vibration    11          0.666              1.754              1.695
 Vibration    12          0.693              1.671              1.409
 Vibration    13          0.712              1.617              1.263
 Vibration    14          0.757              1.495              1.006
 Vibration    15          0.823              1.326              0.750
 Vibration    16          0.952              1.043              0.459

 Optimization completed.
    -- Stationary point found.
 Normal termination of Gaussian 16 at Mon Feb 22 03:43:53 2021.
