 Gaussian 16, Revision A.03,
 Gaussian 16:  ES64L-G16RevA.03 25-Dec-2016

 ----------------------------------------------------------------------
 # wB97XD def2tzvp, opt=(ts, noeigen, calcfc, maxcycles=70, maxstep=8),
  freq=noraman, scrf=(iefpcm, solvent=water)
 ----------------------------------------------------------------------

 ------------------------
 1_iteration/TS-703-1.out
 ------------------------
 Symbolic Z-matrix:
 Charge =  0 Multiplicity = 1

 SCF Done:  E(RwB97XD) =  -3226.45802524     A.U. after   15 cycles
 SCF Done:  E(RwB97XD) =  -3226.45833983     A.U. after   12 cycles
 SCF Done:  E(RwB97XD) =  -3226.45831911     A.U. after   14 cycles
 SCF Done:  E(RwB97XD) =  -3226.45854279     A.U. after   12 cycles
 SCF Done:  E(RwB97XD) =  -3226.45825933     A.U. after   14 cycles
 SCF Done:  E(RwB97XD) =  -3226.45857555     A.U. after   14 cycles
 SCF Done:  E(RwB97XD) =  -3226.45858349     A.U. after   12 cycles
 SCF Done:  E(RwB97XD) =  -3226.45859904     A.U. after   12 cycles
 SCF Done:  E(RwB97XD) =  -3226.45860098     A.U. after    9 cycles
 SCF Done:  E(RwB97XD) =  -3226.45860068     A.U. after    9 cycles
 SCF Done:  E(RwB97XD) =  -3226.45860093     A.U. after    9 cycles
 SCF Done:  E(RwB97XD) =  -3226.45860102     A.U. after    6 cycles
 Optimization completed.
    -- Stationary point found.
 Normal termination of Gaussian 16 at Mon Feb 22 09:02:13 2021.

 ---------------------------------------------------------------------
 #N Geom=AllCheck Guess=TCheck SCRF=Check GenChk RwB97XD/def2TZVP Freq
 ---------------------------------------------------------------------

 Structure from the checkpoint file:  "/beegfs/scratch/user/q/tla25/Gau-111885.chk"
 ------------------------
 1_iteration/TS-703-1.out
 ------------------------
 Charge =  0 Multiplicity = 1

                         Standard orientation:
 ---------------------------------------------------------------------
 Center     Atomic      Atomic             Coordinates (Angstroms)
 Number     Number       Type             X           Y           Z
 ---------------------------------------------------------------------
      1          6           0       -0.926767   -0.505447    0.743604
      2          6           0        0.502300   -0.761113    0.768359
      3          8           0        0.961316   -1.777708    1.294632
      4          6           0       -1.583474    0.271867   -0.193893
      5          6           0       -1.549666    2.457351    1.510960
      6          1           0       -0.944860    3.126410    0.903185
      7          1           0       -2.083690    3.040786    2.258963
      8          1           0       -0.901193    1.735181    2.012228
      9          7           0       -2.470402    1.715100    0.658559
     10          1           0       -3.208350    1.282527    1.201255
     11          1           0       -2.911093    2.300024   -0.042916
     12         35           0       -3.315242   -0.562110   -0.882161
     13          6           0       -0.951241    0.998205   -1.354789
     14          1           0       -0.299689    0.325012   -1.909404
     15          1           0       -1.714174    1.374801   -2.030803
     16          1           0       -0.366481    1.858358   -1.027783
     17          6           0       -1.717582   -1.307951    1.747392
     18          1           0       -2.625235   -0.786417    2.057766
     19          1           0       -2.027832   -2.282999    1.357786
     20          1           0       -1.119838   -1.489678    2.639586
     21          7           0        1.356786    0.178197    0.216134
     22          6           0        2.730325    0.076663   -0.012670
     23          6           0        3.444903    1.263918   -0.194915
     24          6           0        4.800746    1.238208   -0.470814
     25          6           0        5.476073    0.029322   -0.566451
     26          6           0        4.768137   -1.150236   -0.388696
     27          6           0        3.408130   -1.139138   -0.116854
     28          1           0        0.982994    1.100787    0.098513
     29          1           0        2.928535    2.214196   -0.118750
     30          1           0        5.331734    2.171975   -0.608133
     31          1           0        6.537262    0.007766   -0.777463
     32          1           0        5.278343   -2.102700   -0.465639
     33          1           0        2.870538   -2.063493    0.019943
 ---------------------------------------------------------------------

 SCF Done:  E(RwB97XD) =  -3226.45860102     A.U. after    1 cycles

 The electronic state is 1-A.
 Alpha  occ. eigenvalues -- -483.11608 -62.66475 -56.45559 -56.45253 -56.45238
 Alpha  occ. eigenvalues --  -19.20214 -14.49651 -14.45913 -10.39844 -10.38257
 Alpha  occ. eigenvalues --  -10.33612 -10.32139 -10.29647 -10.28973 -10.28839
 Alpha  occ. eigenvalues --  -10.28729 -10.28215 -10.28169 -10.26875 -10.26419
 Alpha  occ. eigenvalues --   -8.80582  -6.62628  -6.61668  -6.61619  -2.73019
 Alpha  occ. eigenvalues --   -2.72765  -2.72727  -2.71949  -2.71949  -1.13196
 Alpha  occ. eigenvalues --   -1.05150  -1.03613  -0.95477  -0.93327  -0.86056
 Alpha  occ. eigenvalues --   -0.85042  -0.84090  -0.83464  -0.79501  -0.75935
 Alpha  occ. eigenvalues --   -0.72527  -0.71346  -0.67681  -0.64355  -0.64063
 Alpha  occ. eigenvalues --   -0.62287  -0.58785  -0.57736  -0.57380  -0.55712
 Alpha  occ. eigenvalues --   -0.53934  -0.53018  -0.52347  -0.51391  -0.51247
 Alpha  occ. eigenvalues --   -0.50512  -0.49865  -0.48900  -0.48475  -0.46747
 Alpha  occ. eigenvalues --   -0.45582  -0.44800  -0.44553  -0.43639  -0.42879
 Alpha  occ. eigenvalues --   -0.42563  -0.39029  -0.36778  -0.36531  -0.34237
 Alpha  occ. eigenvalues --   -0.33237  -0.30034  -0.26554
 Alpha virt. eigenvalues --    0.03345   0.04801   0.05464   0.08392   0.09151
 Alpha virt. eigenvalues --    0.11497   0.13513   0.13787   0.14529   0.15395
 Alpha virt. eigenvalues --    0.15912   0.16672   0.17347   0.17882   0.18638

 Mulliken charges:
               1
     1  C   -0.239927
     2  C    0.375908
     3  O   -0.523711
     4  C    0.084946
     5  C   -0.319975
     6  H    0.166851
     7  H    0.168079
     8  H    0.158533
     9  N   -0.282010
    10  H    0.285716
    11  H    0.296341
    12  Br  -0.204922
    13  C   -0.412249
    14  H    0.173625
    15  H    0.164706
    16  H    0.141826
    17  C   -0.381496
    18  H    0.114106
    19  H    0.122661
    20  H    0.129103
    21  N   -0.252777
    22  C    0.305018
    23  C   -0.312566
    24  C   -0.099148
    25  C   -0.198103
    26  C   -0.099234
    27  C   -0.303494
    28  H    0.228011
    29  H    0.142260
    30  H    0.142309
    31  H    0.140028
    32  H    0.141005
    33  H    0.148579
 Sum of Mulliken charges =  -0.00000

 Dipole moment (field-independent basis, Debye):
    X=             -4.6006    Y=             10.9841    Z=             -0.5748  Tot=             11.9225
 Quadrupole moment (field-independent basis, Debye-Ang):
   XX=           -105.5669   YY=            -99.7987   ZZ=           -113.0433
   XY=             -9.7642   XZ=            -11.5871   YZ=              7.7782

  Exact polarizability: 355.020  -7.390 262.983   3.970  -7.983 196.723
 Approx polarizability: 252.554  -6.321 222.049   2.068  -7.383 167.422

 ******    1 imaginary frequencies (negative Signs) ******

                      1                      2                      3
                      A                      A                      A
 Frequencies --   -404.8746                29.3205                31.9263
 Red. masses --      5.6099                 6.1824                 3.5923
 Frc consts  --      0.5418                 0.0031                 0.0022
 IR Inten    --    677.3664                 0.6792                 0.7722

                      4                      5                      6
                      A                      A                      A
 Frequencies --     38.5770                82.4142                97.1991
 Red. masses --      4.3952                 6.2174                 2.1051
 Frc consts  --      0.0039                 0.0249                 0.0117
 IR Inten    --      1.7453                17.5379                 6.6055

                      7                      8                      9
                      A                      A                      A
 Frequencies --    125.7643               140.4369               154.5668
 Red. masses --      4.5389                 5.2815                 1.6501
 Frc consts  --      0.0423                 0.0614                 0.0232
 IR Inten    --      0.5838                18.5096                 6.6896

                     10                     11                     12
                      A                      A                      A
 Frequencies --    167.5702               179.9022               192.0597
 Red. masses --      1.2246                 1.6283                 4.4357
 Frc consts  --      0.0203                 0.0310                 0.0964
 IR Inten    --      6.4385                16.2861                14.3552

                     13                     14                     15
                      A                      A                      A
 Frequencies --    242.7084               262.1472               277.1015
 Red. masses --      4.3113                 4.0342                 2.6377
 Frc consts  --      0.1496                 0.1633                 0.1193
 IR Inten    --     30.9101                 2.6626                26.1307

                     16                     17                     18
                      A                      A                      A
 Frequencies --    283.9057               305.1021               349.3866
 Red. masses --      2.3367                 2.0077                 3.3849
 Frc consts  --      0.1110                 0.1101                 0.2435
 IR Inten    --      3.9819                 3.0909                13.0387

                     19                     20                     21
                      A                      A                      A
 Frequencies --    373.4643               391.0080               406.1981
 Red. masses --      2.5662                 3.0252                 3.6228
 Frc consts  --      0.2109                 0.2725                 0.3522
 IR Inten    --     36.8781                41.0385                71.9655

                     22                     23                     24
                      A                      A                      A
 Frequencies --    424.6178               490.8651               525.5955
 Red. masses --      2.9868                 3.4078                 2.2294
 Frc consts  --      0.3173                 0.4838                 0.3629
 IR Inten    --      0.4397                83.2783                84.9623

                     25                     26                     27
                      A                      A                      A
 Frequencies --    536.6463               545.6726               627.8622
 Red. masses --      2.2565                 1.8565                 4.8728
 Frc consts  --      0.3829                 0.3257                 1.1318
 IR Inten    --     50.5334                17.6941                59.8762

                     28                     29                     30
                      A                      A                      A
 Frequencies --    634.9877               643.2534               709.5157
 Red. masses --      3.9091                 3.1223                 1.7695
 Frc consts  --      0.9287                 0.7612                 0.5248
 IR Inten    --     29.0466               188.7570               158.9428

                     31                     32                     33
                      A                      A                      A
 Frequencies --    718.7260               769.0569               781.5093
 Red. masses --      1.8950                 6.9328                 1.8628
 Frc consts  --      0.5767                 2.4159                 0.6703
 IR Inten    --     50.0453                20.2507               120.4471

                     34                     35                     36
                      A                      A                      A
 Frequencies --    844.9776               860.8447               896.2669
 Red. masses --      4.2516                 1.2693                 3.7037
 Frc consts  --      1.7885                 0.5542                 1.7529
 IR Inten    --     58.4135                 1.9237               107.1317

                     37                     38                     39
                      A                      A                      A
 Frequencies --    932.8146               977.6109              1001.3441
 Red. masses --      1.5283                 1.9008                 1.3458
 Frc consts  --      0.7835                 1.0703                 0.7951
 IR Inten    --     10.4332               110.5679                 0.1784

                     40                     41                     42
                      A                      A                      A
 Frequencies --   1011.3387              1015.0750              1020.8414
 Red. masses --      1.0998                 1.2813                 5.7773
 Frc consts  --      0.6628                 0.7779                 3.5472
 IR Inten    --     35.3427                 0.5510                 2.9682

                     43                     44                     45
                      A                      A                      A
 Frequencies --   1041.3671              1054.7844              1059.9008
 Red. masses --      1.1944                 1.7158                 1.4162
 Frc consts  --      0.7632                 1.1247                 0.9373
 IR Inten    --     29.3170               101.1037                63.7185

                     46                     47                     48
                      A                      A                      A
 Frequencies --   1062.9336              1079.6041              1084.6507
 Red. masses --      1.9668                 2.2192                 2.6020
 Frc consts  --      1.3093                 1.5240                 1.8036
 IR Inten    --     33.0202                22.3461               141.6274

                     49                     50                     51
                      A                      A                      A
 Frequencies --   1119.1597              1131.0445              1155.1395
 Red. masses --      1.5624                 2.3709                 2.8825
 Frc consts  --      1.1530                 1.7870                 2.2661
 IR Inten    --     19.2658                11.0852               157.6891

                     52                     53                     54
                      A                      A                      A
 Frequencies --   1182.0630              1210.3650              1222.0523
 Red. masses --      1.1245                 1.1371                 1.3798
 Frc consts  --      0.9257                 0.9815                 1.2140
 IR Inten    --      4.7806                16.0896                43.6899

                     55                     56                     57
                      A                      A                      A
 Frequencies --   1270.1523              1326.6604              1337.2550
 Red. masses --      2.3240                 4.2672                 1.3285
 Frc consts  --      2.2090                 4.4250                 1.3997
 IR Inten    --    551.6547               315.1263                 5.3532

                     58                     59                     60
                      A                      A                      A
 Frequencies --   1343.5036              1363.5956              1417.0572
 Red. masses --      4.5897                 1.6173                 1.2658
 Frc consts  --      4.8811                 1.7718                 1.4975
 IR Inten    --    719.9671               112.1592                 3.4711

                     61                     62                     63
                      A                      A                      A
 Frequencies --   1421.8347              1450.8995              1469.6452
 Red. masses --      1.2198                 1.2451                 1.6549
 Frc consts  --      1.4529                 1.5443                 2.1059
 IR Inten    --      2.5171                60.2778               359.3855

                     64                     65                     66
                      A                      A                      A
 Frequencies --   1469.9227              1476.5328              1487.7478
 Red. masses --      1.2115                 1.3126                 1.1236
 Frc consts  --      1.5423                 1.6860                 1.4653
 IR Inten    --    172.9785                94.1872                18.2960

                     67                     68                     69
                      A                      A                      A
 Frequencies --   1499.2816              1502.7933              1509.6534
 Red. masses --      1.0412                 1.0444                 1.1945
 Frc consts  --      1.3790                 1.3896                 1.6039
 IR Inten    --     31.6953                17.7906               220.5173

                     70                     71                     72
                      A                      A                      A
 Frequencies --   1524.0452              1547.0920              1558.0340
 Red. masses --      1.7234                 2.5403                 2.0158
 Frc consts  --      2.3585                 3.5823                 2.8831
 IR Inten    --    414.7725               250.7843               298.1185

                     73                     74                     75
                      A                      A                      A
 Frequencies --   1644.1697              1655.4373              1664.0203
 Red. masses --      1.0886                 7.5922                 4.1079
 Frc consts  --      1.7339                12.2586                 6.7017
 IR Inten    --     76.5262               411.1518               217.9726

                     76                     77                     78
                      A                      A                      A
 Frequencies --   1678.5776              3030.6567              3060.1230
 Red. masses --      6.3985                 1.0451                 1.0370
 Frc consts  --     10.6221                 5.6555                 5.7217
 IR Inten    --    396.0317                75.0875                33.7008

                     79                     80                     81
                      A                      A                      A
 Frequencies --   3078.7396              3090.6233              3137.9450
 Red. masses --      1.0385                 1.0937                 1.0986
 Frc consts  --      5.7995                 6.1553                 6.3738
 IR Inten    --     15.8343                50.1688                32.7880

                     82                     83                     84
                      A                      A                      A
 Frequencies --   3141.8520              3151.5519              3172.0304
 Red. masses --      1.0996                 1.0996                 1.1059
 Frc consts  --      6.3955                 6.4349                 6.5561
 IR Inten    --      5.0859                19.1790                13.6368

                     85                     86                     87
                      A                      A                      A
 Frequencies --   3173.7984              3186.1177              3195.9532
 Red. masses --      1.1034                 1.0880                 1.0882
 Frc consts  --      6.5487                 6.5072                 6.5490
 IR Inten    --      8.4645                15.2165                 2.9597

                     88                     89                     90
                      A                      A                      A
 Frequencies --   3205.7764              3221.3648              3264.8767
 Red. masses --      1.0930                 1.0978                 1.0923
 Frc consts  --      6.6181                 6.7121                 6.8603
 IR Inten    --     29.8716                24.0323                 0.9899

                     91                     92                     93
                      A                      A                      A
 Frequencies --   3528.0062              3608.6572              3692.4796
 Red. masses --      1.0511                 1.0963                 1.0759
 Frc consts  --      7.7081                 8.4113                 8.6427
 IR Inten    --     57.2101                53.6941                33.9205

 - Thermochemistry -
 -------------------
 Temperature   298.150 Kelvin.  Pressure   1.00000 Atm.
 Atom     1 has atomic number  6 and mass  12.00000

 Molecular mass:   284.05242 amu.
 Principal axes and moments of inertia in atomic units:
                           1         2         3
     Eigenvalues --  2143.426299944.89945**********
           X            0.99965  -0.01368  -0.02263
           Y            0.01317   0.99965  -0.02283
           Z            0.02294   0.02252   0.99948
 This molecule is an asymmetric top.
 Rotational symmetry number  1.
 Warning -- assumption of classical behavior for rotation
           may cause significant error
 Rotational temperatures (Kelvin)      0.04041     0.00871     0.00833
 Rotational constants (GHZ):           0.84199     0.18147     0.17360
    1 imaginary frequencies ignored.
 Zero-point vibrational energy     724109.8 (Joules/Mol)
                                  173.06640 (Kcal/Mol)
 Warning -- explicit consideration of  25 degrees of freedom as
           vibrations may cause significant error
 Vibrational temperatures:     42.19    45.93    55.50   118.58   139.85
          (Kelvin)            180.95   202.06   222.39   241.10   258.84
                              276.33   349.20   377.17   398.69   408.48
                              438.97   502.69   537.33   562.57   584.43
                              610.93   706.25   756.21   772.11   785.10
                              903.35   913.61   925.50  1020.83  1034.09
                             1106.50  1124.42  1215.73  1238.56  1289.53
                             1342.11  1406.56  1440.71  1455.09  1460.47
                             1468.76  1498.29  1517.60  1524.96  1529.32
                             1553.31  1560.57  1610.22  1627.32  1661.99
                             1700.72  1741.45  1758.26  1827.47  1908.77
                             1924.01  1933.00  1961.91  2038.83  2045.70
                             2087.52  2114.49  2114.89  2124.40  2140.54
                             2157.13  2162.18  2172.05  2192.76  2225.92
                             2241.66  2365.59  2381.80  2394.15  2415.10
                             4360.44  4402.83  4429.62  4446.72  4514.80
                             4520.42  4534.38  4563.84  4566.39  4584.11
                             4598.26  4612.40  4634.83  4697.43  5076.01
                             5192.05  5312.65

 Zero-point correction=                           0.275799 (Hartree/Particle)
 Thermal correction to Energy=                    0.292856
 Thermal correction to Enthalpy=                  0.293800
 Thermal correction to Gibbs Free Energy=         0.229229
 Sum of electronic and zero-point Energies=          -3226.182802
 Sum of electronic and thermal Energies=             -3226.165745
 Sum of electronic and thermal Enthalpies=           -3226.164801
 Sum of electronic and thermal Free Energies=        -3226.229372

                     E (Thermal)             CV                S
                      KCal/Mol        Cal/Mol-Kelvin    Cal/Mol-Kelvin
 Total                  183.770             62.940            135.902
 Electronic               0.000              0.000              0.000
 Translational            0.889              2.981             42.830
 Rotational               0.889              2.981             33.760
 Vibrational            181.992             56.979             59.312
 Vibration     1          0.593              1.984              5.875
 Vibration     2          0.594              1.983              5.706
 Vibration     3          0.594              1.981              5.331
 Vibration     4          0.600              1.961              3.833
 Vibration     5          0.603              1.951              3.510
 Vibration     6          0.611              1.927              3.010
 Vibration     7          0.615              1.913              2.798
 Vibration     8          0.620              1.898              2.615
 Vibration     9          0.624              1.882              2.463
 Vibration    10          0.629              1.867              2.329
 Vibration    11          0.634              1.851              2.208
 Vibration    12          0.659              1.775              1.783
 Vibration    13          0.669              1.742              1.647
 Vibration    14          0.678              1.716              1.551
 Vibration    15          0.682              1.704              1.510
 Vibration    16          0.696              1.664              1.389
 Vibration    17          0.727              1.577              1.169
 Vibration    18          0.745              1.527              1.066
 Vibration    19          0.759              1.489              0.996
 Vibration    20          0.771              1.457              0.940
 Vibration    21          0.787              1.417              0.876
 Vibration    22          0.847              1.270              0.681
 Vibration    23          0.881              1.193              0.597
 Vibration    24          0.892              1.169              0.573
 Vibration    25          0.901              1.149              0.553

 Optimization completed.
    -- Stationary point found.
 Normal termination of Gaussian 16 at Mon Feb 22 10:18:40 2021.
