 Gaussian 16, Revision A.03,
 Gaussian 16:  ES64L-G16RevA.03 25-Dec-2016

 ----------------------------------------------------------------------
 # wB97XD def2tzvp, opt=(ts, noeigen, calcfc, maxcycles=70, maxstep=5),
  freq=noraman, scrf=(iefpcm, solvent=water)
 ----------------------------------------------------------------------

 -----------------------
 2_iteration/TS-72-2.out
 -----------------------
 Symbolic Z-matrix:
 Charge =  0 Multiplicity = 1

 SCF Done:  E(RwB97XD) =  -3323.51399668     A.U. after   15 cycles
 SCF Done:  E(RwB97XD) =  -3323.51436773     A.U. after   12 cycles
 SCF Done:  E(RwB97XD) =  -3323.51463703     A.U. after   12 cycles
 SCF Done:  E(RwB97XD) =  -3323.51477585     A.U. after   11 cycles
 SCF Done:  E(RwB97XD) =  -3323.51482488     A.U. after   12 cycles
 SCF Done:  E(RwB97XD) =  -3323.51483228     A.U. after   10 cycles
 SCF Done:  E(RwB97XD) =  -3323.51483339     A.U. after    8 cycles
 SCF Done:  E(RwB97XD) =  -3323.51483551     A.U. after   10 cycles
 SCF Done:  E(RwB97XD) =  -3323.51483549     A.U. after    7 cycles
 Optimization completed.
    -- Stationary point found.
 Normal termination of Gaussian 16 at Sun Jan 31 21:47:00 2021.

 ---------------------------------------------------------------------
 #N Geom=AllCheck Guess=TCheck SCRF=Check GenChk RwB97XD/def2TZVP Freq
 ---------------------------------------------------------------------

 Structure from the checkpoint file:  "/beegfs/scratch/user/q/tla25/Gau-85621.chk"
 -----------------------
 2_iteration/TS-72-2.out
 -----------------------
 Charge =  0 Multiplicity = 1

                         Standard orientation:
 ---------------------------------------------------------------------
 Center     Atomic      Atomic             Coordinates (Angstroms)
 Number     Number       Type             X           Y           Z
 ---------------------------------------------------------------------
      1          6           0        0.118138    0.989424   -0.132266
      2          6           0        1.497475    1.325032   -0.280020
      3          8           0        1.935448    2.472376   -0.382248
      4          6           0       -0.330550   -0.300279    0.140808
      5          6           0       -0.482434   -2.022919    2.494025
      6          1           0        0.178983   -2.680736    1.931093
      7          1           0       -0.315650   -2.179041    3.560580
      8          1           0       -1.513540   -2.276320    2.253738
      9          7           0       -0.226696   -0.641983    2.095898
     10          1           0       -0.850907    0.008504    2.557784
     11          1           0        0.723109   -0.359613    2.307599
     12          6           0       -1.691539   -0.827473   -0.141362
     13          6           0       -1.787903   -1.894214   -1.031562
     14          6           0       -3.021609   -2.437222   -1.356678
     15          6           0       -4.175065   -1.932646   -0.776149
     16          6           0       -4.086547   -0.883278    0.128308
     17          6           0       -2.855001   -0.331577    0.441477
     18          1           0       -0.887264   -2.300366   -1.476757
     19          1           0       -3.078364   -3.261675   -2.055754
     20          1           0       -5.139254   -2.360004   -1.020077
     21          1           0       -4.981589   -0.492065    0.594794
     22          1           0       -2.803426    0.482224    1.151619
     23          1           0        0.431145   -1.048017   -0.041487
     24         35           0       -1.083434    2.473609   -0.121625
     25          6           0        2.490438    0.188633   -0.311584
     26          6           0        3.405235    0.058923    0.728168
     27          6           0        4.352644   -0.953657    0.704003
     28          6           0        4.404051   -1.833390   -0.368402
     29          6           0        3.502562   -1.698921   -1.414803
     30          6           0        2.545285   -0.695575   -1.384025
     31          1           0        3.372408    0.752645    1.559969
     32          1           0        5.053610   -1.054378    1.522965
     33          1           0        5.146267   -2.621181   -0.389149
     34          1           0        3.542100   -2.378474   -2.256690
     35          1           0        1.834789   -0.598094   -2.196289
 ---------------------------------------------------------------------

 SCF Done:  E(RwB97XD) =  -3323.51483549     A.U. after    1 cycles

 The electronic state is 1-A.
 Alpha  occ. eigenvalues -- -483.12037 -62.66872 -56.45974 -56.45643 -56.45632
 Alpha  occ. eigenvalues --  -19.21648 -14.47862 -10.36568 -10.35382 -10.31718
 Alpha  occ. eigenvalues --  -10.31367 -10.31134 -10.30286 -10.29778 -10.29704
 Alpha  occ. eigenvalues --  -10.29571 -10.29565 -10.29524 -10.29479 -10.29439
 Alpha  occ. eigenvalues --  -10.29420 -10.29405 -10.29287  -8.80983  -6.63091
 Alpha  occ. eigenvalues --   -6.62032  -6.61995  -2.73491  -2.73182  -2.73153
 Alpha  occ. eigenvalues --   -2.72296  -2.72296  -1.12507  -1.03453  -0.97832
 Alpha  occ. eigenvalues --   -0.97102  -0.93198  -0.87664  -0.87008  -0.85748
 Alpha  occ. eigenvalues --   -0.85581  -0.82579  -0.78688  -0.75940  -0.71340
 Alpha  occ. eigenvalues --   -0.71123  -0.70724  -0.68215  -0.63884  -0.63332
 Alpha  occ. eigenvalues --   -0.61392  -0.59840  -0.57490  -0.56770  -0.55920
 Alpha  occ. eigenvalues --   -0.55469  -0.54788  -0.53490  -0.52954  -0.52323
 Alpha  occ. eigenvalues --   -0.51501  -0.51404  -0.50144  -0.48241  -0.47928
 Alpha  occ. eigenvalues --   -0.47445  -0.46562  -0.45992  -0.44404  -0.44032
 Alpha  occ. eigenvalues --   -0.43592  -0.43203  -0.42329  -0.38532  -0.36935
 Alpha  occ. eigenvalues --   -0.34998  -0.34326  -0.34113  -0.33813  -0.32295
 Alpha  occ. eigenvalues --   -0.28074
 Alpha virt. eigenvalues --    0.01220   0.04376   0.04701   0.04759   0.06869
 Alpha virt. eigenvalues --    0.08551   0.10175   0.12618   0.12932   0.13252
 Alpha virt. eigenvalues --    0.14611   0.14852   0.15169   0.15915   0.17103

 Mulliken charges:
               1
     1  C   -0.100824
     2  C    0.163620
     3  O   -0.471229
     4  C   -0.196992
     5  C   -0.276470
     6  H    0.150344
     7  H    0.154726
     8  H    0.155764
     9  N   -0.345625
    10  H    0.278997
    11  H    0.271768
    12  C    0.295591
    13  C   -0.220694
    14  C   -0.146844
    15  C   -0.144819
    16  C   -0.123535
    17  C   -0.299840
    18  H    0.150186
    19  H    0.145807
    20  H    0.147427
    21  H    0.146549
    22  H    0.161149
    23  H    0.203322
    24  Br  -0.141253
    25  C    0.191512
    26  C   -0.241734
    27  C   -0.141356
    28  C   -0.144869
    29  C   -0.125891
    30  C   -0.242958
    31  H    0.153528
    32  H    0.145906
    33  H    0.147037
    34  H    0.146398
    35  H    0.155300
 Sum of Mulliken charges =   0.00000

 Dipole moment (field-independent basis, Debye):
    X=             -2.8359    Y=            -10.6571    Z=              5.8826  Tot=             12.4989
 Quadrupole moment (field-independent basis, Debye-Ang):
   XX=           -116.7811   YY=           -136.2306   ZZ=           -107.7561
   XY=            -10.7210   XZ=              2.1651   YZ=              6.0599

  Exact polarizability: 349.977   1.630 318.989   2.524  16.384 263.482
 Approx polarizability: 265.908  -3.449 258.752   3.588  18.627 226.159

 ******    1 imaginary frequencies (negative Signs) ******

                      1                      2                      3
                      A                      A                      A
 Frequencies --   -320.8653                17.5173                38.3285
 Red. masses --      6.0710                 4.2382                 4.7492
 Frc consts  --      0.3683                 0.0008                 0.0041
 IR Inten    --    870.6856                 1.8862                 0.3879

                      4                      5                      6
                      A                      A                      A
 Frequencies --     49.5476                54.2838                55.6326
 Red. masses --      3.1516                 7.2223                 4.5841
 Frc consts  --      0.0046                 0.0125                 0.0084
 IR Inten    --      0.3291                 3.3591                 1.6634

                      7                      8                      9
                      A                      A                      A
 Frequencies --     68.7646                94.5040               100.1088
 Red. masses --      3.5390                 4.4090                 3.8656
 Frc consts  --      0.0099                 0.0232                 0.0228
 IR Inten    --      3.4464                 7.9987                 4.6250

                     10                     11                     12
                      A                      A                      A
 Frequencies --    138.5232               171.0546               184.3288
 Red. masses --      2.5363                 4.3546                 1.8776
 Frc consts  --      0.0287                 0.0751                 0.0376
 IR Inten    --      1.9371                 8.6391                 1.1343

                     13                     14                     15
                      A                      A                      A
 Frequencies --    200.2242               229.4798               241.2627
 Red. masses --      3.9712                 4.3918                 3.4832
 Frc consts  --      0.0938                 0.1363                 0.1195
 IR Inten    --      1.0799                 4.5415                16.4537

                     16                     17                     18
                      A                      A                      A
 Frequencies --    250.0990               318.8137               342.2208
 Red. masses --      5.4787                 6.4551                 4.9737
 Frc consts  --      0.2019                 0.3866                 0.3432
 IR Inten    --      2.1470                12.1566                10.4430

                     19                     20                     21
                      A                      A                      A
 Frequencies --    388.7986               415.8369               423.0543
 Red. masses --      5.6439                 2.8962                 3.0973
 Frc consts  --      0.5027                 0.2951                 0.3266
 IR Inten    --      9.3840                 1.3190                 8.9377

                     22                     23                     24
                      A                      A                      A
 Frequencies --    439.0720               550.6408               555.7460
 Red. masses --      5.0610                 3.4107                 3.0573
 Frc consts  --      0.5749                 0.6093                 0.5563
 IR Inten    --     75.6204                50.5734               128.8002

                     25                     26                     27
                      A                      A                      A
 Frequencies --    585.0252               632.2794               634.9678
 Red. masses --      2.4301                 5.6968                 6.3526
 Frc consts  --      0.4900                 1.3418                 1.5091
 IR Inten    --     16.1904                 6.3777                 0.2464

                     28                     29                     30
                      A                      A                      A
 Frequencies --    646.8666               655.3028               695.3460
 Red. masses --      2.9922                 5.2746                 3.6582
 Frc consts  --      0.7377                 1.3345                 1.0421
 IR Inten    --    154.6686                29.5707                 5.3388

                     31                     32                     33
                      A                      A                      A
 Frequencies --    729.4115               731.2707               767.0897
 Red. masses --      1.5482                 1.6221                 4.9857
 Frc consts  --      0.4853                 0.5111                 1.7285
 IR Inten    --     89.9755                92.7873                51.0392

                     34                     35                     36
                      A                      A                      A
 Frequencies --    791.2226               814.3623               842.0261
 Red. masses --      2.2303                 2.9272                 5.2032
 Frc consts  --      0.8226                 1.1437                 2.1735
 IR Inten    --     12.1315                42.2782                46.8085

                     37                     38                     39
                      A                      A                      A
 Frequencies --    881.9461               883.6766               884.2460
 Red. masses --      2.0326                 1.2525                 1.7269
 Frc consts  --      0.9315                 0.5762                 0.7955
 IR Inten    --     20.2230                 0.7011                10.6084

                     40                     41                     42
                      A                      A                      A
 Frequencies --    964.5090               970.3350               998.8095
 Red. masses --      1.4579                 1.4399                 1.0839
 Frc consts  --      0.7991                 0.7988                 0.6371
 IR Inten    --     19.6312                 9.6406                 7.0032

                     43                     44                     45
                      A                      A                      A
 Frequencies --   1013.5067              1017.1190              1020.4905
 Red. masses --      1.2394                 1.2523                 1.3359
 Frc consts  --      0.7501                 0.7633                 0.8197
 IR Inten    --     64.4655                54.8369                10.1061

                     46                     47                     48
                      A                      A                      A
 Frequencies --   1025.4788              1027.2516              1033.3529
 Red. masses --      6.0339                 5.9350                 1.3097
 Frc consts  --      3.7385                 3.6900                 0.8240
 IR Inten    --      1.2932                 1.7934                 0.1466

                     49                     50                     51
                      A                      A                      A
 Frequencies --   1036.9126              1059.2314              1066.1926
 Red. masses --      1.3080                 2.3384                 2.2675
 Frc consts  --      0.8286                 1.5458                 1.5187
 IR Inten    --      0.2153                12.0685                28.4872

                     52                     53                     54
                      A                      A                      A
 Frequencies --   1072.5730              1110.8480              1121.2913
 Red. masses --      4.3124                 1.5511                 1.6466
 Frc consts  --      2.9230                 1.1277                 1.2197
 IR Inten    --    142.0058                13.7104                17.3147

                     55                     56                     57
                      A                      A                      A
 Frequencies --   1148.0637              1158.0906              1183.7090
 Red. masses --      1.1213                 3.4601                 1.1377
 Frc consts  --      0.8708                 2.7342                 0.9392
 IR Inten    --     86.2785                40.2583                 0.0697

                     58                     59                     60
                      A                      A                      A
 Frequencies --   1186.5797              1206.9549              1211.6507
 Red. masses --      1.1315                 1.1236                 1.3855
 Frc consts  --      0.9387                 0.9644                 1.1985
 IR Inten    --      1.6255                 2.1051                19.8174

                     61                     62                     63
                      A                      A                      A
 Frequencies --   1221.1642              1235.2577              1272.4838
 Red. masses --      1.2376                 2.8329                 1.5733
 Frc consts  --      1.0873                 2.5468                 1.5009
 IR Inten    --     13.3109                37.5069               163.2681

                     64                     65                     66
                      A                      A                      A
 Frequencies --   1318.5681              1334.4484              1337.7499
 Red. masses --      4.4115                 6.0157                 3.1211
 Frc consts  --      4.5190                 6.3117                 3.2909
 IR Inten    --     26.5103               161.0452                91.6848

                     67                     68                     69
                      A                      A                      A
 Frequencies --   1342.5652              1359.6682              1375.7234
 Red. masses --      1.4675                 1.4465                 1.3631
 Frc consts  --      1.5584                 1.5756                 1.5200
 IR Inten    --     15.5999                 4.4684                74.0372

                     70                     71                     72
                      A                      A                      A
 Frequencies --   1459.6223              1476.3608              1488.4434
 Red. masses --      1.3867                 2.1392                 2.2224
 Frc consts  --      1.7406                 2.7472                 2.9009
 IR Inten    --    230.5241               459.5966                18.1390

                     73                     74                     75
                      A                      A                      A
 Frequencies --   1492.1699              1505.5029              1511.3460
 Red. masses --      1.0425                 1.1169                 2.1062
 Frc consts  --      1.3677                 1.4915                 2.8345
 IR Inten    --     19.6583                56.0769               252.8299

                     76                     77                     78
                      A                      A                      A
 Frequencies --   1539.3664              1552.9857              1642.8224
 Red. masses --      2.3123                 2.4835                 4.1130
 Frc consts  --      3.2283                 3.5289                 6.5401
 IR Inten    --     12.9371                46.4362               598.9281

                     79                     80                     81
                      A                      A                      A
 Frequencies --   1645.2965              1651.9009              1655.7042
 Red. masses --      1.2711                 6.9845                 5.7470
 Frc consts  --      2.0272                11.2293                 9.2823
 IR Inten    --     42.3505               281.9263                23.8188

                     82                     83                     84
                      A                      A                      A
 Frequencies --   1673.2505              1678.9373              3063.4891
 Red. masses --      5.8561                 5.7490                 1.0339
 Frc consts  --      9.6601                 9.5480                 5.7169
 IR Inten    --      0.8832                 0.6170                53.4689

                     85                     86                     87
                      A                      A                      A
 Frequencies --   3140.0008              3160.0730              3192.7208
 Red. masses --      1.1046                 1.1052                 1.0867
 Frc consts  --      6.4166                 6.5024                 6.5265
 IR Inten    --     19.1912                15.0701                 3.2531

                     88                     89                     90
                      A                      A                      A
 Frequencies --   3193.2489              3195.3203              3199.4268
 Red. masses --      1.0880                 1.0885                 1.0872
 Frc consts  --      6.5366                 6.5478                 6.5571
 IR Inten    --      5.6932                 1.6446                 2.2186

                     91                     92                     93
                      A                      A                      A
 Frequencies --   3201.8498              3204.4573              3211.6480
 Red. masses --      1.0882                 1.0911                 1.0921
 Frc consts  --      6.5730                 6.6015                 6.6372
 IR Inten    --      0.6319                 5.7378                21.0917

                     94                     95                     96
                      A                      A                      A
 Frequencies --   3212.8879              3221.8746              3223.4934
 Red. masses --      1.0950                 1.0960                 1.0988
 Frc consts  --      6.6596                 6.7033                 6.7271
 IR Inten    --     32.2525                29.0704                19.1025

                     97                     98                     99
                      A                      A                      A
 Frequencies --   3230.3484              3526.4200              3610.5659
 Red. masses --      1.0960                 1.0511                 1.0960
 Frc consts  --      6.7385                 7.7009                 8.4177
 IR Inten    --      6.1497                14.2682                47.1389

 - Thermochemistry -
 -------------------
 Temperature   298.150 Kelvin.  Pressure   1.00000 Atm.
 Atom     1 has atomic number  6 and mass  12.00000

 Molecular mass:   317.04153 amu.
 Principal axes and moments of inertia in atomic units:
                           1         2         3
     Eigenvalues --  4619.660537971.52675**********
           X            0.99965   0.02654   0.00007
           Y           -0.02654   0.99964   0.00385
           Z            0.00003  -0.00385   0.99999
 This molecule is an asymmetric top.
 Rotational symmetry number  1.
 Warning -- assumption of classical behavior for rotation
           may cause significant error
 Rotational temperatures (Kelvin)      0.01875     0.01087     0.00832
 Rotational constants (GHZ):           0.39067     0.22640     0.17338
    1 imaginary frequencies ignored.
 Zero-point vibrational energy     745841.7 (Joules/Mol)
                                  178.26045 (Kcal/Mol)
 Warning -- explicit consideration of  24 degrees of freedom as
           vibrations may cause significant error
 Vibrational temperatures:     25.20    55.15    71.29    78.10    80.04
          (Kelvin)             98.94   135.97   144.03   199.30   246.11
                              265.21   288.08   330.17   347.12   359.84
                              458.70   492.38   559.39   598.30   608.68
                              631.73   792.25   799.59   841.72   909.71
                              913.58   930.70   942.83  1000.45  1049.46
                             1052.14  1103.67  1138.39  1171.69  1211.49
                             1268.92  1271.41  1272.23  1387.71  1396.10
                             1437.06  1458.21  1463.41  1468.26  1475.44
                             1477.99  1486.76  1491.89  1524.00  1534.01
                             1543.19  1598.26  1613.29  1651.81  1666.23
                             1703.09  1707.22  1736.54  1743.30  1756.98
                             1777.26  1830.82  1897.13  1919.97  1924.72
                             1931.65  1956.26  1979.36  2100.07  2124.15
                             2141.54  2146.90  2166.08  2174.49  2214.80
                             2234.40  2363.65  2367.21  2376.72  2382.19
                             2407.43  2415.62  4407.68  4517.76  4546.64
                             4593.61  4594.37  4597.35  4603.26  4606.75
                             4610.50  4620.85  4622.63  4635.56  4637.89
                             4647.75  5073.73  5194.80

 Zero-point correction=                           0.284076 (Hartree/Particle)
 Thermal correction to Energy=                    0.301939
 Thermal correction to Enthalpy=                  0.302883
 Thermal correction to Gibbs Free Energy=         0.234801
 Sum of electronic and zero-point Energies=          -3323.230759
 Sum of electronic and thermal Energies=             -3323.212896
 Sum of electronic and thermal Enthalpies=           -3323.211952
 Sum of electronic and thermal Free Energies=        -3323.280034

                     E (Thermal)             CV                S
                      KCal/Mol        Cal/Mol-Kelvin    Cal/Mol-Kelvin
 Total                  189.470             65.747            143.291
 Electronic               0.000              0.000              0.000
 Translational            0.889              2.981             43.157
 Rotational               0.889              2.981             34.304
 Vibrational            187.692             59.786             65.829
 Vibration     1          0.593              1.986              6.897
 Vibration     2          0.594              1.982              5.344
 Vibration     3          0.595              1.978              4.835
 Vibration     4          0.596              1.976              4.655
 Vibration     5          0.596              1.975              4.606
 Vibration     6          0.598              1.969              4.188
 Vibration     7          0.603              1.953              3.565
 Vibration     8          0.604              1.949              3.452
 Vibration     9          0.614              1.915              2.824
 Vibration    10          0.626              1.878              2.424
 Vibration    11          0.631              1.861              2.284
 Vibration    12          0.638              1.840              2.131
 Vibration    13          0.652              1.796              1.883
 Vibration    14          0.658              1.777              1.794
 Vibration    15          0.663              1.763              1.730
 Vibration    16          0.705              1.638              1.316
 Vibration    17          0.721              1.591              1.202
 Vibration    18          0.757              1.494              1.005
 Vibration    19          0.779              1.436              0.906
 Vibration    20          0.785              1.420              0.882
 Vibration    21          0.799              1.385              0.830
 Vibration    22          0.906              1.138              0.543
 Vibration    23          0.911              1.127              0.532
 Vibration    24          0.942              1.064              0.476

 Optimization completed.
    -- Stationary point found.
 Normal termination of Gaussian 16 at Sun Jan 31 23:47:41 2021.
