 Gaussian 16, Revision A.03,
 Gaussian 16:  ES64L-G16RevA.03 25-Dec-2016

 ----------------------------------------------------------------------
 # wB97XD def2tzvp, opt=(ts, noeigen, calcfc, maxcycles=70, maxstep=8),
  freq=noraman, scrf=(iefpcm, solvent=water)
 ----------------------------------------------------------------------

 ------------------------
 1_iteration/TS-706-1.out
 ------------------------
 Symbolic Z-matrix:
 Charge =  0 Multiplicity = 1

 SCF Done:  E(RwB97XD) =  -5513.65346006     A.U. after   15 cycles
 SCF Done:  E(RwB97XD) =  -5513.65269492     A.U. after   13 cycles
 SCF Done:  E(RwB97XD) =  -5513.65208350     A.U. after   13 cycles
 SCF Done:  E(RwB97XD) =  -5513.65171723     A.U. after   13 cycles
 SCF Done:  E(RwB97XD) =  -5513.65151506     A.U. after   13 cycles
 SCF Done:  E(RwB97XD) =  -5513.65148922     A.U. after   12 cycles
 SCF Done:  E(RwB97XD) =  -5513.65149317     A.U. after   10 cycles
 SCF Done:  E(RwB97XD) =  -5513.65149356     A.U. after   10 cycles
 SCF Done:  E(RwB97XD) =  -5513.65149315     A.U. after    9 cycles
 SCF Done:  E(RwB97XD) =  -5513.65141715     A.U. after   11 cycles
 SCF Done:  E(RwB97XD) =  -5513.65138687     A.U. after   12 cycles
 SCF Done:  E(RwB97XD) =  -5513.65148899     A.U. after   12 cycles
 SCF Done:  E(RwB97XD) =  -5513.65149110     A.U. after   10 cycles
 SCF Done:  E(RwB97XD) =  -5513.65149305     A.U. after   10 cycles
 SCF Done:  E(RwB97XD) =  -5513.65149333     A.U. after    9 cycles
 Optimization completed.
    -- Stationary point found.
 Normal termination of Gaussian 16 at Mon Feb 22 08:06:09 2021.

 ---------------------------------------------------------------------
 #N Geom=AllCheck Guess=TCheck SCRF=Check GenChk RwB97XD/def2TZVP Freq
 ---------------------------------------------------------------------

 Structure from the checkpoint file:  "/beegfs/scratch/user/q/tla25/Gau-29008.chk"
 ------------------------
 1_iteration/TS-706-1.out
 ------------------------
 Charge =  0 Multiplicity = 1

                         Standard orientation:
 ---------------------------------------------------------------------
 Center     Atomic      Atomic             Coordinates (Angstroms)
 Number     Number       Type             X           Y           Z
 ---------------------------------------------------------------------
      1          6           0        0.695358    0.152548   -0.325384
      2          6           0        1.884961    0.859682   -0.748413
      3          8           0        1.855187    2.012530   -1.179110
      4          6           0       -0.577057    0.706878   -0.272067
      5          6           0        0.144666    1.830285    2.266075
      6          1           0        0.109963    1.793094    3.354924
      7          1           0        1.079805    1.379519    1.927436
      8          1           0        0.116827    2.868511    1.942989
      9          7           0       -0.961126    1.102498    1.662365
     10          1           0       -1.079924    0.189107    2.084110
     11          1           0       -1.841153    1.599082    1.735298
     12         35           0       -2.101771   -0.485274   -0.527024
     13          6           0       -0.889897    2.061108   -0.840057
     14          1           0       -0.205411    2.805983   -0.446350
     15          1           0       -0.759741    2.036057   -1.922055
     16          1           0       -1.918215    2.336100   -0.615971
     17         35           0        0.926014   -1.609253    0.394742
     18          6           0        3.220886    0.149031   -0.685125
     19          1           0        3.205923   -0.780412   -1.255736
     20          1           0        3.978259    0.814957   -1.092254
     21          1           0        3.478034   -0.108481    0.343619
 ---------------------------------------------------------------------

 SCF Done:  E(RwB97XD) =  -5513.65149333     A.U. after    1 cycles

 The electronic state is 1-A.
 Alpha  occ. eigenvalues -- -483.13283-483.12620 -62.68141 -62.67456 -56.47253
 Alpha  occ. eigenvalues --  -56.46907 -56.46886 -56.46563 -56.46223 -56.46214
 Alpha  occ. eigenvalues --  -19.21531 -14.48126 -10.40594 -10.37023 -10.31780
 Alpha  occ. eigenvalues --  -10.31672 -10.28951 -10.27503  -8.82255  -8.81569
 Alpha  occ. eigenvalues --   -6.64397  -6.63692  -6.63299  -6.63234  -6.62604
 Alpha  occ. eigenvalues --   -6.62579  -2.74784  -2.74482  -2.74431  -2.74087
 Alpha  occ. eigenvalues --   -2.73770  -2.73751  -2.73541  -2.73541  -2.72870
 Alpha  occ. eigenvalues --   -2.72870  -1.12643  -1.03772  -0.95660  -0.89910
 Alpha  occ. eigenvalues --   -0.84738  -0.83245  -0.78884  -0.78475  -0.69300
 Alpha  occ. eigenvalues --   -0.63037  -0.59430  -0.57815  -0.55576  -0.55503
 Alpha  occ. eigenvalues --   -0.54239  -0.52012  -0.50643  -0.50041  -0.48555
 Alpha  occ. eigenvalues --   -0.47492  -0.45710  -0.45106  -0.44093  -0.43429
 Alpha  occ. eigenvalues --   -0.39859  -0.38845  -0.37137  -0.35817  -0.32600
 Alpha  occ. eigenvalues --   -0.28594
 Alpha virt. eigenvalues --    0.02072   0.04474   0.09738   0.10057   0.12650
 Alpha virt. eigenvalues --    0.12890   0.14566   0.15494   0.16819   0.18154
 Alpha virt. eigenvalues --    0.19098   0.19568   0.20032   0.21137   0.21386

 Mulliken charges:
               1
     1  C   -0.236378
     2  C    0.269840
     3  O   -0.485574
     4  C    0.138935
     5  C   -0.292913
     6  H    0.159123
     7  H    0.150147
     8  H    0.158855
     9  N   -0.371409
    10  H    0.283548
    11  H    0.290300
    12  Br  -0.093425
    13  C   -0.348288
    14  H    0.151791
    15  H    0.154195
    16  H    0.149013
    17  Br  -0.135396
    18  C   -0.358628
    19  H    0.145162
    20  H    0.128155
    21  H    0.142948
 Sum of Mulliken charges =  -0.00000

 Dipole moment (field-independent basis, Debye):
    X=             -3.3672    Y=              1.6873    Z=              5.7745  Tot=              6.8942
 Quadrupole moment (field-independent basis, Debye-Ang):
   XX=            -85.8004   YY=            -89.1665   ZZ=            -79.6263
   XY=            -10.1192   XZ=             -0.9821   YZ=              9.3597

  Exact polarizability: 204.626   3.615 179.797 -11.818  -3.653 158.006
 Approx polarizability: 156.903   4.782 152.503  -7.557  -5.533 133.637

 ******    1 imaginary frequencies (negative Signs) ******

                      1                      2                      3
                      A                      A                      A
 Frequencies --   -357.7475                55.1409                60.4448
 Red. masses --      5.5734                 6.9023                 3.5561
 Frc consts  --      0.4203                 0.0124                 0.0077
 IR Inten    --    630.5648                 3.5173                 9.1953

                      4                      5                      6
                      A                      A                      A
 Frequencies --     70.1542               119.1402               139.5721
 Red. masses --      2.1455                 3.1453                31.7919
 Frc consts  --      0.0062                 0.0263                 0.3649
 IR Inten    --      1.5499                 7.4885                 3.1008

                      7                      8                      9
                      A                      A                      A
 Frequencies --    161.4647               180.1862               215.0188
 Red. masses --      2.5579                 1.5876                 2.8662
 Frc consts  --      0.0393                 0.0304                 0.0781
 IR Inten    --      3.9592                 1.5546                 7.1857

                     10                     11                     12
                      A                      A                      A
 Frequencies --    219.7325               271.6424               274.1019
 Red. masses --      1.1930                 2.6966                 2.2280
 Frc consts  --      0.0339                 0.1172                 0.0986
 IR Inten    --      3.2549                14.1153                 9.2434

                     13                     14                     15
                      A                      A                      A
 Frequencies --    292.3745               311.5085               357.6349
 Red. masses --      2.2612                 3.3085                 2.1410
 Frc consts  --      0.1139                 0.1892                 0.1613
 IR Inten    --      6.7968                 2.0233                 4.9767

                     16                     17                     18
                      A                      A                      A
 Frequencies --    384.0122               432.3345               485.9222
 Red. masses --      6.5710                 3.6072                 3.7489
 Frc consts  --      0.5709                 0.3972                 0.5215
 IR Inten    --      4.0093                17.9923                62.2167

                     19                     20                     21
                      A                      A                      A
 Frequencies --    565.1072               617.6859               646.8478
 Red. masses --      3.6229                 1.8667                 1.9391
 Frc consts  --      0.6817                 0.4196                 0.4780
 IR Inten    --     87.7971                44.2302                33.5197

                     22                     23                     24
                      A                      A                      A
 Frequencies --    725.3957               948.1619               980.5793
 Red. masses --      3.6440                 6.0541                 1.9022
 Frc consts  --      1.1297                 3.2068                 1.0776
 IR Inten    --     67.2006                61.8925                13.0007

                     25                     26                     27
                      A                      A                      A
 Frequencies --    993.0901              1011.4071              1041.3997
 Red. masses --      1.0877                 1.1317                 1.7003
 Frc consts  --      0.6321                 0.6821                 1.0864
 IR Inten    --     50.5472                85.3618                24.3414

                     28                     29                     30
                      A                      A                      A
 Frequencies --   1049.5887              1060.5840              1085.1557
 Red. masses --      1.7914                 1.5088                 3.9446
 Frc consts  --      1.1627                 1.0000                 2.7368
 IR Inten    --     84.7008                58.3664                 4.6171

                     31                     32                     33
                      A                      A                      A
 Frequencies --   1113.8277              1203.0350              1289.0655
 Red. masses --      2.6384                 1.4077                 4.3040
 Frc consts  --      1.9286                 1.2003                 4.2138
 IR Inten    --     91.4991                15.6441               301.2237

                     34                     35                     36
                      A                      A                      A
 Frequencies --   1339.1216              1385.2119              1403.6340
 Red. masses --      1.3365                 1.6970                 1.9498
 Frc consts  --      1.4121                 1.9185                 2.2634
 IR Inten    --      8.7442               259.4490               887.9203

                     37                     38                     39
                      A                      A                      A
 Frequencies --   1426.9533              1457.5479              1462.3130
 Red. masses --      1.4704                 1.1347                 1.0932
 Frc consts  --      1.7640                 1.4203                 1.3773
 IR Inten    --    191.5458                42.2751                31.3725

                     40                     41                     42
                      A                      A                      A
 Frequencies --   1464.8170              1476.5471              1482.0847
 Red. masses --      1.0853                 1.0451                 1.1173
 Frc consts  --      1.3721                 1.3425                 1.4460
 IR Inten    --      4.0301                16.3498                41.0472

                     43                     44                     45
                      A                      A                      A
 Frequencies --   1491.9709              1504.6147              1641.7112
 Red. masses --      1.0437                 1.0330                 1.0903
 Frc consts  --      1.3688                 1.3778                 1.7313
 IR Inten    --     28.7289                18.2266                61.8787

                     46                     47                     48
                      A                      A                      A
 Frequencies --   1672.8771              3061.9198              3065.3479
 Red. masses --      9.2711                 1.0346                 1.0363
 Frc consts  --     15.2865                 5.7150                 5.7371
 IR Inten    --    429.1268                34.1765                 4.9524

                     49                     50                     51
                      A                      A                      A
 Frequencies --   3082.8734              3132.8703              3137.3814
 Red. masses --      1.0371                 1.1035                 1.1000
 Frc consts  --      5.8075                 6.3810                 6.3795
 IR Inten    --     10.5953                12.2798                10.0338

                     52                     53                     54
                      A                      A                      A
 Frequencies --   3157.5447              3168.3065              3168.4334
 Red. masses --      1.1019                 1.1042                 1.1042
 Frc consts  --      6.4730                 6.5306                 6.5310
 IR Inten    --     12.0527                33.8613                 9.9198

                     55                     56                     57
                      A                      A                      A
 Frequencies --   3192.7223              3528.9224              3613.3840
 Red. masses --      1.1016                 1.0505                 1.0967
 Frc consts  --      6.6159                 7.7080                 8.4364
 IR Inten    --      2.1288                53.2118                50.1342

 - Thermochemistry -
 -------------------
 Temperature   298.150 Kelvin.  Pressure   1.00000 Atm.
 Atom     1 has atomic number  6 and mass  12.00000

 Molecular mass:   270.92074 amu.
 Principal axes and moments of inertia in atomic units:
                           1         2         3
     Eigenvalues --  2337.214223323.462254151.37430
           X            0.99923   0.00093  -0.03917
           Y            0.00162   0.99788   0.06511
           Z            0.03915  -0.06512   0.99711
 This molecule is an asymmetric top.
 Rotational symmetry number  1.
 Warning -- assumption of classical behavior for rotation
           may cause significant error
 Rotational temperatures (Kelvin)      0.03706     0.02606     0.02086
 Rotational constants (GHZ):           0.77218     0.54303     0.43473
    1 imaginary frequencies ignored.
 Zero-point vibrational energy     435921.8 (Joules/Mol)
                                  104.18780 (Kcal/Mol)
 Warning -- explicit consideration of  19 degrees of freedom as
           vibrations may cause significant error
 Vibrational temperatures:     79.34    86.97   100.94   171.42   200.81
          (Kelvin)            232.31   259.25   309.36   316.15   390.83
                              394.37   420.66   448.19   514.56   552.51
                              622.03   699.13   813.06   888.71   930.67
                             1043.68  1364.19  1410.83  1428.84  1455.19
                             1498.34  1510.12  1525.94  1561.30  1602.55
                             1730.90  1854.68  1926.70  1993.01  2019.52
                             2053.07  2097.09  2103.94  2107.55  2124.42
                             2132.39  2146.61  2164.80  2362.06  2406.90
                             4405.42  4410.35  4435.57  4507.50  4513.99
                             4543.00  4558.49  4558.67  4593.62  5077.33
                             5198.85

 Zero-point correction=                           0.166034 (Hartree/Particle)
 Thermal correction to Energy=                    0.178850
 Thermal correction to Enthalpy=                  0.179795
 Thermal correction to Gibbs Free Energy=         0.125270
 Sum of electronic and zero-point Energies=          -5513.485459
 Sum of electronic and thermal Energies=             -5513.472643
 Sum of electronic and thermal Enthalpies=           -5513.471699
 Sum of electronic and thermal Free Energies=        -5513.526223

                     E (Thermal)             CV                S
                      KCal/Mol        Cal/Mol-Kelvin    Cal/Mol-Kelvin
 Total                  112.230             44.037            114.757
 Electronic               0.000              0.000              0.000
 Translational            0.889              2.981             42.689
 Rotational               0.889              2.981             31.845
 Vibrational            110.453             38.075             40.224
 Vibration     1          0.596              1.976              4.624
 Vibration     2          0.597              1.973              4.443
 Vibration     3          0.598              1.968              4.149
 Vibration     4          0.609              1.933              3.114
 Vibration     5          0.615              1.914              2.810
 Vibration     6          0.622              1.890              2.533
 Vibration     7          0.629              1.867              2.326
 Vibration     8          0.645              1.818              2.001
 Vibration     9          0.647              1.811              1.961
 Vibration    10          0.675              1.726              1.586
 Vibration    11          0.676              1.721              1.570
 Vibration    12          0.688              1.688              1.460
 Vibration    13          0.700              1.652              1.354
 Vibration    14          0.733              1.560              1.132
 Vibration    15          0.753              1.504              1.023
 Vibration    16          0.793              1.400              0.851
 Vibration    17          0.842              1.281              0.694
 Vibration    18          0.921              1.107              0.514
 Vibration    19          0.977              0.995              0.420

 Optimization completed.
    -- Stationary point found.
 Normal termination of Gaussian 16 at Mon Feb 22 08:28:14 2021.
