 Gaussian 16, Revision A.03,
 Gaussian 16:  ES64L-G16RevA.03 25-Dec-2016

 ----------------------------------------------------------------------
 # wB97XD def2tzvp, opt=(ts, noeigen, calcfc, maxcycles=70, maxstep=8),
  freq=noraman, scrf=(iefpcm, solvent=water)
 ----------------------------------------------------------------------

 ------------------------
 1_iteration/TS-736-1.out
 ------------------------
 Symbolic Z-matrix:
 Charge =  0 Multiplicity = 1

 SCF Done:  E(RwB97XD) =  -5666.05082453     A.U. after   16 cycles
 SCF Done:  E(RwB97XD) =  -5666.05377062     A.U. after   15 cycles
 SCF Done:  E(RwB97XD) =  -5666.05679079     A.U. after   15 cycles
 SCF Done:  E(RwB97XD) =  -5666.05949740     A.U. after   15 cycles
 SCF Done:  E(RwB97XD) =  -5666.06143765     A.U. after   14 cycles
 SCF Done:  E(RwB97XD) =  -5666.06240946     A.U. after   13 cycles
 SCF Done:  E(RwB97XD) =  -5666.06272534     A.U. after   13 cycles
 SCF Done:  E(RwB97XD) =  -5666.06293034     A.U. after   13 cycles
 SCF Done:  E(RwB97XD) =  -5666.06297640     A.U. after   12 cycles
 SCF Done:  E(RwB97XD) =  -5666.06303546     A.U. after   12 cycles
 SCF Done:  E(RwB97XD) =  -5666.06306350     A.U. after   11 cycles
 SCF Done:  E(RwB97XD) =  -5666.06298531     A.U. after   12 cycles
 SCF Done:  E(RwB97XD) =  -5666.06292118     A.U. after   12 cycles
 SCF Done:  E(RwB97XD) =  -5666.06304323     A.U. after   12 cycles
 SCF Done:  E(RwB97XD) =  -5666.06306268     A.U. after   11 cycles
 SCF Done:  E(RwB97XD) =  -5666.06308098     A.U. after   11 cycles
 SCF Done:  E(RwB97XD) =  -5666.06308132     A.U. after   10 cycles
 SCF Done:  E(RwB97XD) =  -5666.06308139     A.U. after    8 cycles
 SCF Done:  E(RwB97XD) =  -5666.06308140     A.U. after    7 cycles
 Optimization completed.
    -- Stationary point found.
 Normal termination of Gaussian 16 at Mon Feb 22 09:31:31 2021.

 ---------------------------------------------------------------------
 #N Geom=AllCheck Guess=TCheck SCRF=Check GenChk RwB97XD/def2TZVP Freq
 ---------------------------------------------------------------------

 Structure from the checkpoint file:  "/beegfs/scratch/user/q/tla25/Gau-53308.chk"
 ------------------------
 1_iteration/TS-736-1.out
 ------------------------
 Charge =  0 Multiplicity = 1

                         Standard orientation:
 ---------------------------------------------------------------------
 Center     Atomic      Atomic             Coordinates (Angstroms)
 Number     Number       Type             X           Y           Z
 ---------------------------------------------------------------------
      1          6           0        0.154538   -0.420360   -0.065015
      2          6           0        1.189297    0.547282    0.176673
      3          8           0        0.959012    1.690652    0.577593
      4          6           0       -1.178963   -0.100256   -0.051054
      5          6           0       -1.125632   -0.414236    2.830269
      6          1           0       -0.962539    0.047360    3.804922
      7          1           0       -1.833851   -1.233539    2.934983
      8          1           0       -0.172769   -0.813220    2.470303
      9          7           0       -1.618105    0.535018    1.851630
     10          1           0       -1.071997    1.389494    1.841667
     11          1           0       -2.599849    0.756241    1.957930
     12         35           0       -2.398743   -1.557392   -0.227615
     13         35           0       -1.846594    1.489915   -0.913596
     14          1           0        0.412894   -1.468067   -0.084440
     15          6           0        2.610983    0.107647   -0.017085
     16          6           0        3.618073    0.772644    0.678147
     17          6           0        4.943446    0.404344    0.518921
     18          6           0        5.278260   -0.626490   -0.349696
     19          6           0        4.282613   -1.287045   -1.054972
     20          6           0        2.954684   -0.925452   -0.885407
     21          1           0        3.346750    1.578781    1.347313
     22          1           0        5.717959    0.920938    1.071506
     23          1           0        6.314560   -0.912629   -0.478158
     24          1           0        4.540184   -2.084177   -1.740598
     25          1           0        2.186299   -1.438268   -1.449888
 ---------------------------------------------------------------------

 SCF Done:  E(RwB97XD) =  -5666.06308140     A.U. after    1 cycles

 The electronic state is 1-A.
 Alpha  occ. eigenvalues -- -483.14641-483.14085 -62.69480 -62.68925 -56.48612
 Alpha  occ. eigenvalues --  -56.48236 -56.48222 -56.48061 -56.47679 -56.47664
 Alpha  occ. eigenvalues --  -19.22498 -14.47425 -10.43674 -10.37067 -10.31376
 Alpha  occ. eigenvalues --  -10.29994 -10.29700 -10.29569 -10.29416 -10.29357
 Alpha  occ. eigenvalues --  -10.29313 -10.27603  -8.83591  -8.83033  -6.65793
 Alpha  occ. eigenvalues --   -6.65244  -6.64589  -6.64548  -6.64030  -6.63984
 Alpha  occ. eigenvalues --   -2.76176  -2.75829  -2.75798  -2.75620  -2.75278
 Alpha  occ. eigenvalues --   -2.75241  -2.74824  -2.74824  -2.74260  -2.74260
 Alpha  occ. eigenvalues --   -1.13290  -1.03147  -0.97060  -0.96342  -0.88125
 Alpha  occ. eigenvalues --   -0.87672  -0.85584  -0.84247  -0.78394  -0.74414
 Alpha  occ. eigenvalues --   -0.70944  -0.68073  -0.63281  -0.62502  -0.60794
 Alpha  occ. eigenvalues --   -0.57181  -0.56699  -0.55689  -0.54709  -0.53821
 Alpha  occ. eigenvalues --   -0.52202  -0.51481  -0.51087  -0.48853  -0.47661
 Alpha  occ. eigenvalues --   -0.47398  -0.45994  -0.45201  -0.44344  -0.42904
 Alpha  occ. eigenvalues --   -0.40475  -0.38753  -0.36847  -0.36631  -0.34287
 Alpha  occ. eigenvalues --   -0.34225  -0.33424  -0.30076
 Alpha virt. eigenvalues --   -0.00519   0.02248   0.04905   0.05997   0.07579
 Alpha virt. eigenvalues --    0.11059   0.13365   0.13731   0.15173   0.16287
 Alpha virt. eigenvalues --    0.16383   0.17100   0.18276   0.18704   0.19688

 Mulliken charges:
               1
     1  C   -0.568003
     2  C    0.343614
     3  O   -0.491674
     4  C    0.243174
     5  C   -0.276448
     6  H    0.153470
     7  H    0.154386
     8  H    0.142282
     9  N   -0.389973
    10  H    0.279330
    11  H    0.287786
    12  Br  -0.035919
    13  Br  -0.045774
    14  H    0.188282
    15  C    0.141433
    16  C   -0.226735
    17  C   -0.126606
    18  C   -0.133331
    19  C   -0.143694
    20  C   -0.237268
    21  H    0.143284
    22  H    0.145271
    23  H    0.147985
    24  H    0.145675
    25  H    0.159452
 Sum of Mulliken charges =  -0.00000

 Dipole moment (field-independent basis, Debye):
    X=             -1.3465    Y=             -2.6435    Z=              3.8607  Tot=              4.8689
 Quadrupole moment (field-independent basis, Debye-Ang):
   XX=            -92.6222   YY=           -109.7222   ZZ=            -97.9260
   XY=             -6.0039   XZ=             -8.6333   YZ=              4.0634

  Exact polarizability: 317.658   0.546 225.000  -6.500  22.636 206.488
 Approx polarizability: 229.045  -0.388 197.207  -2.195  21.064 173.783

 ******    1 imaginary frequencies (negative Signs) ******

                      1                      2                      3
                      A                      A                      A
 Frequencies --   -369.7135                36.3692                37.2283
 Red. masses --      5.2527                 6.0301                 4.1344
 Frc consts  --      0.4230                 0.0047                 0.0034
 IR Inten    --    730.6700                 1.7848                 0.9186

                      4                      5                      6
                      A                      A                      A
 Frequencies --     65.8516                89.6489               108.1106
 Red. masses --      6.8307                 3.3403                 3.3130
 Frc consts  --      0.0175                 0.0158                 0.0228
 IR Inten    --      6.2572                 1.7343                24.9463

                      7                      8                      9
                      A                      A                      A
 Frequencies --    127.4855               142.3931               163.2843
 Red. masses --      5.6048                 2.8994                 6.9713
 Frc consts  --      0.0537                 0.0346                 0.1095
 IR Inten    --      2.9844                 4.6227                 4.2023

                     10                     11                     12
                      A                      A                      A
 Frequencies --    170.6314               197.1049               234.8404
 Red. masses --      4.2450                 1.5109                 7.2633
 Frc consts  --      0.0728                 0.0346                 0.2360
 IR Inten    --      1.1248                 3.1336                 9.3166

                     13                     14                     15
                      A                      A                      A
 Frequencies --    261.3179               281.7261               310.7437
 Red. masses --      8.0633                 3.8143                 7.1954
 Frc consts  --      0.3244                 0.1784                 0.4094
 IR Inten    --     20.4223                 3.1146                18.8509

                     16                     17                     18
                      A                      A                      A
 Frequencies --    393.5185               420.4571               452.1391
 Red. masses --      5.8928                 2.8698                 3.9669
 Frc consts  --      0.5377                 0.2989                 0.4778
 IR Inten    --      9.2181                 0.2937                44.9694

                     19                     20                     21
                      A                      A                      A
 Frequencies --    486.6755               554.8582               635.0067
 Red. masses --      4.3341                 2.4302                 6.0622
 Frc consts  --      0.6048                 0.4408                 1.4402
 IR Inten    --     23.8597                 3.4509                 0.8444

                     22                     23                     24
                      A                      A                      A
 Frequencies --    646.6375               667.0110               707.8247
 Red. masses --      2.2094                 3.3085                 2.0901
 Frc consts  --      0.5443                 0.8673                 0.6170
 IR Inten    --    123.5435                73.6991                21.5407

                     25                     26                     27
                      A                      A                      A
 Frequencies --    720.9701               753.0133               764.8366
 Red. masses --      1.5335                 2.7762                 3.2121
 Frc consts  --      0.4697                 0.9275                 1.1071
 IR Inten    --     61.4886               102.9377               174.8108

                     28                     29                     30
                      A                      A                      A
 Frequencies --    834.5908               881.0463               923.5110
 Red. masses --      3.1196                 1.2498                 5.2790
 Frc consts  --      1.2802                 0.5716                 2.6527
 IR Inten    --     18.5610                 0.5854                92.0878

                     31                     32                     33
                      A                      A                      A
 Frequencies --    970.6599               973.7632              1018.4512
 Red. masses --      1.1355                 1.4690                 1.3834
 Frc consts  --      0.6303                 0.8207                 0.8454
 IR Inten    --    135.9525                 3.9172                 1.4206

                     34                     35                     36
                      A                      A                      A
 Frequencies --   1022.7394              1025.9648              1035.3893
 Red. masses --      1.1154                 5.9078                 1.3208
 Frc consts  --      0.6874                 3.6639                 0.8343
 IR Inten    --     44.9916                 3.4061                 0.5719

                     37                     38                     39
                      A                      A                      A
 Frequencies --   1056.4679              1093.1281              1095.4375
 Red. masses --      2.4606                 2.9285                 3.2496
 Frc consts  --      1.6181                 2.0617                 2.2975
 IR Inten    --     29.5445                62.9612                23.2080

                     40                     41                     42
                      A                      A                      A
 Frequencies --   1115.0688              1184.3257              1187.6452
 Red. masses --      1.6795                 1.1368                 1.4221
 Frc consts  --      1.2304                 0.9394                 1.1818
 IR Inten    --      4.9452                 3.1731                14.0083

                     43                     44                     45
                      A                      A                      A
 Frequencies --   1203.6589              1245.4503              1307.4899
 Red. masses --      1.1348                 1.8074                 3.0872
 Frc consts  --      0.9687                 1.6518                 3.1095
 IR Inten    --     26.0717               474.1540                19.1071

                     46                     47                     48
                      A                      A                      A
 Frequencies --   1337.4706              1342.8537              1356.0167
 Red. masses --      3.4697                 1.5091                 1.5094
 Frc consts  --      3.6569                 1.6034                 1.6353
 IR Inten    --      8.4983                 1.8219                13.5429

                     49                     50                     51
                      A                      A                      A
 Frequencies --   1452.8515              1471.2357              1488.4457
 Red. masses --      2.0950                 1.5282                 1.0533
 Frc consts  --      2.6054                 1.9490                 1.3749
 IR Inten    --   1190.8417               435.5055                16.9406

                     52                     53                     54
                      A                      A                      A
 Frequencies --   1494.9291              1507.6089              1540.3291
 Red. masses --      2.3249                 1.0329                 2.3024
 Frc consts  --      3.0612                 1.3832                 3.2186
 IR Inten    --    233.2074                 1.7518                15.5194

                     55                     56                     57
                      A                      A                      A
 Frequencies --   1633.9524              1646.2744              1671.3160
 Red. masses --      1.3376                 3.4172                 5.8741
 Frc consts  --      2.1040                 5.4566                 9.6674
 IR Inten    --    215.3970                34.0780                57.4573

                     58                     59                     60
                      A                      A                      A
 Frequencies --   1679.6469              3045.4336              3115.2997
 Red. masses --      7.2233                 1.0374                 1.1000
 Frc consts  --     12.0066                 5.6691                 6.2902
 IR Inten    --    186.1916                36.6615                17.7608

                     61                     62                     63
                      A                      A                      A
 Frequencies --   3160.5341              3196.4617              3203.7438
 Red. masses --      1.1037                 1.0860                 1.0885
 Frc consts  --      6.4954                 6.5376                 6.5828
 IR Inten    --     15.1329                 0.7761                 3.6002

                     64                     65                     66
                      A                      A                      A
 Frequencies --   3211.5784              3219.2022              3224.9519
 Red. masses --      1.0921                 1.0946                 1.0983
 Frc consts  --      6.6366                 6.6835                 6.7302
 IR Inten    --     15.7576                24.0544                18.8730

                     67                     68                     69
                      A                      A                      A
 Frequencies --   3237.5995              3520.3987              3619.4993
 Red. masses --      1.0892                 1.0511                 1.0968
 Frc consts  --      6.7266                 7.6747                 8.4656
 IR Inten    --      1.3679                38.5328                90.6229

 - Thermochemistry -
 -------------------
 Temperature   298.150 Kelvin.  Pressure   1.00000 Atm.
 Atom     1 has atomic number  6 and mass  12.00000

 Molecular mass:   318.92074 amu.
 Principal axes and moments of inertia in atomic units:
                           1         2         3
     Eigenvalues --  2790.662818655.166529344.25493
           X            0.99975  -0.00936  -0.02051
           Y            0.01115   0.99598   0.08886
           Z            0.01960  -0.08907   0.99583
 This molecule is an asymmetric top.
 Rotational symmetry number  1.
 Warning -- assumption of classical behavior for rotation
           may cause significant error
 Rotational temperatures (Kelvin)      0.03104     0.01001     0.00927
 Rotational constants (GHZ):           0.64671     0.20852     0.19314
    1 imaginary frequencies ignored.
 Zero-point vibrational energy     502324.5 (Joules/Mol)
                                  120.05845 (Kcal/Mol)
 Warning -- explicit consideration of  19 degrees of freedom as
           vibrations may cause significant error
 Vibrational temperatures:     52.33    53.56    94.75   128.98   155.55
          (Kelvin)            183.42   204.87   234.93   245.50   283.59
                              337.88   375.98   405.34   447.09   566.19
                              604.94   650.53   700.22   798.32   913.63
                              930.37   959.68  1018.40  1037.32  1083.42
                             1100.43  1200.79  1267.63  1328.73  1396.56
                             1401.03  1465.32  1471.49  1476.13  1489.69
                             1520.02  1572.77  1576.09  1604.34  1703.98
                             1708.76  1731.80  1791.93  1881.19  1924.32
                             1932.07  1951.01  2090.33  2116.78  2141.54
                             2150.87  2169.11  2216.19  2350.89  2368.62
                             2404.65  2416.64  4381.70  4482.22  4547.30
                             4599.00  4609.47  4620.75  4631.71  4639.99
                             4658.18  5065.07  5207.65

 Zero-point correction=                           0.191325 (Hartree/Particle)
 Thermal correction to Energy=                    0.205853
 Thermal correction to Enthalpy=                  0.206798
 Thermal correction to Gibbs Free Energy=         0.146943
 Sum of electronic and zero-point Energies=          -5665.871756
 Sum of electronic and thermal Energies=             -5665.857228
 Sum of electronic and thermal Enthalpies=           -5665.856284
 Sum of electronic and thermal Free Energies=        -5665.916138

                     E (Thermal)             CV                S
                      KCal/Mol        Cal/Mol-Kelvin    Cal/Mol-Kelvin
 Total                  129.175             51.575            125.974
 Electronic               0.000              0.000              0.000
 Translational            0.889              2.981             43.175
 Rotational               0.889              2.981             33.778
 Vibrational            127.397             45.613             49.021
 Vibration     1          0.594              1.982              5.448
 Vibration     2          0.594              1.982              5.401
 Vibration     3          0.597              1.971              4.274
 Vibration     4          0.602              1.956              3.668
 Vibration     5          0.606              1.943              3.303
 Vibration     6          0.611              1.926              2.984
 Vibration     7          0.616              1.911              2.771
 Vibration     8          0.623              1.888              2.511
 Vibration     9          0.626              1.879              2.429
 Vibration    10          0.636              1.844              2.160
 Vibration    11          0.655              1.788              1.842
 Vibration    12          0.669              1.744              1.653
 Vibration    13          0.681              1.707              1.523
 Vibration    14          0.700              1.653              1.358
 Vibration    15          0.761              1.484              0.987
 Vibration    16          0.783              1.426              0.890
 Vibration    17          0.811              1.356              0.789
 Vibration    18          0.843              1.280              0.692
 Vibration    19          0.910              1.129              0.534

 Optimization completed.
    -- Stationary point found.
 Normal termination of Gaussian 16 at Mon Feb 22 10:14:44 2021.
