 Gaussian 16, Revision A.03,
 Gaussian 16:  ES64L-G16RevA.03 25-Dec-2016

 ----------------------------------------------------------------------
 # wB97XD def2tzvp, opt=(ts, noeigen, calcfc, maxcycles=70, maxstep=8),
  freq=noraman, scrf=(iefpcm, solvent=water)
 ----------------------------------------------------------------------

 -----------------------
 1_iteration/TS-76-1.out
 -----------------------
 Symbolic Z-matrix:
 Charge =  0 Multiplicity = 1

 SCF Done:  E(RwB97XD) =  -1093.01232646     A.U. after   15 cycles
 Optimization completed.
    -- Stationary point found.
 Normal termination of Gaussian 16 at Sun Jan 31 05:46:24 2021.

 ---------------------------------------------------------------------
 #N Geom=AllCheck Guess=TCheck SCRF=Check GenChk RwB97XD/def2TZVP Freq
 ---------------------------------------------------------------------

 Structure from the checkpoint file:  "/beegfs/scratch/user/q/tla25/Gau-2912.chk"
 -----------------------
 1_iteration/TS-76-1.out
 -----------------------
 Charge =  0 Multiplicity = 1

                         Standard orientation:
 ---------------------------------------------------------------------
 Center     Atomic      Atomic             Coordinates (Angstroms)
 Number     Number       Type             X           Y           Z
 ---------------------------------------------------------------------
      1          6           0       -1.073640   -0.310591    0.014680
      2          6           0       -2.365580    0.161579    0.397310
      3          8           0       -2.573660    1.263969    0.898360
      4          6           0        0.035800    0.511710    0.231530
      5          6           0        1.155050    2.867900   -0.934730
      6          1           0        1.040150    3.296460    0.060150
      7          1           0        2.139800    2.410920   -1.008800
      8          1           0        1.069090    3.660970   -1.677740
      9          7           0        0.135830    1.837900   -1.125040
     10          1           0       -0.800650    2.224399   -1.088900
     11          1           0        0.239230    1.359470   -2.012170
     12          6           0        1.439270    0.016440    0.280250
     13          6           0        2.075890   -0.576860   -0.807300
     14          6           0        3.387150   -1.012360   -0.702840
     15          6           0        4.079930   -0.867750    0.491290
     16          6           0        3.456490   -0.273570    1.577950
     17          6           0        2.148270    0.173480    1.467990
     18          1           0        1.551280   -0.695790   -1.745830
     19          1           0        3.869890   -1.466610   -1.558730
     20          1           0        5.103610   -1.210700    0.571000
     21          1           0        3.990540   -0.148020    2.511160
     22          1           0        1.669710    0.649040    2.315800
     23          1           0       -0.170860    1.250129    0.999090
     24         17           0       -0.943370   -1.803981   -0.897650
     25          8           0       -3.373050   -0.706911    0.171300
     26          6           0       -4.673940   -0.267981    0.539310
     27          1           0       -5.346400   -1.079111    0.271300
     28          1           0       -4.733850   -0.074941    1.610700
     29          1           0       -4.949480    0.637719   -0.001670
 ---------------------------------------------------------------------

 SCF Done:  E(RwB97XD) =  -1093.01232646     A.U. after    1 cycles

 The electronic state is 1-A.
 Alpha  occ. eigenvalues -- -101.68447 -19.28297 -19.21228 -14.48626 -10.39841
 Alpha  occ. eigenvalues --  -10.34665 -10.32657 -10.31903 -10.30844 -10.30560
 Alpha  occ. eigenvalues --  -10.29563 -10.29522 -10.29386 -10.29350 -10.29298
 Alpha  occ. eigenvalues --   -9.56972  -7.31602  -7.30759  -7.30753  -1.19670
 Alpha  occ. eigenvalues --   -1.09879  -1.04152  -0.97767  -0.95635  -0.88746
 Alpha  occ. eigenvalues --   -0.85604  -0.84028  -0.81711  -0.78791  -0.73587
 Alpha  occ. eigenvalues --   -0.71114  -0.68307  -0.64127  -0.63654  -0.60459
 Alpha  occ. eigenvalues --   -0.59931  -0.57080  -0.56830  -0.56090  -0.55242
 Alpha  occ. eigenvalues --   -0.54954  -0.53237  -0.51764  -0.51377  -0.50011
 Alpha  occ. eigenvalues --   -0.48728  -0.48158  -0.47615  -0.46427  -0.44618
 Alpha  occ. eigenvalues --   -0.43887  -0.43216  -0.43071  -0.41038  -0.39698
 Alpha  occ. eigenvalues --   -0.38051  -0.35180  -0.34099  -0.33789  -0.26783
 Alpha virt. eigenvalues --    0.02795   0.04893   0.08253   0.09989   0.12131
 Alpha virt. eigenvalues --    0.13357   0.13543   0.13858   0.15305   0.16643
 Alpha virt. eigenvalues --    0.16836   0.17071   0.17626   0.18494   0.18711

 Mulliken charges:
               1
     1  C   -0.164426
     2  C    0.398474
     3  O   -0.528047
     4  C   -0.109507
     5  C   -0.281194
     6  H    0.153076
     7  H    0.157813
     8  H    0.157739
     9  N   -0.317257
    10  H    0.285977
    11  H    0.281208
    12  C    0.272718
    13  C   -0.296761
    14  C   -0.128967
    15  C   -0.148999
    16  C   -0.140546
    17  C   -0.219764
    18  H    0.154983
    19  H    0.145898
    20  H    0.146766
    21  H    0.145405
    22  H    0.144748
    23  H    0.167018
    24  Cl  -0.168359
    25  O   -0.307600
    26  C   -0.191616
    27  H    0.138130
    28  H    0.127080
    29  H    0.126007
 Sum of Mulliken charges =  -0.00000

 Dipole moment (field-independent basis, Debye):
    X=              4.8076    Y=              5.0030    Z=             -3.1916  Tot=              7.6373
 Quadrupole moment (field-independent basis, Debye-Ang):
   XX=            -86.6477   YY=            -93.7087   ZZ=            -87.8668
   XY=              2.0825   XZ=              2.0757   YZ=             -7.3852

  Exact polarizability: 276.246  -1.626 194.996  -5.487  14.346 194.699
 Approx polarizability: 200.334  -5.517 165.359  -2.526  15.490 171.071

 ******    1 imaginary frequencies (negative Signs) ******

                      1                      2                      3
                      A                      A                      A
 Frequencies --   -346.3473                37.9555                51.1942
 Red. masses --      6.4039                 5.3601                 4.8635
 Frc consts  --      0.4526                 0.0045                 0.0075
 IR Inten    --    916.3532                 0.5803                 1.7926

                      4                      5                      6
                      A                      A                      A
 Frequencies --     67.2025                81.3572                93.6040
 Red. masses --      3.4794                 3.0519                 4.0907
 Frc consts  --      0.0093                 0.0119                 0.0211
 IR Inten    --      5.3766                 5.0428                 2.6464

                      7                      8                      9
                      A                      A                      A
 Frequencies --    107.9736               129.7721               143.0788
 Red. masses --      3.1850                 2.1100                 2.5648
 Frc consts  --      0.0219                 0.0209                 0.0309
 IR Inten    --      8.9575                10.9863                 6.2062

                     10                     11                     12
                      A                      A                      A
 Frequencies --    166.0845               184.7342               204.6799
 Red. masses --      1.4876                 2.1494                 2.5549
 Frc consts  --      0.0242                 0.0432                 0.0631
 IR Inten    --      1.4990                 1.7808                 8.0351

                     13                     14                     15
                      A                      A                      A
 Frequencies --    240.5860               248.0888               273.1602
 Red. masses --      4.1079                 4.1986                 5.4027
 Frc consts  --      0.1401                 0.1523                 0.2375
 IR Inten    --     13.6183                 6.2032                22.6401

                     16                     17                     18
                      A                      A                      A
 Frequencies --    336.9431               351.9055               423.2678
 Red. masses --      4.3473                 4.4226                 3.4442
 Frc consts  --      0.2908                 0.3227                 0.3636
 IR Inten    --     29.8333                 0.7662                25.0407

                     19                     20                     21
                      A                      A                      A
 Frequencies --    436.0705               467.0361               559.4479
 Red. masses --      4.3858                14.8061                 2.8360
 Frc consts  --      0.4914                 1.9028                 0.5230
 IR Inten    --     57.2484                11.6655               168.8520

                     22                     23                     24
                      A                      A                      A
 Frequencies --    591.7865               633.9054               658.9864
 Red. masses --      3.5683                 5.6971                 2.3888
 Frc consts  --      0.7363                 1.3488                 0.6112
 IR Inten    --     13.9641                 8.7433                43.2213

                     25                     26                     27
                      A                      A                      A
 Frequencies --    730.7149               737.5161               757.9179
 Red. masses --      2.0492                 2.1243                 4.9662
 Frc consts  --      0.6446                 0.6808                 1.6808
 IR Inten    --     45.6072               101.8286                15.9356

                     28                     29                     30
                      A                      A                      A
 Frequencies --    784.6639               801.6939               863.1298
 Red. masses --     10.1481                 2.1720                 4.0717
 Frc consts  --      3.6813                 0.8225                 1.7872
 IR Inten    --     58.2226                20.6770                22.1610

                     31                     32                     33
                      A                      A                      A
 Frequencies --    888.2736               969.9988               993.5505
 Red. masses --      1.2520                 1.4709                 3.5055
 Frc consts  --      0.5820                 0.8154                 2.0389
 IR Inten    --      0.8686                 4.4519                 1.9550

                     34                     35                     36
                      A                      A                      A
 Frequencies --   1015.8411              1024.2656              1027.7288
 Red. masses --      1.2008                 1.3497                 5.2087
 Frc consts  --      0.7301                 0.8343                 3.2414
 IR Inten    --      9.9908                 4.6658                 2.6936

                     37                     38                     39
                      A                      A                      A
 Frequencies --   1040.1293              1045.8151              1065.6452
 Red. masses --      1.2846                 1.2321                 2.2273
 Frc consts  --      0.8188                 0.7940                 1.4902
 IR Inten    --     16.3422                37.9485                29.8273

                     40                     41                     42
                      A                      A                      A
 Frequencies --   1077.4017              1110.9298              1127.3612
 Red. masses --      3.5155                 3.7638                 1.9612
 Frc consts  --      2.4043                 2.7368                 1.4686
 IR Inten    --    209.9900               171.5953               117.4721

                     43                     44                     45
                      A                      A                      A
 Frequencies --   1181.7648              1185.7353              1196.6466
 Red. masses --      1.2808                 1.1445                 1.1969
 Frc consts  --      1.0539                 0.9480                 1.0098
 IR Inten    --      1.7679                 2.5090               189.0927

                     46                     47                     48
                      A                      A                      A
 Frequencies --   1214.5315              1219.6804              1226.0734
 Red. masses --      1.6626                 1.1629                 1.5018
 Frc consts  --      1.4449                 1.0192                 1.3301
 IR Inten    --     79.9775                 6.5664                45.6626

                     49                     50                     51
                      A                      A                      A
 Frequencies --   1239.1606              1267.2514              1329.5475
 Red. masses --      2.2395                 1.4732                 5.7870
 Frc consts  --      2.0261                 1.3939                 6.0271
 IR Inten    --     11.4744                89.0317               954.8953

                     52                     53                     54
                      A                      A                      A
 Frequencies --   1333.8065              1347.9242              1374.5440
 Red. masses --      3.9542                 1.3603                 1.3745
 Frc consts  --      4.1447                 1.4562                 1.5301
 IR Inten    --     11.1855                26.1577                38.8482

                     55                     56                     57
                      A                      A                      A
 Frequencies --   1457.4196              1470.0810              1480.9940
 Red. masses --      1.6425                 1.6506                 1.2051
 Frc consts  --      2.0556                 2.1018                 1.5573
 IR Inten    --    238.2484               173.5678               181.4564

                     58                     59                     60
                      A                      A                      A
 Frequencies --   1481.4804              1491.5713              1497.0295
 Red. masses --      1.0884                 1.0413                 1.1173
 Frc consts  --      1.4075                 1.3650                 1.4752
 IR Inten    --     64.7824                19.3814                10.2522

                     61                     62                     63
                      A                      A                      A
 Frequencies --   1504.2945              1508.1146              1553.8878
 Red. masses --      1.3579                 1.5095                 2.4882
 Frc consts  --      1.8105                 2.0228                 3.5398
 IR Inten    --     83.2264                73.6066                 8.2239

                     64                     65                     66
                      A                      A                      A
 Frequencies --   1646.2380              1654.8101              1668.8856
 Red. masses --      1.1564                 5.1633                 7.6767
 Frc consts  --      1.8464                 8.3306                12.5973
 IR Inten    --     94.7998                52.6950               538.4338

                     67                     68                     69
                      A                      A                      A
 Frequencies --   1679.7537              3060.9234              3069.0207
 Red. masses --      5.7682                 1.0310                 1.0336
 Frc consts  --      9.5891                 5.6911                 5.7357
 IR Inten    --      0.2443                66.6562                44.5603

                     70                     71                     72
                      A                      A                      A
 Frequencies --   3135.8090              3147.4283              3167.3651
 Red. masses --      1.1067                 1.1053                 1.1050
 Frc consts  --      6.4117                 6.4514                 6.5312
 IR Inten    --     39.5056                17.4786                12.9328

                     73                     74                     75
                      A                      A                      A
 Frequencies --   3170.8809              3174.8584              3193.7987
 Red. masses --      1.1051                 1.0884                 1.0874
 Frc consts  --      6.5467                 6.4640                 6.5349
 IR Inten    --     26.8094                 3.0820                 4.6415

                     76                     77                     78
                      A                      A                      A
 Frequencies --   3201.0156              3210.7062              3221.3593
 Red. masses --      1.0884                 1.0924                 1.0963
 Frc consts  --      6.5705                 6.6350                 6.7026
 IR Inten    --      0.7402                23.7240                29.6231

                     79                     80                     81
                      A                      A                      A
 Frequencies --   3230.7495              3528.0891              3609.7807
 Red. masses --      1.0951                 1.0509                 1.0963
 Frc consts  --      6.7345                 7.7073                 8.4165
 IR Inten    --      6.7080                23.2143                48.8729

 - Thermochemistry -
 -------------------
 Temperature   298.150 Kelvin.  Pressure   1.00000 Atm.
 Atom     1 has atomic number  6 and mass  12.00000

 Molecular mass:   227.07131 amu.
 Principal axes and moments of inertia in atomic units:
                           1         2         3
     Eigenvalues --  1961.152255772.223346454.98937
           X            0.99999  -0.00028  -0.00434
           Y            0.00004   0.99856  -0.05364
           Z            0.00435   0.05363   0.99855
 This molecule is an asymmetric top.
 Rotational symmetry number  1.
 Warning -- assumption of classical behavior for rotation
           may cause significant error
 Rotational temperatures (Kelvin)      0.04416     0.01501     0.01342
 Rotational constants (GHZ):           0.92025     0.31266     0.27959
    1 imaginary frequencies ignored.
 Zero-point vibrational energy     621366.8 (Joules/Mol)
                                  148.51022 (Kcal/Mol)
 Warning -- explicit consideration of  21 degrees of freedom as
           vibrations may cause significant error
 Vibrational temperatures:     54.61    73.66    96.69   117.05   134.68
          (Kelvin)            155.35   186.71   205.86   238.96   265.79
                              294.49   346.15   356.94   393.02   484.79
                              506.31   608.99   627.41   671.96   804.92
                              851.45   912.05   948.13  1051.34  1061.12
                             1090.47  1128.96  1153.46  1241.85  1278.03
                             1395.61  1429.50  1461.57  1473.69  1478.67
                             1496.51  1504.69  1533.23  1550.14  1598.38
                             1622.02  1700.30  1706.01  1721.71  1747.44
                             1754.85  1764.05  1782.88  1823.29  1912.92
                             1919.05  1939.36  1977.66  2096.90  2115.12
                             2130.82  2131.52  2146.04  2153.89  2164.34
                             2169.84  2235.70  2368.57  2380.90  2401.15
                             2416.79  4403.99  4415.64  4511.73  4528.45
                             4557.13  4562.19  4567.91  4595.16  4605.55
                             4619.49  4634.82  4648.33  5076.13  5193.67

 Zero-point correction=                           0.236666 (Hartree/Particle)
 Thermal correction to Energy=                    0.252064
 Thermal correction to Enthalpy=                  0.253008
 Thermal correction to Gibbs Free Energy=         0.192606
 Sum of electronic and zero-point Energies=          -1092.775660
 Sum of electronic and thermal Energies=             -1092.760263
 Sum of electronic and thermal Enthalpies=           -1092.759319
 Sum of electronic and thermal Free Energies=        -1092.819720

                     E (Thermal)             CV                S
                      KCal/Mol        Cal/Mol-Kelvin    Cal/Mol-Kelvin
 Total                  158.172             55.008            127.126
 Electronic               0.000              0.000              0.000
 Translational            0.889              2.981             42.163
 Rotational               0.889              2.981             32.658
 Vibrational            156.395             49.046             52.306
 Vibration     1          0.594              1.982              5.363
 Vibration     2          0.595              1.977              4.771
 Vibration     3          0.598              1.970              4.234
 Vibration     4          0.600              1.962              3.858
 Vibration     5          0.603              1.954              3.583
 Vibration     6          0.606              1.943              3.305
 Vibration     7          0.612              1.924              2.949
 Vibration     8          0.616              1.910              2.762
 Vibration     9          0.624              1.884              2.479
 Vibration    10          0.631              1.861              2.280
 Vibration    11          0.640              1.833              2.091
 Vibration    12          0.658              1.778              1.799
 Vibration    13          0.662              1.766              1.744
 Vibration    14          0.676              1.723              1.576
 Vibration    15          0.718              1.602              1.227
 Vibration    16          0.728              1.571              1.158
 Vibration    17          0.785              1.420              0.881
 Vibration    18          0.797              1.392              0.839
 Vibration    19          0.824              1.323              0.746
 Vibration    20          0.915              1.119              0.525
 Vibration    21          0.949              1.049              0.464

 Optimization completed.
    -- Stationary point found.
 Normal termination of Gaussian 16 at Sun Jan 31 06:38:45 2021.
