 Gaussian 16, Revision A.03,
 Gaussian 16:  ES64L-G16RevA.03 25-Dec-2016

 ----------------------------------------------------------------------
 # wB97XD def2tzvp, opt=(ts, noeigen, calcfc, maxcycles=70, maxstep=5),
  freq=noraman, scrf=(iefpcm, solvent=water)
 ----------------------------------------------------------------------

 ------------------------
 2_iteration/TS-712-2.out
 ------------------------
 Symbolic Z-matrix:
 Charge =  0 Multiplicity = 1

 SCF Done:  E(RwB97XD) =  -5705.38113969     A.U. after   15 cycles
 Optimization completed.
    -- Stationary point found.
 Normal termination of Gaussian 16 at Mon Feb 22 12:51:36 2021.

 ---------------------------------------------------------------------
 #N Geom=AllCheck Guess=TCheck SCRF=Check GenChk RwB97XD/def2TZVP Freq
 ---------------------------------------------------------------------

 Structure from the checkpoint file:  "/beegfs/scratch/user/q/tla25/Gau-11923.chk"
 ------------------------
 2_iteration/TS-712-2.out
 ------------------------
 Charge =  0 Multiplicity = 1

                         Standard orientation:
 ---------------------------------------------------------------------
 Center     Atomic      Atomic             Coordinates (Angstroms)
 Number     Number       Type             X           Y           Z
 ---------------------------------------------------------------------
      1          6           0        0.223228    0.686260   -0.011740
      2          6           0       -1.066111    1.273790    0.250110
      3          8           0       -1.213061    2.449740    0.577520
      4          6           0        0.577598   -0.659170    0.035830
      5          6           0        1.929188   -2.178350    2.309850
      6          1           0        2.448878   -2.081900    3.264510
      7          1           0        1.105998   -2.879510    2.428460
      8          1           0        2.625138   -2.566290    1.567240
      9          7           0        1.411458   -0.892080    1.851700
     10          1           0        0.668528   -0.551310    2.451570
     11          1           0        2.138248   -0.185100    1.836220
     12         35           0        2.116368   -1.213390   -1.023100
     13          6           0       -0.399842   -1.798170    0.115660
     14          1           0       -1.157402   -1.618760    0.874650
     15          1           0       -0.892372   -1.931820   -0.845750
     16          1           0        0.129158   -2.717910    0.351480
     17         35           0        1.639379    1.976550   -0.062740
     18          6           0       -2.316272    0.469310    0.032590
     19          6           0       -2.637942   -0.003599   -1.233810
     20          6           0       -3.834652   -0.671809   -1.444930
     21          6           0       -4.708392   -0.882949   -0.387930
     22          6           0       -4.392172   -0.405689    0.877350
     23          6           0       -3.206602    0.281861    1.084080
     24          1           0       -1.946432    0.148210   -2.053950
     25          1           0       -4.082602   -1.032079   -2.435260
     26          1           0       -5.637332   -1.414689   -0.550080
     27          1           0       -5.073262   -0.565939    1.703480
     28          1           0       -2.961602    0.664221    2.067330
 ---------------------------------------------------------------------

 SCF Done:  E(RwB97XD) =  -5705.38113969     A.U. after    1 cycles

 The electronic state is 1-A.
 Alpha  occ. eigenvalues -- -483.13534-483.12439 -62.68382 -62.67271 -56.47499
 Alpha  occ. eigenvalues --  -56.47150 -56.47126 -56.46381 -56.46041 -56.46025
 Alpha  occ. eigenvalues --  -19.22333 -14.48328 -10.41469 -10.37459 -10.32222
 Alpha  occ. eigenvalues --  -10.31902 -10.30303 -10.29705 -10.29581 -10.29565
 Alpha  occ. eigenvalues --  -10.29444 -10.29409 -10.29359  -8.82490  -8.81382
 Alpha  occ. eigenvalues --   -6.64642  -6.63533  -6.63512  -6.63457  -6.62425
 Alpha  occ. eigenvalues --   -6.62375  -2.75028  -2.74724  -2.74665  -2.73906
 Alpha  occ. eigenvalues --   -2.73767  -2.73766  -2.73595  -2.73556  -2.72676
 Alpha  occ. eigenvalues --   -2.72676  -1.13374  -1.03915  -0.97315  -0.96001
 Alpha  occ. eigenvalues --   -0.89451  -0.87310  -0.85642  -0.84726  -0.80136
 Alpha  occ. eigenvalues --   -0.78907  -0.73293  -0.71023  -0.68806  -0.63476
 Alpha  occ. eigenvalues --   -0.63076  -0.59795  -0.57717  -0.56564  -0.55759
 Alpha  occ. eigenvalues --   -0.55137  -0.54978  -0.53316  -0.51576  -0.51466
 Alpha  occ. eigenvalues --   -0.50345  -0.48674  -0.48040  -0.47976  -0.46161
 Alpha  occ. eigenvalues --   -0.44956  -0.44150  -0.43711  -0.42892  -0.39865
 Alpha  occ. eigenvalues --   -0.38448  -0.37708  -0.35849  -0.34930  -0.34137
 Alpha  occ. eigenvalues --   -0.32453  -0.28827
 Alpha virt. eigenvalues --    0.00288   0.04229   0.04708   0.05659   0.09523
 Alpha virt. eigenvalues --    0.09976   0.12661   0.13394   0.13659   0.14741
 Alpha virt. eigenvalues --    0.15415   0.16797   0.17205   0.18203   0.18493

 Mulliken charges:
               1
     1  C   -0.140016
     2  C    0.184983
     3  O   -0.448545
     4  C    0.089190
     5  C   -0.291742
     6  H    0.158225
     7  H    0.161348
     8  H    0.151608
     9  N   -0.355647
    10  H    0.283838
    11  H    0.279987
    12  Br  -0.081447
    13  C   -0.410014
    14  H    0.168651
    15  H    0.175234
    16  H    0.174323
    17  Br  -0.141270
    18  C    0.178059
    19  C   -0.284485
    20  C   -0.110928
    21  C   -0.145823
    22  C   -0.136468
    23  C   -0.205235
    24  H    0.162342
    25  H    0.146874
    26  H    0.147225
    27  H    0.145878
    28  H    0.143851
 Sum of Mulliken charges =  -0.00000

 Dipole moment (field-independent basis, Debye):
    X=              0.8478    Y=             -9.4925    Z=              4.5353  Tot=             10.5544
 Quadrupole moment (field-independent basis, Debye-Ang):
   XX=           -105.6841   YY=           -126.6035   ZZ=            -98.7363
   XY=              5.9974   XZ=              8.6992   YZ=             -7.2346

  Exact polarizability: 297.461  -0.209 253.422  -2.888   2.802 238.119
 Approx polarizability: 225.545   4.232 207.647  -6.326   6.589 205.156

 ******    1 imaginary frequencies (negative Signs) ******

                      1                      2                      3
                      A                      A                      A
 Frequencies --   -351.4771                24.1527                54.8613
 Red. masses --      6.1948                 4.9347                 9.6722
 Frc consts  --      0.4509                 0.0017                 0.0172
 IR Inten    --    806.9738                 1.8543                 0.2946

                      4                      5                      6
                      A                      A                      A
 Frequencies --     56.9967                69.6722                88.7847
 Red. masses --      4.6498                 2.9452                 2.7297
 Frc consts  --      0.0089                 0.0084                 0.0127
 IR Inten    --      0.0901                 0.4047                 6.2130

                      7                      8                      9
                      A                      A                      A
 Frequencies --    102.9022               136.6601               154.5996
 Red. masses --      4.7540                15.8912                 2.3327
 Frc consts  --      0.0297                 0.1749                 0.0328
 IR Inten    --      7.3905                 2.6837                 6.2876

                     10                     11                     12
                      A                      A                      A
 Frequencies --    190.2102               201.8837               217.3708
 Red. masses --      7.1030                 1.8738                 5.4149
 Frc consts  --      0.1514                 0.0450                 0.1507
 IR Inten    --      1.5877                 0.9055                 2.0032

                     13                     14                     15
                      A                      A                      A
 Frequencies --    240.9375               261.1029               313.0335
 Red. masses --      3.4838                 2.9400                 4.4950
 Frc consts  --      0.1192                 0.1181                 0.2595
 IR Inten    --      9.9288                11.4392                 6.1321

                     16                     17                     18
                      A                      A                      A
 Frequencies --    319.9124               355.7879               373.3194
 Red. masses --      3.6089                 2.0894                 1.6207
 Frc consts  --      0.2176                 0.1558                 0.1331
 IR Inten    --      2.7673                 2.3709                 2.1152

                     19                     20                     21
                      A                      A                      A
 Frequencies --    389.9655               421.5463               437.4228
 Red. masses --      4.7467                 2.7277                 5.0388
 Frc consts  --      0.4253                 0.2856                 0.5680
 IR Inten    --     13.1854                 0.9562                20.2963

                     22                     23                     24
                      A                      A                      A
 Frequencies --    490.9279               562.2565               634.4874
 Red. masses --      4.8750                 3.8564                 6.4190
 Frc consts  --      0.6922                 0.7183                 1.5225
 IR Inten    --    112.3664                11.9813                 0.4435

                     25                     26                     27
                      A                      A                      A
 Frequencies --    638.8638               653.8681               725.0688
 Red. masses --      2.1067                 2.4530                 2.3501
 Frc consts  --      0.5066                 0.6179                 0.7279
 IR Inten    --     48.8916               137.0660               153.9581

                     28                     29                     30
                      A                      A                      A
 Frequencies --    730.1448               761.7673               800.1702
 Red. masses --      1.9537                 4.8303                 4.9381
 Frc consts  --      0.6137                 1.6515                 1.8628
 IR Inten    --     23.0202                60.5964                65.8886

                     31                     32                     33
                      A                      A                      A
 Frequencies --    836.5747               881.0197               964.8900
 Red. masses --      3.3122                 1.2513                 1.4895
 Frc consts  --      1.3658                 0.5722                 0.8170
 IR Inten    --     77.7617                 0.3910                21.1816

                     34                     35                     36
                      A                      A                      A
 Frequencies --   1002.0196              1014.5639              1018.6309
 Red. masses --      1.6712                 1.3797                 1.3591
 Frc consts  --      0.9886                 0.8368                 0.8309
 IR Inten    --     37.3320                 6.9745               118.8694

                     37                     38                     39
                      A                      A                      A
 Frequencies --   1026.0075              1033.2881              1034.7312
 Red. masses --      6.0080                 1.3194                 1.3293
 Frc consts  --      3.7263                 0.8300                 0.8385
 IR Inten    --      3.1871                21.4907                97.9531

                     40                     41                     42
                      A                      A                      A
 Frequencies --   1056.0056              1064.0161              1074.5460
 Red. masses --      2.2170                 1.8715                 2.5449
 Frc consts  --      1.4566                 1.2484                 1.7313
 IR Inten    --     67.0566                53.9498                65.3751

                     43                     44                     45
                      A                      A                      A
 Frequencies --   1108.1690              1111.7546              1166.2929
 Red. masses --      1.7847                 1.5662                 4.2012
 Frc consts  --      1.2913                 1.1406                 3.3670
 IR Inten    --     53.1786                34.7488               129.1784

                     46                     47                     48
                      A                      A                      A
 Frequencies --   1184.0834              1205.8304              1217.6564
 Red. masses --      1.1429                 1.1230                 1.3941
 Frc consts  --      0.9441                 0.9620                 1.2179
 IR Inten    --      0.1278                 3.2298                17.0237

                     49                     50                     51
                      A                      A                      A
 Frequencies --   1317.1042              1330.7357              1344.5539
 Red. masses --      4.4976                 5.8971                 1.3172
 Frc consts  --      4.5970                 6.1528                 1.4030
 IR Inten    --    232.5102               338.2538                 1.4052

                     52                     53                     54
                      A                      A                      A
 Frequencies --   1358.7086              1412.5014              1429.9392
 Red. masses --      1.4485                 2.4193                 1.5439
 Frc consts  --      1.5755                 2.8439                 1.8600
 IR Inten    --      4.7884               880.3467               271.8252

                     55                     56                     57
                      A                      A                      A
 Frequencies --   1459.6094              1484.7383              1489.9173
 Red. masses --      1.2357                 1.0750                 1.9345
 Frc consts  --      1.5511                 1.3962                 2.5302
 IR Inten    --     76.9109                22.0055                18.5247

                     58                     59                     60
                      A                      A                      A
 Frequencies --   1491.1505              1498.6371              1513.3600
 Red. masses --      1.1334                 1.0731                 1.0492
 Frc consts  --      1.4848                 1.4200                 1.4158
 IR Inten    --     42.0337                24.2370                31.8907

                     61                     62                     63
                      A                      A                      A
 Frequencies --   1540.2212              1644.7185              1647.7370
 Red. masses --      2.3240                 1.3884                 3.1732
 Frc consts  --      3.2482                 2.2129                 5.0760
 IR Inten    --      6.2915               275.1896                90.7127

                     64                     65                     66
                      A                      A                      A
 Frequencies --   1655.6285              1673.9397              3064.5828
 Red. masses --      7.5002                 5.8698                 1.0359
 Frc consts  --     12.1129                 9.6906                 5.7318
 IR Inten    --    338.3823                 1.2104                47.5229

                     67                     68                     69
                      A                      A                      A
 Frequencies --   3091.5181              3140.3167              3169.3281
 Red. masses --      1.0353                 1.1017                 1.1052
 Frc consts  --      5.8297                 6.4015                 6.5406
 IR Inten    --      5.3463                12.1726                13.3544

                     70                     71                     72
                      A                      A                      A
 Frequencies --   3172.9304              3182.0449              3194.5659
 Red. masses --      1.1023                 1.1038                 1.0865
 Frc consts  --      6.5384                 6.5850                 6.5331
 IR Inten    --      5.6439                 5.3610                 2.4567

                     73                     74                     75
                      A                      A                      A
 Frequencies --   3198.8502              3206.6979              3214.6042
 Red. masses --      1.0881                 1.0916                 1.0953
 Frc consts  --      6.5599                 6.6132                 6.6686
 IR Inten    --      0.2420                 7.3134                31.6812

                     76                     77                     78
                      A                      A                      A
 Frequencies --   3224.0909              3518.8077              3600.2709
 Red. masses --      1.0989                 1.0510                 1.0962
 Frc consts  --      6.7302                 7.6675                 8.3718
 IR Inten    --     18.8235                23.0655                45.6456

 - Thermochemistry -
 -------------------
 Temperature   298.150 Kelvin.  Pressure   1.00000 Atm.
 Atom     1 has atomic number  6 and mass  12.00000

 Molecular mass:   332.93639 amu.
 Principal axes and moments of inertia in atomic units:
                           1         2         3
     Eigenvalues --  3675.322277299.511178736.69408
           X            0.99961   0.00028   0.02805
           Y            0.00169   0.99754  -0.07011
           Z           -0.02800   0.07013   0.99714
 This molecule is an asymmetric top.
 Rotational symmetry number  1.
 Warning -- assumption of classical behavior for rotation
           may cause significant error
 Rotational temperatures (Kelvin)      0.02357     0.01187     0.00991
 Rotational constants (GHZ):           0.49104     0.24724     0.20657
    1 imaginary frequencies ignored.
 Zero-point vibrational energy     578278.2 (Joules/Mol)
                                  138.21181 (Kcal/Mol)
 Warning -- explicit consideration of  22 degrees of freedom as
           vibrations may cause significant error
 Vibrational temperatures:     34.75    78.93    82.01   100.24   127.74
          (Kelvin)            148.05   196.62   222.43   273.67   290.47
                              312.75   346.66   375.67   450.39   460.28
                              511.90   537.12   561.07   606.51   629.35
                              706.34   808.96   912.89   919.18   940.77
                             1043.21  1050.52  1096.01  1151.27  1203.64
                             1267.59  1388.26  1441.68  1459.73  1465.58
                             1476.20  1486.67  1488.75  1519.36  1530.88
                             1546.03  1594.41  1599.57  1678.04  1703.63
                             1734.92  1751.94  1895.02  1914.63  1934.51
                             1954.88  2032.27  2057.36  2100.05  2136.21
                             2143.66  2145.43  2156.20  2177.39  2216.03
                             2366.38  2370.73  2382.08  2408.43  4409.25
                             4448.01  4518.22  4559.96  4565.14  4578.25
                             4596.27  4602.43  4613.72  4625.10  4638.75
                             5062.78  5179.99

 Zero-point correction=                           0.220255 (Hartree/Particle)
 Thermal correction to Energy=                    0.236089
 Thermal correction to Enthalpy=                  0.237033
 Thermal correction to Gibbs Free Energy=         0.174467
 Sum of electronic and zero-point Energies=          -5705.160885
 Sum of electronic and thermal Energies=             -5705.145051
 Sum of electronic and thermal Enthalpies=           -5705.144106
 Sum of electronic and thermal Free Energies=        -5705.206672

                     E (Thermal)             CV                S
                      KCal/Mol        Cal/Mol-Kelvin    Cal/Mol-Kelvin
 Total                  148.148             56.826            131.681
 Electronic               0.000              0.000              0.000
 Translational            0.889              2.981             43.303
 Rotational               0.889              2.981             33.816
 Vibrational            146.371             50.865             54.562
 Vibration     1          0.593              1.985              6.260
 Vibration     2          0.596              1.976              4.634
 Vibration     3          0.596              1.975              4.559
 Vibration     4          0.598              1.969              4.163
 Vibration     5          0.602              1.957              3.687
 Vibration     6          0.605              1.947              3.399
 Vibration     7          0.614              1.917              2.850
 Vibration     8          0.620              1.898              2.615
 Vibration     9          0.634              1.853              2.226
 Vibration    10          0.639              1.837              2.116
 Vibration    11          0.646              1.815              1.981
 Vibration    12          0.658              1.778              1.796
 Vibration    13          0.669              1.744              1.654
 Vibration    14          0.701              1.649              1.346
 Vibration    15          0.706              1.635              1.311
 Vibration    16          0.731              1.563              1.140
 Vibration    17          0.745              1.527              1.066
 Vibration    18          0.758              1.492              1.000
 Vibration    19          0.784              1.423              0.887
 Vibration    20          0.798              1.389              0.835
 Vibration    21          0.847              1.270              0.681
 Vibration    22          0.918              1.113              0.519

 Optimization completed.
    -- Stationary point found.
 Normal termination of Gaussian 16 at Mon Feb 22 13:53:25 2021.
