 Gaussian 16, Revision A.03,
 Gaussian 16:  ES64L-G16RevA.03 25-Dec-2016

 ----------------------------------------------------------------------
 # wB97XD def2tzvp, opt=(ts, noeigen, calcfc, maxcycles=70, maxstep=3),
  freq=noraman, scrf=(iefpcm, solvent=water)
 ----------------------------------------------------------------------

 ------------------------
 0_iteration/TS-786-0.out
 ------------------------
 Symbolic Z-matrix:
 Charge =  0 Multiplicity = 1

 SCF Done:  E(RwB97XD) =  -5933.91116810     A.U. after   16 cycles
 SCF Done:  E(RwB97XD) =  -5933.91079138     A.U. after   12 cycles
 SCF Done:  E(RwB97XD) =  -5933.91046845     A.U. after   13 cycles
 SCF Done:  E(RwB97XD) =  -5933.91021676     A.U. after   13 cycles
 SCF Done:  E(RwB97XD) =  -5933.91008628     A.U. after   13 cycles
 SCF Done:  E(RwB97XD) =  -5933.91022235     A.U. after   13 cycles
 SCF Done:  E(RwB97XD) =  -5933.91072373     A.U. after   14 cycles
 SCF Done:  E(RwB97XD) =  -5933.91125545     A.U. after   13 cycles
 SCF Done:  E(RwB97XD) =  -5933.91180569     A.U. after   13 cycles
 SCF Done:  E(RwB97XD) =  -5933.91234574     A.U. after   12 cycles
 SCF Done:  E(RwB97XD) =  -5933.92442052     A.U. after   11 cycles
 SCF Done:  E(RwB97XD) =  -5933.92446518     A.U. after   11 cycles
 SCF Done:  E(RwB97XD) =  -5933.92447437     A.U. after   11 cycles
 SCF Done:  E(RwB97XD) =  -5933.92448163     A.U. after   11 cycles
 SCF Done:  E(RwB97XD) =  -5933.92443447     A.U. after   12 cycles
 SCF Done:  E(RwB97XD) =  -5933.92447273     A.U. after   12 cycles
 SCF Done:  E(RwB97XD) =  -5933.92448399     A.U. after   10 cycles
 SCF Done:  E(RwB97XD) =  -5933.92448470     A.U. after    9 cycles
 SCF Done:  E(RwB97XD) =  -5933.92448458     A.U. after    8 cycles
 Optimization completed.
    -- Stationary point found.
 Normal termination of Gaussian 16 at Mon Apr 12 07:21:24 2021.

 ---------------------------------------------------------------------
 #N Geom=AllCheck Guess=TCheck SCRF=Check GenChk RwB97XD/def2TZVP Freq
 ---------------------------------------------------------------------

 Structure from the checkpoint file:  "/beegfs/scratch/user/q/tla25/Gau-372226.chk"
 ------------------------
 0_iteration/TS-786-0.out
 ------------------------
 Charge =  0 Multiplicity = 1

                         Standard orientation:
 ---------------------------------------------------------------------
 Center     Atomic      Atomic             Coordinates (Angstroms)
 Number     Number       Type             X           Y           Z
 ---------------------------------------------------------------------
      1          6           0        0.798031    0.175591   -0.196885
      2          6           0        1.972923    1.027818   -0.237329
      3          8           0        3.095461    0.550935   -0.369165
      4          6           0       -0.538923    0.562647   -0.120237
      5          6           0       -0.426213    0.193344    2.666400
      6          1           0        0.647230    0.170867    2.482466
      7          1           0       -0.609457    0.560265    3.675517
      8          1           0       -0.829759   -0.812004    2.565961
      9          7           0       -1.048465    1.062159    1.674456
     10          1           0       -2.061521    1.047842    1.731185
     11          1           0       -0.745992    2.023644    1.786138
     12         35           0       -1.909848   -0.763956   -0.421043
     13         17           0       -1.042336    2.064773   -0.903382
     14         35           0        1.231193   -1.682390   -0.081766
     15          6           0        1.869456    2.532697   -0.088809
     16          1           0        1.114073    2.857200    0.623172
     17          1           0        2.844859    2.888483    0.235948
     18          1           0        1.637135    2.989512   -1.051289
 ---------------------------------------------------------------------

 SCF Done:  E(RwB97XD) =  -5933.92448458     A.U. after    1 cycles

 The electronic state is 1-A.
 Alpha  occ. eigenvalues -- -483.14911-483.12507-101.71949 -62.69756 -62.67339
 Alpha  occ. eigenvalues --  -56.48901 -56.48508 -56.48487 -56.46462 -56.46100
 Alpha  occ. eigenvalues --  -56.46087 -19.22024 -14.50330 -10.46199 -10.37523
 Alpha  occ. eigenvalues --  -10.32651 -10.32424 -10.28166  -9.60542  -8.83869
 Alpha  occ. eigenvalues --   -8.81454  -7.35229  -7.34294  -7.34264  -6.66107
 Alpha  occ. eigenvalues --   -6.64857  -6.64796  -6.63627  -6.62467  -6.62432
 Alpha  occ. eigenvalues --   -2.76479  -2.76131  -2.76083  -2.75072  -2.75071
 Alpha  occ. eigenvalues --   -2.74012  -2.73678  -2.73651  -2.72712  -2.72712
 Alpha  occ. eigenvalues --   -1.13279  -1.06151  -1.00338  -0.92446  -0.89425
 Alpha  occ. eigenvalues --   -0.84927  -0.80583  -0.79877  -0.71008  -0.64802
 Alpha  occ. eigenvalues --   -0.61324  -0.59013  -0.57500  -0.55885  -0.55239
 Alpha  occ. eigenvalues --   -0.52756  -0.50651  -0.49741  -0.48819  -0.48420
 Alpha  occ. eigenvalues --   -0.45754  -0.44999  -0.42372  -0.41165  -0.39662
 Alpha  occ. eigenvalues --   -0.39315  -0.38327  -0.35945  -0.33157  -0.29035
 Alpha virt. eigenvalues --    0.01745   0.02379   0.04901   0.09734   0.11572
 Alpha virt. eigenvalues --    0.13826   0.14077   0.14547   0.16136   0.18207
 Alpha virt. eigenvalues --    0.18618   0.19589   0.20612   0.21471   0.22734

 Mulliken charges:
               1
     1  C   -0.233503
     2  C    0.226948
     3  O   -0.460298
     4  C    0.133572
     5  C   -0.296434
     6  H    0.162595
     7  H    0.169904
     8  H    0.164290
     9  N   -0.317032
    10  H    0.299462
    11  H    0.286835
    12  Br  -0.023083
    13  Cl  -0.036058
    14  Br  -0.115595
    15  C   -0.370039
    16  H    0.115770
    17  H    0.135907
    18  H    0.156760
 Sum of Mulliken charges =  -0.00000

 Dipole moment (field-independent basis, Debye):
    X=             -7.7067    Y=              4.6924    Z=              6.3658  Tot=             11.0425
 Quadrupole moment (field-independent basis, Debye-Ang):
   XX=           -107.2313   YY=            -84.0597   ZZ=            -80.4291
   XY=              0.1456   XZ=             -2.8299   YZ=              5.1128

  Exact polarizability: 211.207  -2.169 186.127 -11.490  -0.816 148.831
 Approx polarizability: 169.696  -4.093 156.242  -7.349  -0.661 128.618

 ******    1 imaginary frequencies (negative Signs) ******

                      1                      2                      3
                      A                      A                      A
 Frequencies --   -361.9867                43.6465                62.2064
 Red. masses --      5.8743                 7.8626                 4.1821
 Frc consts  --      0.4535                 0.0088                 0.0095
 IR Inten    --    855.6724                 1.5199                 9.3551

                      4                      5                      6
                      A                      A                      A
 Frequencies --     73.1772               127.5566               150.8159
 Red. masses --      3.4013                 5.8350                 9.8673
 Frc consts  --      0.0107                 0.0559                 0.1322
 IR Inten    --      0.8776                 2.5208                 2.1403

                      7                      8                      9
                      A                      A                      A
 Frequencies --    177.1892               194.5411               208.5409
 Red. masses --      1.6795                 2.7437                 3.5485
 Frc consts  --      0.0311                 0.0612                 0.0909
 IR Inten    --      0.8620                 8.7673                 1.1692

                     10                     11                     12
                      A                      A                      A
 Frequencies --    220.4376               247.6474               249.6288
 Red. masses --      1.8907                 2.7545                 2.8633
 Frc consts  --      0.0541                 0.0995                 0.1051
 IR Inten    --      3.0159                 2.7130                 5.8120

                     13                     14                     15
                      A                      A                      A
 Frequencies --    275.8654               310.5817               357.2917
 Red. masses --      4.5117                 5.1658                 7.4625
 Frc consts  --      0.2023                 0.2936                 0.5613
 IR Inten    --      2.4274                20.4890                14.3059

                     16                     17                     18
                      A                      A                      A
 Frequencies --    395.7238               492.9549               584.7308
 Red. masses --      4.7410                 5.6895                 3.9285
 Frc consts  --      0.4374                 0.8146                 0.7914
 IR Inten    --      5.1427               107.6008                50.8208

                     19                     20                     21
                      A                      A                      A
 Frequencies --    628.7332               659.7610               756.8148
 Red. masses --      2.7109                 1.6162                 9.6318
 Frc consts  --      0.6314                 0.4145                 3.2504
 IR Inten    --     26.8921                27.6151               200.8649

                     22                     23                     24
                      A                      A                      A
 Frequencies --    820.9836               914.9739              1003.9026
 Red. masses --      3.6745                 5.0295                 1.0814
 Frc consts  --      1.4592                 2.4808                 0.6421
 IR Inten    --    134.5572                 7.2527                 6.3021

                     25                     26                     27
                      A                      A                      A
 Frequencies --   1024.3089              1041.8931              1049.8069
 Red. masses --      1.5198                 1.7670                 1.2500
 Frc consts  --      0.9395                 1.1301                 0.8117
 IR Inten    --    136.9682                 4.4556               112.0436

                     28                     29                     30
                      A                      A                      A
 Frequencies --   1080.2869              1231.4708              1281.9392
 Red. masses --      5.1289                 1.4032                 4.6563
 Frc consts  --      3.5266                 1.2537                 4.5085
 IR Inten    --     51.9394                25.0031               408.8975

                     31                     32                     33
                      A                      A                      A
 Frequencies --   1340.0848              1361.5029              1392.9154
 Red. masses --      1.3541                 7.7502                 1.2747
 Frc consts  --      1.4328                 8.4645                 1.4571
 IR Inten    --     23.0204              1228.0117                59.5364

                     34                     35                     36
                      A                      A                      A
 Frequencies --   1459.5427              1462.3055              1490.9592
 Red. masses --      1.0820                 1.1793                 1.0526
 Frc consts  --      1.3580                 1.4857                 1.3786
 IR Inten    --     10.0477                 6.3910                12.4714

                     37                     38                     39
                      A                      A                      A
 Frequencies --   1491.9755              1502.1883              1642.8110
 Red. masses --      1.0511                 1.0304                 1.0904
 Frc consts  --      1.3785                 1.3699                 1.7339
 IR Inten    --     32.2110                20.9400                83.1087

                     40                     41                     42
                      A                      A                      A
 Frequencies --   1674.2941              3074.4041              3077.9869
 Red. masses --     10.5522                 1.0326                 1.0365
 Frc consts  --     17.4283                 5.7503                 5.7856
 IR Inten    --    594.8342                18.5041                 8.3500

                     43                     44                     45
                      A                      A                      A
 Frequencies --   3155.6207              3155.7903              3172.9194
 Red. masses --      1.1053                 1.0998                 1.1063
 Frc consts  --      6.4850                 6.4534                 6.5618
 IR Inten    --      7.5088                11.1896                 6.4523

                     46                     47                     48
                      A                      A                      A
 Frequencies --   3173.3053              3517.0047              3600.3767
 Red. masses --      1.1040                 1.0507                 1.0967
 Frc consts  --      6.5503                 7.6575                 8.3756
 IR Inten    --     29.2710                68.7512                63.3847

 - Thermochemistry -
 -------------------
 Temperature   298.150 Kelvin.  Pressure   1.00000 Atm.
 Atom     1 has atomic number  6 and mass  12.00000

 Molecular mass:   290.86611 amu.
 Principal axes and moments of inertia in atomic units:
                           1         2         3
     Eigenvalues --  2725.816633361.506354630.30673
           X            0.99208   0.12266  -0.02707
           Y           -0.12239   0.99242   0.01145
           Z            0.02827  -0.00805   0.99957
 This molecule is an asymmetric top.
 Rotational symmetry number  1.
 Warning -- assumption of classical behavior for rotation
           may cause significant error
 Rotational temperatures (Kelvin)      0.03178     0.02577     0.01871
 Rotational constants (GHZ):           0.66209     0.53688     0.38977
    1 imaginary frequencies ignored.
 Zero-point vibrational energy     337427.1 (Joules/Mol)
                                   80.64700 (Kcal/Mol)
 Warning -- explicit consideration of  17 degrees of freedom as
           vibrations may cause significant error
 Vibrational temperatures:     62.80    89.50   105.29   183.53   216.99
          (Kelvin)            254.94   279.90   300.04   317.16   356.31
                              359.16   396.91   446.86   514.06   569.36
                              709.25   841.30   904.61   949.25  1088.89
                             1181.21  1316.44  1444.39  1473.75  1499.05
                             1510.44  1554.29  1771.81  1844.42  1928.08
                             1958.90  2004.09  2099.96  2103.93  2145.16
                             2146.62  2161.31  2363.64  2408.94  4423.38
                             4428.54  4540.23  4540.48  4565.12  4565.68
                             5060.19  5180.14

 Zero-point correction=                           0.128519 (Hartree/Particle)
 Thermal correction to Energy=                    0.140998
 Thermal correction to Enthalpy=                  0.141942
 Thermal correction to Gibbs Free Energy=         0.087611
 Sum of electronic and zero-point Energies=          -5933.795965
 Sum of electronic and thermal Energies=             -5933.783486
 Sum of electronic and thermal Enthalpies=           -5933.782542
 Sum of electronic and thermal Free Energies=        -5933.836874

                     E (Thermal)             CV                S
                      KCal/Mol        Cal/Mol-Kelvin    Cal/Mol-Kelvin
 Total                   88.478             41.904            114.351
 Electronic               0.000              0.000              0.000
 Translational            0.889              2.981             42.901
 Rotational               0.889              2.981             32.117
 Vibrational             86.700             35.942             39.333
 Vibration     1          0.595              1.980              5.086
 Vibration     2          0.597              1.972              4.386
 Vibration     3          0.599              1.967              4.066
 Vibration     4          0.611              1.926              2.983
 Vibration     5          0.618              1.902              2.662
 Vibration     6          0.628              1.870              2.358
 Vibration     7          0.635              1.847              2.184
 Vibration     8          0.642              1.828              2.056
 Vibration     9          0.647              1.810              1.955
 Vibration    10          0.661              1.767              1.747
 Vibration    11          0.662              1.763              1.733
 Vibration    12          0.678              1.718              1.559
 Vibration    13          0.699              1.654              1.359
 Vibration    14          0.732              1.560              1.134
 Vibration    15          0.762              1.479              0.978
 Vibration    16          0.849              1.266              0.676
 Vibration    17          0.942              1.064              0.477

 Optimization completed.
    -- Stationary point found.
 Normal termination of Gaussian 16 at Mon Apr 12 07:28:28 2021.
