 Gaussian 16, Revision A.03,
 Gaussian 16:  ES64L-G16RevA.03 25-Dec-2016

 ----------------------------------------------------------------------
 # wB97XD def2tzvp, opt=(ts, noeigen, calcfc, maxcycles=70, maxstep=5),
  freq=noraman, scrf=(iefpcm, solvent=water)
 ----------------------------------------------------------------------

 ------------------------
 2_iteration/TS-743-2.out
 ------------------------
 Symbolic Z-matrix:
 Charge =  0 Multiplicity = 1

 SCF Done:  E(RwB97XD) =  -5760.74376266     A.U. after   15 cycles
 Optimization completed.
    -- Stationary point found.
 Normal termination of Gaussian 16 at Mon Feb 22 13:46:55 2021.

 ---------------------------------------------------------------------
 #N Geom=AllCheck Guess=TCheck SCRF=Check GenChk RwB97XD/def2TZVP Freq
 ---------------------------------------------------------------------

 Structure from the checkpoint file:  "/beegfs/scratch/user/q/tla25/Gau-26898.chk"
 ------------------------
 2_iteration/TS-743-2.out
 ------------------------
 Charge =  0 Multiplicity = 1

                         Standard orientation:
 ---------------------------------------------------------------------
 Center     Atomic      Atomic             Coordinates (Angstroms)
 Number     Number       Type             X           Y           Z
 ---------------------------------------------------------------------
      1          6           0       -0.757818   -1.022271   -0.752601
      2          6           0        0.703182   -1.132341   -0.754051
      3          8           0        1.270022   -2.143950   -1.161511
      4          6           0       -1.450869   -0.049361   -0.068831
      5          6           0       -1.044498   -1.417271    2.327619
      6          1           0       -0.597938   -1.474391    3.319389
      7          1           0       -2.076998   -1.756062    2.373549
      8          1           0       -0.485988   -2.058171    1.645129
      9          7           0       -1.005089   -0.055661    1.811879
     10          1           0       -1.636819    0.570219    2.299369
     11          1           0       -0.067459    0.328009    1.862669
     12         35           0       -3.358418   -0.226132    0.041349
     13         35           0       -1.076579    1.918389   -0.308891
     14          6           0       -1.476468   -2.204801   -1.365471
     15          1           0       -1.806197   -2.935532   -0.620811
     16          1           0       -2.350038   -1.896192   -1.938341
     17          1           0       -0.789798   -2.713001   -2.038171
     18          7           0        1.436151   -0.085210   -0.225051
     19          6           0        2.830951   -0.023970   -0.086631
     20          6           0        3.617122   -1.140570    0.193649
     21          6           0        4.984212   -0.992729    0.373029
     22          6           0        5.587071    0.254021    0.287699
     23          6           0        4.802071    1.366311    0.019209
     24          6           0        3.437281    1.229910   -0.170021
     25          1           0        0.984811    0.815819   -0.227281
     26          1           0        3.158342   -2.114030    0.266169
     27          1           0        5.583382   -1.868749    0.588909
     28          1           0        6.654721    0.358112    0.430889
     29          1           0        5.252561    2.348551   -0.049301
     30          1           0        2.831291    2.102570   -0.385441
 ---------------------------------------------------------------------

 SCF Done:  E(RwB97XD) =  -5760.74376266     A.U. after    1 cycles

 The electronic state is 1-A.
 Alpha  occ. eigenvalues -- -483.14648-483.13872 -62.69487 -62.68714 -56.48621
 Alpha  occ. eigenvalues --  -56.48244 -56.48225 -56.47823 -56.47480 -56.47468
 Alpha  occ. eigenvalues --  -19.21038 -14.50031 -14.46264 -10.44188 -10.39102
 Alpha  occ. eigenvalues --  -10.33672 -10.32225 -10.29102 -10.28989 -10.28942
 Alpha  occ. eigenvalues --  -10.28523 -10.28426 -10.28131 -10.27231  -8.83596
 Alpha  occ. eigenvalues --   -8.82808  -6.65802  -6.64927  -6.64600  -6.64543
 Alpha  occ. eigenvalues --   -6.63846  -6.63810  -2.76183  -2.75843  -2.75799
 Alpha  occ. eigenvalues --   -2.75306  -2.75015  -2.74985  -2.74827  -2.74826
 Alpha  occ. eigenvalues --   -2.74113  -2.74111  -1.14120  -1.05458  -1.03947
 Alpha  occ. eigenvalues --   -0.96365  -0.95253  -0.87846  -0.87619  -0.85242
 Alpha  occ. eigenvalues --   -0.84254  -0.79644  -0.77462  -0.73287  -0.71551
 Alpha  occ. eigenvalues --   -0.68052  -0.65124  -0.64122  -0.62497  -0.59272
 Alpha  occ. eigenvalues --   -0.58035  -0.57649  -0.55374  -0.54049  -0.53069
 Alpha  occ. eigenvalues --   -0.51897  -0.51723  -0.50979  -0.50437  -0.49065
 Alpha  occ. eigenvalues --   -0.48619  -0.46716  -0.46441  -0.45781  -0.44936
 Alpha  occ. eigenvalues --   -0.44552  -0.43113  -0.40446  -0.39276  -0.38701
 Alpha  occ. eigenvalues --   -0.37945  -0.36689  -0.34746  -0.33452  -0.30732
 Alpha  occ. eigenvalues --   -0.27668
 Alpha virt. eigenvalues --    0.00887   0.03178   0.05288   0.05564   0.07332
 Alpha virt. eigenvalues --    0.10030   0.12937   0.13181   0.14607   0.14717
 Alpha virt. eigenvalues --    0.16196   0.16368   0.17088   0.17969   0.18406

 Mulliken charges:
               1
     1  C   -0.254895
     2  C    0.348209
     3  O   -0.506127
     4  C    0.099348
     5  C   -0.293781
     6  H    0.167599
     7  H    0.161724
     8  H    0.162124
     9  N   -0.309124
    10  H    0.298948
    11  H    0.285966
    12  Br  -0.033595
    13  Br  -0.122824
    14  C   -0.374095
    15  H    0.126962
    16  H    0.134058
    17  H    0.140291
    18  N   -0.288809
    19  C    0.292308
    20  C   -0.301933
    21  C   -0.093625
    22  C   -0.190117
    23  C   -0.101369
    24  C   -0.291309
    25  H    0.224429
    26  H    0.147355
    27  H    0.142474
    28  H    0.141444
    29  H    0.143485
    30  H    0.144879
 Sum of Mulliken charges =  -0.00000

 Dipole moment (field-independent basis, Debye):
    X=             -2.7732    Y=              3.0530    Z=              7.5002  Tot=              8.5595
 Quadrupole moment (field-independent basis, Debye-Ang):
   XX=           -118.8323   YY=           -123.4949   ZZ=           -114.9302
   XY=              8.9435   XZ=             -1.2605   YZ=             -7.4541

  Exact polarizability: 344.153  -3.079 289.958  -1.161   3.461 208.777
 Approx polarizability: 254.503  -3.459 242.192   0.005   4.200 179.625

 ******    1 imaginary frequencies (negative Signs) ******

                      1                      2                      3
                      A                      A                      A
 Frequencies --   -418.7949                19.0637                27.7525
 Red. masses --      5.7471                 3.9535                 6.4472
 Frc consts  --      0.5939                 0.0008                 0.0029
 IR Inten    --    567.2772                 0.9351                 1.2410

                      4                      5                      6
                      A                      A                      A
 Frequencies --     60.6918                76.0308                86.3107
 Red. masses --      6.3663                 2.6220                 6.4911
 Frc consts  --      0.0138                 0.0089                 0.0285
 IR Inten    --      3.7347                 0.4056                14.7594

                      7                      8                      9
                      A                      A                      A
 Frequencies --     97.0222               112.5300               133.7094
 Red. masses --      3.7367                 1.7810                 1.7870
 Frc consts  --      0.0207                 0.0133                 0.0188
 IR Inten    --      8.2255                 1.2235                 0.3011

                     10                     11                     12
                      A                      A                      A
 Frequencies --    149.4103               162.2756               166.2800
 Red. masses --      1.5833                 3.6542                 8.6715
 Frc consts  --      0.0208                 0.0567                 0.1413
 IR Inten    --      0.8316                 3.8615                 3.8599

                     13                     14                     15
                      A                      A                      A
 Frequencies --    179.5713               224.0374               245.1407
 Red. masses --      4.6499                 3.8117                 4.8096
 Frc consts  --      0.0883                 0.1127                 0.1703
 IR Inten    --      3.7185                16.1106                21.4174

                     16                     17                     18
                      A                      A                      A
 Frequencies --    263.2850               278.4579               315.7909
 Red. masses --      5.4970                 4.0855                 3.9360
 Frc consts  --      0.2245                 0.1866                 0.2313
 IR Inten    --     15.6669                14.4116                10.4798

                     19                     20                     21
                      A                      A                      A
 Frequencies --    359.4637               398.8718               418.5864
 Red. masses --      4.6604                 4.0125                 5.2810
 Frc consts  --      0.3548                 0.3761                 0.5452
 IR Inten    --     16.0324                12.9663                37.7486

                     22                     23                     24
                      A                      A                      A
 Frequencies --    424.8765               521.2969               538.8924
 Red. masses --      3.1717                 3.0659                 4.2387
 Frc consts  --      0.3373                 0.4909                 0.7252
 IR Inten    --      3.3219                10.3974                84.4025

                     25                     26                     27
                      A                      A                      A
 Frequencies --    577.4112               614.1263               634.7354
 Red. masses --      1.5693                 3.0291                 4.6007
 Frc consts  --      0.3083                 0.6731                 1.0921
 IR Inten    --     92.9797                90.4496                12.9800

                     28                     29                     30
                      A                      A                      A
 Frequencies --    650.7876               705.5039               718.4591
 Red. masses --      1.8973                 4.8614                 1.8442
 Frc consts  --      0.4734                 1.4256                 0.5609
 IR Inten    --     19.5499               167.9804                52.0836

                     31                     32                     33
                      A                      A                      A
 Frequencies --    757.0904               785.2930               788.0707
 Red. masses --      3.4236                 1.9315                 4.9090
 Frc consts  --      1.1562                 0.7018                 1.7963
 IR Inten    --    143.0895               121.3190                27.4631

                     34                     35                     36
                      A                      A                      A
 Frequencies --    859.4716               866.3512               926.8777
 Red. masses --      1.4185                 3.3867                 1.9850
 Frc consts  --      0.6174                 1.4976                 1.0047
 IR Inten    --      4.2595                 2.4580                29.8365

                     37                     38                     39
                      A                      A                      A
 Frequencies --    949.7111               999.5805              1002.6298
 Red. masses --      2.7235                 1.1666                 1.3535
 Frc consts  --      1.4473                 0.6867                 0.8017
 IR Inten    --     10.8272                60.0139                 0.3501

                     40                     41                     42
                      A                      A                      A
 Frequencies --   1018.7525              1022.5872              1029.5542
 Red. masses --      1.3089                 5.5112                 1.5998
 Frc consts  --      0.8004                 3.3954                 0.9991
 IR Inten    --      1.4911                 4.7265               246.4668

                     43                     44                     45
                      A                      A                      A
 Frequencies --   1045.8516              1062.8954              1067.7755
 Red. masses --      1.1078                 2.1215                 1.3737
 Frc consts  --      0.7139                 1.4121                 0.9228
 IR Inten    --     85.4748                 2.4735                 5.6966

                     46                     47                     48
                      A                      A                      A
 Frequencies --   1079.4690              1117.6837              1139.3620
 Red. masses --      4.9895                 1.6481                 3.0138
 Frc consts  --      3.4255                 1.2130                 2.3051
 IR Inten    --     49.7161                43.2470               131.9435

                     49                     50                     51
                      A                      A                      A
 Frequencies --   1183.1201              1210.3539              1219.2925
 Red. masses --      1.1235                 1.1227                 1.3958
 Frc consts  --      0.9266                 0.9691                 1.2226
 IR Inten    --      1.9681                 9.8051                26.6668

                     52                     53                     54
                      A                      A                      A
 Frequencies --   1271.7640              1299.8322              1339.1756
 Red. masses --      2.6737                 4.9082                 3.4919
 Frc consts  --      2.5479                 4.8859                 3.6897
 IR Inten    --    787.4558               194.7901               310.4982

                     55                     56                     57
                      A                      A                      A
 Frequencies --   1343.7674              1364.2151              1403.2532
 Red. masses --      1.4351                 1.5156                 1.4723
 Frc consts  --      1.5268                 1.6619                 1.7081
 IR Inten    --     60.0546                23.8098                74.8030

                     58                     59                     60
                      A                      A                      A
 Frequencies --   1438.4779              1459.8071              1479.8153
 Red. masses --      1.6770                 1.5950                 1.8690
 Frc consts  --      2.0445                 2.0026                 2.4115
 IR Inten    --    348.2601               167.5114               192.2517

                     61                     62                     63
                      A                      A                      A
 Frequencies --   1485.4540              1491.7131              1496.4322
 Red. masses --      1.1433                 1.0405                 1.0377
 Frc consts  --      1.4864                 1.3641                 1.3692
 IR Inten    --     67.2966                40.1142                22.5182

                     64                     65                     66
                      A                      A                      A
 Frequencies --   1500.4845              1547.7232              1568.6604
 Red. masses --      1.1371                 2.4008                 1.9613
 Frc consts  --      1.5083                 3.3884                 2.8436
 IR Inten    --    126.2010               175.7728               464.3174

                     67                     68                     69
                      A                      A                      A
 Frequencies --   1630.3062              1662.7355              1671.0434
 Red. masses --      1.0993                 6.6676                 4.2638
 Frc consts  --      1.7215                10.8609                 7.0149
 IR Inten    --     91.8906               193.7164               138.3156

                     70                     71                     72
                      A                      A                      A
 Frequencies --   1685.7127              3038.6558              3073.2427
 Red. masses --      6.4837                 1.0484                 1.0330
 Frc consts  --     10.8553                 5.7034                 5.7485
 IR Inten    --    654.9069                76.2239                27.7525

                     73                     74                     75
                      A                      A                      A
 Frequencies --   3115.4892              3152.4772              3161.3751
 Red. masses --      1.0896                 1.1046                 1.0999
 Frc consts  --      6.2311                 6.4678                 6.4770
 IR Inten    --     32.3948                 6.0652                 8.0012

                     76                     77                     78
                      A                      A                      A
 Frequencies --   3173.9654              3187.0756              3197.4157
 Red. masses --      1.1057                 1.0885                 1.0880
 Frc consts  --      6.5631                 6.5145                 6.5538
 IR Inten    --      8.3155                12.9562                 1.8997

                     79                     80                     81
                      A                      A                      A
 Frequencies --   3207.2726              3221.5192              3255.7577
 Red. masses --      1.0930                 1.0979                 1.0930
 Frc consts  --      6.6241                 6.7133                 6.8263
 IR Inten    --     28.3909                23.6944                 1.6520

                     82                     83                     84
                      A                      A                      A
 Frequencies --   3517.8061              3589.6398              3604.7043
 Red. masses --      1.0502                 1.0768                 1.0972
 Frc consts  --      7.6573                 8.1751                 8.3998
 IR Inten    --     52.3628               229.7231                81.9071

 - Thermochemistry -
 -------------------
 Temperature   298.150 Kelvin.  Pressure   1.00000 Atm.
 Atom     1 has atomic number  6 and mass  12.00000

 Molecular mass:   347.94729 amu.
 Principal axes and moments of inertia in atomic units:
                           1         2         3
     Eigenvalues --  2897.57287********************
           X            0.99990   0.01411   0.00046
           Y           -0.01411   0.99988   0.00684
           Z           -0.00036  -0.00685   0.99998
 This molecule is an asymmetric top.
 Rotational symmetry number  1.
 Warning -- assumption of classical behavior for rotation
           may cause significant error
 Rotational temperatures (Kelvin)      0.02989     0.00859     0.00758
 Rotational constants (GHZ):           0.62285     0.17909     0.15804
    1 imaginary frequencies ignored.
 Zero-point vibrational energy     621633.0 (Joules/Mol)
                                  148.57384 (Kcal/Mol)
 Warning -- explicit consideration of  25 degrees of freedom as
           vibrations may cause significant error
 Vibrational temperatures:     27.43    39.93    87.32   109.39   124.18
          (Kelvin)            139.59   161.91   192.38   214.97   233.48
                              239.24   258.36   322.34   352.70   378.81
                              400.64   454.35   517.19   573.89   602.25
                              611.30   750.03   775.35   830.77   883.59
                              913.24   936.34  1015.06  1033.70  1089.28
                             1129.86  1133.86  1236.59  1246.49  1333.57
                             1366.42  1438.17  1442.56  1465.76  1471.27
                             1481.30  1504.75  1529.27  1536.29  1553.12
                             1608.10  1639.29  1702.25  1741.43  1754.29
                             1829.78  1870.17  1926.78  1933.38  1962.80
                             2018.97  2069.65  2100.34  2129.12  2137.24
                             2146.24  2153.03  2158.86  2226.83  2256.95
                             2345.65  2392.31  2404.26  2425.36  4371.95
                             4421.71  4482.49  4535.71  4548.51  4566.63
                             4585.49  4600.37  4614.55  4635.05  4684.31
                             5061.34  5164.69  5186.37

 Zero-point correction=                           0.236767 (Hartree/Particle)
 Thermal correction to Energy=                    0.254105
 Thermal correction to Enthalpy=                  0.255049
 Thermal correction to Gibbs Free Energy=         0.188475
 Sum of electronic and zero-point Energies=          -5760.506995
 Sum of electronic and thermal Energies=             -5760.489657
 Sum of electronic and thermal Enthalpies=           -5760.488713
 Sum of electronic and thermal Free Energies=        -5760.555288

                     E (Thermal)             CV                S
                      KCal/Mol        Cal/Mol-Kelvin    Cal/Mol-Kelvin
 Total                  159.453             61.579            140.118
 Electronic               0.000              0.000              0.000
 Translational            0.889              2.981             43.435
 Rotational               0.889              2.981             34.166
 Vibrational            157.676             55.618             62.517
 Vibration     1          0.593              1.986              6.729
 Vibration     2          0.593              1.984              5.984
 Vibration     3          0.597              1.973              4.435
 Vibration     4          0.599              1.965              3.991
 Vibration     5          0.601              1.959              3.742
 Vibration     6          0.603              1.951              3.513
 Vibration     7          0.607              1.939              3.225
 Vibration     8          0.613              1.920              2.892
 Vibration     9          0.618              1.903              2.680
 Vibration    10          0.622              1.889              2.523
 Vibration    11          0.624              1.884              2.477
 Vibration    12          0.629              1.867              2.333
 Vibration    13          0.649              1.804              1.926
 Vibration    14          0.660              1.771              1.765
 Vibration    15          0.670              1.740              1.640
 Vibration    16          0.679              1.713              1.543
 Vibration    17          0.703              1.643              1.332
 Vibration    18          0.734              1.556              1.124
 Vibration    19          0.765              1.473              0.967
 Vibration    20          0.781              1.430              0.897
 Vibration    21          0.787              1.416              0.876
 Vibration    22          0.876              1.203              0.607
 Vibration    23          0.894              1.164              0.568
 Vibration    24          0.934              1.080              0.490
 Vibration    25          0.974              1.002              0.426

 Optimization completed.
    -- Stationary point found.
 Normal termination of Gaussian 16 at Mon Feb 22 14:57:15 2021.
