 Gaussian 16, Revision A.03,
 Gaussian 16:  ES64L-G16RevA.03 25-Dec-2016

 ----------------------------------------------------------------------
 # wB97XD def2tzvp, opt=(ts, noeigen, calcfc, maxcycles=70, maxstep=8),
  freq=noraman, scrf=(iefpcm, solvent=water)
 ----------------------------------------------------------------------

 ------------------------
 1_iteration/TS-708-1.out
 ------------------------
 Symbolic Z-matrix:
 Charge =  0 Multiplicity = 1

 SCF Done:  E(RwB97XD) =  -5588.88967275     A.U. after   15 cycles
 SCF Done:  E(RwB97XD) =  -5588.88967274     A.U. after    7 cycles
 Optimization completed.
    -- Stationary point found.
 Normal termination of Gaussian 16 at Mon Feb 22 05:41:40 2021.

 ---------------------------------------------------------------------
 #N Geom=AllCheck Guess=TCheck SCRF=Check GenChk RwB97XD/def2TZVP Freq
 ---------------------------------------------------------------------

 Structure from the checkpoint file:  "/beegfs/scratch/user/q/tla25/Gau-31719.chk"
 ------------------------
 1_iteration/TS-708-1.out
 ------------------------
 Charge =  0 Multiplicity = 1

                         Standard orientation:
 ---------------------------------------------------------------------
 Center     Atomic      Atomic             Coordinates (Angstroms)
 Number     Number       Type             X           Y           Z
 ---------------------------------------------------------------------
      1          6           0        0.484399    0.043595   -0.205720
      2          6           0        1.770596    0.639157   -0.488603
      3          8           0        1.958390    1.778949   -0.881401
      4          6           0       -0.709640    0.748401   -0.232163
      5          6           0       -0.155113    1.706428    2.388501
      6          1           0        0.777098    1.212654    2.106943
      7          1           0       -0.091018    2.760404    2.128585
      8          1           0       -0.293142    1.610495    3.465199
      9          7           0       -1.243161    1.085416    1.647133
     10          1           0       -2.095220    1.633265    1.672327
     11          1           0       -1.454679    0.161522    2.006101
     12         35           0       -2.327782   -0.244038   -0.711084
     13          6           0       -0.803060    2.152440   -0.760533
     14          1           0       -0.063647    2.789504   -0.284656
     15          1           0       -0.597733    2.149582   -1.830739
     16          1           0       -1.801947    2.551098   -0.598120
     17         35           0        0.467131   -1.752994    0.442781
     18          8           0        2.801112   -0.207387   -0.301016
     19          6           0        4.094480    0.308267   -0.594123
     20          1           0        4.165676    0.611091   -1.638754
     21          1           0        4.326900    1.161788    0.042739
     22          1           0        4.786625   -0.505391   -0.393793
 ---------------------------------------------------------------------

 SCF Done:  E(RwB97XD) =  -5588.88967274     A.U. after    1 cycles

 The electronic state is 1-A.
 Alpha  occ. eigenvalues -- -483.13200-483.12534 -62.68058 -62.67364 -56.47170
 Alpha  occ. eigenvalues --  -56.46824 -56.46805 -56.46478 -56.46129 -56.46118
 Alpha  occ. eigenvalues --  -19.28853 -19.22070 -14.48488 -10.41209 -10.40676
 Alpha  occ. eigenvalues --  -10.32904 -10.31900 -10.31796 -10.29032  -8.82171
 Alpha  occ. eigenvalues --   -8.81476  -6.64312  -6.63619  -6.63213  -6.63153
 Alpha  occ. eigenvalues --   -6.62502  -6.62471  -2.74698  -2.74395  -2.74349
 Alpha  occ. eigenvalues --   -2.74011  -2.73687  -2.73662  -2.73459  -2.73458
 Alpha  occ. eigenvalues --   -2.72758  -2.72758  -1.20577  -1.10864  -1.04127
 Alpha  occ. eigenvalues --   -0.95761  -0.89732  -0.84894  -0.82926  -0.79000
 Alpha  occ. eigenvalues --   -0.78298  -0.69724  -0.63576  -0.63273  -0.58652
 Alpha  occ. eigenvalues --   -0.57519  -0.57002  -0.56675  -0.55048  -0.53585
 Alpha  occ. eigenvalues --   -0.51064  -0.50138  -0.48727  -0.47714  -0.46265
 Alpha  occ. eigenvalues --   -0.45851  -0.44071  -0.43811  -0.39842  -0.39037
 Alpha  occ. eigenvalues --   -0.38456  -0.37233  -0.36689  -0.34411  -0.28512
 Alpha virt. eigenvalues --    0.02547   0.05373   0.09742   0.10145   0.12860
 Alpha virt. eigenvalues --    0.14204   0.14827   0.15279   0.16725   0.16783
 Alpha virt. eigenvalues --    0.19170   0.19297   0.19899   0.20616   0.20947

 Mulliken charges:
               1
     1  C   -0.286397
     2  C    0.465255
     3  O   -0.487184
     4  C    0.121582
     5  C   -0.300371
     6  H    0.153152
     7  H    0.160878
     8  H    0.160663
     9  N   -0.355059
    10  H    0.292119
    11  H    0.284285
    12  Br  -0.098985
    13  C   -0.355857
    14  H    0.154138
    15  H    0.155535
    16  H    0.150561
    17  Br  -0.125239
    18  O   -0.295880
    19  C   -0.194386
    20  H    0.130131
    21  H    0.129800
    22  H    0.141259
 Sum of Mulliken charges =  -0.00000

 Dipole moment (field-independent basis, Debye):
    X=             -2.7834    Y=              3.3397    Z=              5.1513  Tot=              6.7407
 Quadrupole moment (field-independent basis, Debye-Ang):
   XX=            -83.3520   YY=            -92.3276   ZZ=            -83.1704
   XY=             -7.5087   XZ=             -4.9422   YZ=              7.5115

  Exact polarizability: 213.321  -0.870 180.194  -6.298  -0.011 158.223
 Approx polarizability: 162.640   1.525 153.651  -4.148  -2.696 133.766

 ******    1 imaginary frequencies (negative Signs) ******

                      1                      2                      3
                      A                      A                      A
 Frequencies --   -356.8505                44.3480                54.5972
 Red. masses --      5.5518                 5.1223                 5.9433
 Frc consts  --      0.4165                 0.0059                 0.0104
 IR Inten    --    651.3602                 4.1573                 4.0224

                      4                      5                      6
                      A                      A                      A
 Frequencies --     70.7480               114.0542               135.2182
 Red. masses --      2.5224                 2.5484                 7.0342
 Frc consts  --      0.0074                 0.0195                 0.0758
 IR Inten    --      1.3104                 6.3340                 0.8481

                      7                      8                      9
                      A                      A                      A
 Frequencies --    139.9212               150.1714               170.2546
 Red. masses --      5.1314                 4.2685                 1.2312
 Frc consts  --      0.0592                 0.0567                 0.0210
 IR Inten    --      1.6247                 6.1049                 2.3641

                     10                     11                     12
                      A                      A                      A
 Frequencies --    176.9616               188.8023               263.5536
 Red. masses --      1.2214                 3.8409                 6.7138
 Frc consts  --      0.0225                 0.0807                 0.2748
 IR Inten    --      0.5044                10.1051                12.4365

                     13                     14                     15
                      A                      A                      A
 Frequencies --    273.5119               278.6070               314.0211
 Red. masses --      2.4736                 1.8428                 3.0829
 Frc consts  --      0.1090                 0.0843                 0.1791
 IR Inten    --     15.4992                 3.4894                 2.3999

                     16                     17                     18
                      A                      A                      A
 Frequencies --    319.3108               372.6397               411.0698
 Red. masses --      4.2595                 2.4928                 3.7322
 Frc consts  --      0.2559                 0.2039                 0.3716
 IR Inten    --     14.4700                 3.4567                 9.9911

                     19                     20                     21
                      A                      A                      A
 Frequencies --    440.7481               513.4774               624.5118
 Red. masses --      4.4137                 4.8173                 1.8700
 Frc consts  --      0.5052                 0.7483                 0.4297
 IR Inten    --     43.8842                70.3553                33.2560

                     22                     23                     24
                      A                      A                      A
 Frequencies --    684.1316               782.9925               792.7603
 Red. masses --      2.3576                 9.2225                 5.6265
 Frc consts  --      0.6501                 3.3313                 2.0834
 IR Inten    --    141.2001                39.9425                58.9295

                     25                     26                     27
                      A                      A                      A
 Frequencies --    967.3108               990.8346              1006.9566
 Red. masses --      5.6449                 1.1623                 2.1401
 Frc consts  --      3.1120                 0.6723                 1.2785
 IR Inten    --     46.4296                29.1154               144.2278

                     28                     29                     30
                      A                      A                      A
 Frequencies --   1027.4241              1062.7169              1084.1758
 Red. masses --      1.2712                 1.4933                 3.9004
 Frc consts  --      0.7906                 0.9936                 2.7012
 IR Inten    --     31.5691               114.7784                 4.9504

                     31                     32                     33
                      A                      A                      A
 Frequencies --   1104.7507              1138.5394              1182.7394
 Red. masses --      2.1271                 4.9163                 1.2815
 Frc consts  --      1.5296                 3.7548                 1.0562
 IR Inten    --    150.4760                33.8541                 1.7735

                     34                     35                     36
                      A                      A                      A
 Frequencies --   1207.7259              1218.3381              1289.3331
 Red. masses --      1.4058                 1.6020                 7.2373
 Frc consts  --      1.2081                 1.4010                 7.0886
 IR Inten    --     21.6975               152.7208              1131.6095

                     37                     38                     39
                      A                      A                      A
 Frequencies --   1339.0877              1418.5963              1435.2743
 Red. masses --      1.3290                 1.4788                 1.9919
 Frc consts  --      1.4041                 1.7534                 2.4177
 IR Inten    --      7.7050               334.3639               388.9776

                     40                     41                     42
                      A                      A                      A
 Frequencies --   1459.7796              1477.6395              1482.5499
 Red. masses --      1.2513                 1.1692                 1.0464
 Frc consts  --      1.5711                 1.5041                 1.3550
 IR Inten    --     47.5141                69.8537                20.2005

                     43                     44                     45
                      A                      A                      A
 Frequencies --   1483.1044              1487.7549              1493.3357
 Red. masses --      1.0734                 1.1823                 1.0719
 Frc consts  --      1.3911                 1.5418                 1.4084
 IR Inten    --     28.3200                63.5045                42.0938

                     46                     47                     48
                      A                      A                      A
 Frequencies --   1496.9288              1503.9906              1642.2933
 Red. masses --      1.1053                 1.0365                 1.0899
 Frc consts  --      1.4593                 1.3813                 1.7319
 IR Inten    --     34.3869                18.9015                63.9320

                     49                     50                     51
                      A                      A                      A
 Frequencies --   1703.5090              3061.5538              3064.4726
 Red. masses --     10.7181                 1.0349                 1.0308
 Frc consts  --     18.3255                 5.7149                 5.7032
 IR Inten    --    599.8187                31.4458                61.4750

                     52                     53                     54
                      A                      A                      A
 Frequencies --   3085.3299              3134.4299              3141.3196
 Red. masses --      1.0366                 1.1029                 1.1069
 Frc consts  --      5.8141                 6.3843                 6.4355
 IR Inten    --     10.2872                12.3288                35.2553

                     55                     56                     57
                      A                      A                      A
 Frequencies --   3160.3391              3168.0074              3175.2590
 Red. masses --      1.1024                 1.1050                 1.1055
 Frc consts  --      6.4872                 6.5339                 6.5671
 IR Inten    --     11.6562                14.2435                23.4287

                     58                     59                     60
                      A                      A                      A
 Frequencies --   3191.4179              3526.6980              3610.4691
 Red. masses --      1.1018                 1.0506                 1.0966
 Frc consts  --      6.6119                 7.6987                 8.4219
 IR Inten    --      3.0845                51.2365                53.0772

 - Thermochemistry -
 -------------------
 Temperature   298.150 Kelvin.  Pressure   1.00000 Atm.
 Atom     1 has atomic number  6 and mass  12.00000

 Molecular mass:   286.91565 amu.
 Principal axes and moments of inertia in atomic units:
                           1         2         3
     Eigenvalues --  2407.484614290.476495104.63338
           X            0.99930   0.00535  -0.03704
           Y           -0.00267   0.99740   0.07195
           Z            0.03733  -0.07180   0.99672
 This molecule is an asymmetric top.
 Rotational symmetry number  1.
 Warning -- assumption of classical behavior for rotation
           may cause significant error
 Rotational temperatures (Kelvin)      0.03598     0.02019     0.01697
 Rotational constants (GHZ):           0.74964     0.42064     0.35355
    1 imaginary frequencies ignored.
 Zero-point vibrational energy     450635.7 (Joules/Mol)
                                  107.70451 (Kcal/Mol)
 Warning -- explicit consideration of  19 degrees of freedom as
           vibrations may cause significant error
 Vibrational temperatures:     63.81    78.55   101.79   164.10   194.55
          (Kelvin)            201.32   216.06   244.96   254.61   271.64
                              379.19   393.52   400.85   451.81   459.42
                              536.15   591.44   634.14   738.78   898.53
                              984.31  1126.55  1140.61  1391.74  1425.59
                             1448.79  1478.23  1529.01  1559.89  1589.49
                             1638.10  1701.70  1737.65  1752.92  1855.06
                             1926.65  2041.04  2065.04  2100.30  2125.99
                             2133.06  2133.86  2140.55  2148.58  2153.75
                             2163.91  2362.89  2450.97  4404.89  4409.09
                             4439.10  4509.75  4519.66  4547.02  4558.06
                             4568.49  4591.74  5074.13  5194.66

 Zero-point correction=                           0.171638 (Hartree/Particle)
 Thermal correction to Energy=                    0.185504
 Thermal correction to Enthalpy=                  0.186448
 Thermal correction to Gibbs Free Energy=         0.129161
 Sum of electronic and zero-point Energies=          -5588.718035
 Sum of electronic and thermal Energies=             -5588.704169
 Sum of electronic and thermal Enthalpies=           -5588.703225
 Sum of electronic and thermal Free Energies=        -5588.760512

                     E (Thermal)             CV                S
                      KCal/Mol        Cal/Mol-Kelvin    Cal/Mol-Kelvin
 Total                  116.405             46.829            120.571
 Electronic               0.000              0.000              0.000
 Translational            0.889              2.981             42.860
 Rotational               0.889              2.981             32.333
 Vibrational            114.628             40.867             45.377
 Vibration     1          0.595              1.980              5.055
 Vibration     2          0.596              1.976              4.644
 Vibration     3          0.598              1.968              4.132
 Vibration     4          0.607              1.938              3.199
 Vibration     5          0.613              1.918              2.870
 Vibration     6          0.615              1.913              2.805
 Vibration     7          0.618              1.902              2.670
 Vibration     8          0.625              1.879              2.433
 Vibration     9          0.628              1.871              2.360
 Vibration    10          0.633              1.855              2.240
 Vibration    11          0.670              1.740              1.638
 Vibration    12          0.676              1.722              1.574
 Vibration    13          0.679              1.713              1.542
 Vibration    14          0.702              1.647              1.341
 Vibration    15          0.705              1.637              1.314
 Vibration    16          0.744              1.528              1.069
 Vibration    17          0.775              1.446              0.923
 Vibration    18          0.801              1.381              0.824
 Vibration    19          0.869              1.220              0.625

 Optimization completed.
    -- Stationary point found.
 Normal termination of Gaussian 16 at Mon Feb 22 06:06:57 2021.
