 Gaussian 16, Revision A.03,
 Gaussian 16:  ES64L-G16RevA.03 25-Dec-2016

 ----------------------------------------------------------------------
 # wB97XD def2tzvp, opt=(ts, noeigen, calcfc, maxcycles=70, maxstep=5),
  freq=noraman, scrf=(iefpcm, solvent=water)
 ----------------------------------------------------------------------

 ------------------------
 2_iteration/TS-724-2.out
 ------------------------
 Symbolic Z-matrix:
 Charge =  0 Multiplicity = 1

 SCF Done:  E(RwB97XD) =  -5780.61297382     A.U. after   15 cycles
 Optimization completed.
    -- Stationary point found.
 Normal termination of Gaussian 16 at Mon Feb 22 17:01:20 2021.

 ---------------------------------------------------------------------
 #N Geom=AllCheck Guess=TCheck SCRF=Check GenChk RwB97XD/def2TZVP Freq
 ---------------------------------------------------------------------

 Structure from the checkpoint file:  "/beegfs/scratch/user/q/tla25/Gau-109844.chk"
 ------------------------
 2_iteration/TS-724-2.out
 ------------------------
 Charge =  0 Multiplicity = 1

                         Standard orientation:
 ---------------------------------------------------------------------
 Center     Atomic      Atomic             Coordinates (Angstroms)
 Number     Number       Type             X           Y           Z
 ---------------------------------------------------------------------
      1          6           0        0.194168    0.640150   -0.110060
      2          6           0       -0.323125    1.992359   -0.195470
      3          8           0        0.321063    2.968360   -0.532700
      4          6           0       -0.634229   -0.451372    0.043570
      5          6           0       -0.694190    0.012858    2.852830
      6          1           0       -1.233491    0.215906    3.778140
      7          1           0        0.031792   -0.780271    3.023980
      8          1           0       -0.169282    0.917749    2.546410
      9          7           0       -1.593719   -0.376344    1.782600
     10          1           0       -2.050827   -1.264905    1.949630
     11          1           0       -2.293691    0.334914    1.605680
     12         35           0        0.200825   -2.168960    0.221620
     13         35           0       -2.269579   -0.647236   -1.025440
     14          6           0        1.680489    0.510873   -0.172900
     15          6           0        2.296500    0.160925   -1.372620
     16          6           0        3.676190    0.053468   -1.461050
     17          6           0        4.465429    0.302429   -0.346950
     18          6           0        3.865318    0.662288    0.851180
     19          6           0        2.484378    0.766825    0.934420
     20          1           0        1.681440   -0.033577   -2.243090
     21          1           0        4.135760   -0.223511   -2.401720
     22          1           0        5.542939    0.218682   -0.412820
     23          1           0        4.473298    0.861040    1.725020
     24          1           0        2.025458    1.047314    1.874150
     25          8           0       -1.610265    2.100276    0.195500
     26          6           0       -2.204898    3.389564    0.092370
     27          1           0       -3.235518    3.265552    0.413770
     28          1           0       -1.694179    4.103215    0.738320
     29          1           0       -2.173859    3.747884   -0.936310
 ---------------------------------------------------------------------

 SCF Done:  E(RwB97XD) =  -5780.61297382     A.U. after    1 cycles

 The electronic state is 1-A.
 Alpha  occ. eigenvalues -- -483.14462-483.13563 -62.69291 -62.68401 -56.48427
 Alpha  occ. eigenvalues --  -56.48049 -56.48031 -56.47532 -56.47157 -56.47145
 Alpha  occ. eigenvalues --  -19.29334 -19.22408 -14.48582 -10.44000 -10.40922
 Alpha  occ. eigenvalues --  -10.33129 -10.31831 -10.30268 -10.28922 -10.28879
 Alpha  occ. eigenvalues --  -10.28835 -10.28758 -10.28699 -10.28511  -8.83392
 Alpha  occ. eigenvalues --   -8.82501  -6.65598  -6.64690  -6.64395  -6.64340
 Alpha  occ. eigenvalues --   -6.63504  -6.63466  -2.75979  -2.75638  -2.75595
 Alpha  occ. eigenvalues --   -2.75064  -2.74735  -2.74705  -2.74622  -2.74621
 Alpha  occ. eigenvalues --   -2.73746  -2.73745  -1.20783  -1.11140  -1.04228
 Alpha  occ. eigenvalues --   -0.97563  -0.95359  -0.88525  -0.87726  -0.84940
 Alpha  occ. eigenvalues --   -0.84162  -0.80059  -0.79019  -0.71091  -0.70283
 Alpha  occ. eigenvalues --   -0.69078  -0.64696  -0.63695  -0.61374  -0.58713
 Alpha  occ. eigenvalues --   -0.57782  -0.57109  -0.56840  -0.54834  -0.54230
 Alpha  occ. eigenvalues --   -0.53537  -0.51843  -0.51648  -0.50718  -0.48668
 Alpha  occ. eigenvalues --   -0.48143  -0.47592  -0.46331  -0.46102  -0.44584
 Alpha  occ. eigenvalues --   -0.42734  -0.42593  -0.40340  -0.38840  -0.38660
 Alpha  occ. eigenvalues --   -0.37154  -0.36576  -0.36002  -0.33583  -0.32921
 Alpha  occ. eigenvalues --   -0.28991
 Alpha virt. eigenvalues --    0.01186   0.03504   0.05431   0.05620   0.07007
 Alpha virt. eigenvalues --    0.10379   0.12827   0.13547   0.14429   0.15657
 Alpha virt. eigenvalues --    0.15808   0.16222   0.16897   0.17665   0.18065

 Mulliken charges:
               1
     1  C   -0.353259
     2  C    0.413906
     3  O   -0.470425
     4  C    0.170609
     5  C   -0.291898
     6  H    0.164861
     7  H    0.159265
     8  H    0.144809
     9  N   -0.350077
    10  H    0.291426
    11  H    0.286630
    12  Br  -0.029403
    13  Br  -0.082458
    14  C    0.241333
    15  C   -0.235292
    16  C   -0.153598
    17  C   -0.128263
    18  C   -0.166744
    19  C   -0.213758
    20  H    0.139451
    21  H    0.140483
    22  H    0.143539
    23  H    0.139752
    24  H    0.140141
    25  O   -0.312702
    26  C   -0.199371
    27  H    0.142401
    28  H    0.133585
    29  H    0.135058
 Sum of Mulliken charges =  -0.00000

 Dipole moment (field-independent basis, Debye):
    X=             -4.3208    Y=             -2.3532    Z=              6.2016  Tot=              7.9162
 Quadrupole moment (field-independent basis, Debye-Ang):
   XX=           -105.5480   YY=           -128.0133   ZZ=           -104.6491
   XY=             -9.5338   XZ=             -7.0624   YZ=              3.5757

  Exact polarizability: 297.873   6.225 246.335  -2.385   0.165 250.810
 Approx polarizability: 233.829   4.307 200.884  -1.159   0.954 211.610

 ******    1 imaginary frequencies (negative Signs) ******

                      1                      2                      3
                      A                      A                      A
 Frequencies --   -376.7307                27.5162                50.1587
 Red. masses --      5.9011                 3.8169                 6.6027
 Frc consts  --      0.4935                 0.0017                 0.0098
 IR Inten    --    635.8298                 0.0709                 3.3957

                      4                      5                      6
                      A                      A                      A
 Frequencies --     62.5037                68.6966                72.8944
 Red. masses --      5.4527                 3.2314                 5.2373
 Frc consts  --      0.0126                 0.0090                 0.0164
 IR Inten    --      1.0939                 3.4683                 3.6891

                      7                      8                      9
                      A                      A                      A
 Frequencies --     90.3569               120.3872               136.4904
 Red. masses --      3.6593                 4.0071                 1.8671
 Frc consts  --      0.0176                 0.0342                 0.0205
 IR Inten    --      0.8648                 1.5822                 1.5737

                     10                     11                     12
                      A                      A                      A
 Frequencies --    149.4513               153.5370               172.4395
 Red. masses --      1.3351                 2.7115                 3.3931
 Frc consts  --      0.0176                 0.0377                 0.0594
 IR Inten    --      2.2412                 0.6817                 0.0157

                     13                     14                     15
                      A                      A                      A
 Frequencies --    181.3620               206.6336               223.9535
 Red. masses --      3.8817                 6.0309                 3.5467
 Frc consts  --      0.0752                 0.1517                 0.1048
 IR Inten    --      7.0890                 2.1298                 3.6800

                     16                     17                     18
                      A                      A                      A
 Frequencies --    243.2464               264.2986               286.5284
 Red. masses --      4.2001                 4.9925                 5.6292
 Frc consts  --      0.1464                 0.2055                 0.2723
 IR Inten    --     19.2172                25.1836                 7.4191

                     19                     20                     21
                      A                      A                      A
 Frequencies --    295.5158               362.1422               410.9143
 Red. masses --      5.2534                 4.8545                 6.3851
 Frc consts  --      0.2703                 0.3751                 0.6352
 IR Inten    --      8.2249                27.4211                19.2431

                     22                     23                     24
                      A                      A                      A
 Frequencies --    422.1751               516.2965               537.0304
 Red. masses --      2.8676                 4.5642                 5.4705
 Frc consts  --      0.3011                 0.7168                 0.9296
 IR Inten    --      0.2487                16.6350                73.5338

                     25                     26                     27
                      A                      A                      A
 Frequencies --    627.3026               634.3205               647.2135
 Red. masses --      1.6585                 5.0020                 7.0441
 Frc consts  --      0.3845                 1.1858                 1.7385
 IR Inten    --      7.8044                37.9119                49.7778

                     28                     29                     30
                      A                      A                      A
 Frequencies --    720.7757               726.8067               747.1440
 Red. masses --      3.6914                 1.5125                 4.7979
 Frc consts  --      1.1299                 0.4708                 1.5780
 IR Inten    --     27.2486               213.1225                96.3945

                     31                     32                     33
                      A                      A                      A
 Frequencies --    807.0235               809.2599               870.9395
 Red. masses --      5.1642                 3.4705                 5.4840
 Frc consts  --      1.9816                 1.3391                 2.4509
 IR Inten    --     66.3989                29.6578                79.4772

                     34                     35                     36
                      A                      A                      A
 Frequencies --    875.6445               939.1735               968.6986
 Red. masses --      1.2519                 2.6050                 2.1574
 Frc consts  --      0.5656                 1.3538                 1.1928
 IR Inten    --      0.4284                 7.7698                 3.3046

                     37                     38                     39
                      A                      A                      A
 Frequencies --    987.5733              1010.7854              1026.9956
 Red. masses --      1.1015                 1.3804                 1.1836
 Frc consts  --      0.6330                 0.8309                 0.7355
 IR Inten    --     83.6303                 0.1003                80.4347

                     40                     41                     42
                      A                      A                      A
 Frequencies --   1027.7479              1028.9164              1060.6722
 Red. masses --      4.5058                 1.3174                 2.4104
 Frc consts  --      2.8041                 0.8217                 1.5977
 IR Inten    --      9.1937                 0.4148                20.6598

                     43                     44                     45
                      A                      A                      A
 Frequencies --   1091.4401              1103.1783              1110.5894
 Red. masses --      4.5375                 4.8091                 1.5577
 Frc consts  --      3.1847                 3.4483                 1.1320
 IR Inten    --     35.4309                85.0130                11.5228

                     46                     47                     48
                      A                      A                      A
 Frequencies --   1181.9159              1182.3930              1200.0571
 Red. masses --      1.2828                 1.1348                 1.4359
 Frc consts  --      1.0558                 0.9348                 1.2184
 IR Inten    --      1.6825                 0.1478                33.6252

                     49                     50                     51
                      A                      A                      A
 Frequencies --   1207.7966              1214.0681              1238.1508
 Red. masses --      1.1204                 1.5627                 4.8066
 Frc consts  --      0.9630                 1.3571                 4.3414
 IR Inten    --      0.5414                15.0599               468.4422

                     52                     53                     54
                      A                      A                      A
 Frequencies --   1308.6008              1320.4665              1346.1479
 Red. masses --      4.5047                 5.8275                 1.3559
 Frc consts  --      4.5450                 5.9867                 1.4476
 IR Inten    --      0.6333               822.9981                20.2640

                     55                     56                     57
                      A                      A                      A
 Frequencies --   1357.5612              1439.8553              1464.2537
 Red. masses --      1.4388                 2.0057                 1.8117
 Frc consts  --      1.5623                 2.4499                 2.2886
 IR Inten    --      0.9894               371.4176               246.5742

                     58                     59                     60
                      A                      A                      A
 Frequencies --   1480.1761              1481.3871              1487.5425
 Red. masses --      1.2706                 1.0555                 2.1520
 Frc consts  --      1.6401                 1.3648                 2.8056
 IR Inten    --     38.2790                11.4699                 6.7604

                     61                     62                     63
                      A                      A                      A
 Frequencies --   1491.6240              1495.0634              1497.8436
 Red. masses --      1.0487                 1.0610                 1.0485
 Frc consts  --      1.3748                 1.3973                 1.3860
 IR Inten    --     47.0333                14.2816                30.1125

                     64                     65                     66
                      A                      A                      A
 Frequencies --   1546.6146              1634.7945              1646.9942
 Red. masses --      2.5163                 1.0965                 5.7497
 Frc consts  --      3.5463                 1.7266                 9.1893
 IR Inten    --     72.6909                87.3564                 2.0197

                     67                     68                     69
                      A                      A                      A
 Frequencies --   1672.1057              1713.9585              3067.3370
 Red. masses --      6.0199                11.2004                 1.0324
 Frc consts  --      9.9167                19.3858                 5.7231
 IR Inten    --      9.8188               993.6782                34.0674

                     70                     71                     72
                      A                      A                      A
 Frequencies --   3067.8554              3143.7525              3146.6133
 Red. masses --      1.0307                 1.1041                 1.1071
 Frc consts  --      5.7157                 6.4289                 6.4585
 IR Inten    --     53.6599                10.8624                31.5083

                     73                     74                     75
                      A                      A                      A
 Frequencies --   3162.5081              3178.5588              3190.2092
 Red. masses --      1.1055                 1.1059                 1.0861
 Frc consts  --      6.5145                 6.5832                 6.5127
 IR Inten    --     12.2795                19.8628                 4.2344

                     76                     77                     78
                      A                      A                      A
 Frequencies --   3195.6377              3204.8457              3211.9598
 Red. masses --      1.0880                 1.0920                 1.0947
 Frc consts  --      6.5460                 6.6080                 6.6538
 IR Inten    --      0.0979                19.3734                44.7039

                     79                     80                     81
                      A                      A                      A
 Frequencies --   3220.9474              3525.0421              3616.9821
 Red. masses --      1.0987                 1.0498                 1.0978
 Frc consts  --      6.7158                 7.6854                 8.4620
 IR Inten    --     16.9498                60.4752                75.3690

 - Thermochemistry -
 -------------------
 Temperature   298.150 Kelvin.  Pressure   1.00000 Atm.
 Atom     1 has atomic number  6 and mass  12.00000

 Molecular mass:   348.93130 amu.
 Principal axes and moments of inertia in atomic units:
                           1         2         3
     Eigenvalues --  4381.808386335.133698163.72798
           X            0.99838  -0.04445  -0.03565
           Y            0.04482   0.99895   0.00960
           Z            0.03519  -0.01119   0.99932
 This molecule is an asymmetric top.
 Rotational symmetry number  1.
 Warning -- assumption of classical behavior for rotation
           may cause significant error
 Rotational temperatures (Kelvin)      0.01977     0.01367     0.01061
 Rotational constants (GHZ):           0.41187     0.28488     0.22107
    1 imaginary frequencies ignored.
 Zero-point vibrational energy     588672.5 (Joules/Mol)
                                  140.69609 (Kcal/Mol)
 Warning -- explicit consideration of  23 degrees of freedom as
           vibrations may cause significant error
 Vibrational temperatures:     39.59    72.17    89.93    98.84   104.88
          (Kelvin)            130.00   173.21   196.38   215.03   220.91
                              248.10   260.94   297.30   322.22   349.98
                              380.27   412.25   425.18   521.04   591.21
                              607.42   742.84   772.67   902.55   912.65
                              931.20  1037.04  1045.71  1074.97  1161.13
                             1164.34  1253.09  1259.86  1351.26  1393.74
                             1420.90  1454.29  1477.62  1478.70  1480.38
                             1526.07  1570.34  1587.23  1597.89  1700.51
                             1701.20  1726.61  1737.75  1746.77  1781.42
                             1882.78  1899.86  1936.81  1953.23  2071.63
                             2106.73  2129.64  2131.39  2140.24  2146.11
                             2151.06  2155.06  2225.23  2352.10  2369.66
                             2405.79  2466.00  4413.21  4413.96  4523.16
                             4527.27  4550.14  4573.24  4590.00  4597.81
                             4611.06  4621.29  4634.22  5071.75  5204.03

 Zero-point correction=                           0.224213 (Hartree/Particle)
 Thermal correction to Energy=                    0.241554
 Thermal correction to Enthalpy=                  0.242498
 Thermal correction to Gibbs Free Energy=         0.176518
 Sum of electronic and zero-point Energies=          -5780.388760
 Sum of electronic and thermal Energies=             -5780.371420
 Sum of electronic and thermal Enthalpies=           -5780.370476
 Sum of electronic and thermal Free Energies=        -5780.436456

                     E (Thermal)             CV                S
                      KCal/Mol        Cal/Mol-Kelvin    Cal/Mol-Kelvin
 Total                  151.577             60.472            138.866
 Electronic               0.000              0.000              0.000
 Translational            0.889              2.981             43.443
 Rotational               0.889              2.981             33.782
 Vibrational            149.800             54.510             61.641
 Vibration     1          0.593              1.984              6.001
 Vibration     2          0.595              1.978              4.811
 Vibration     3          0.597              1.972              4.377
 Vibration     4          0.598              1.969              4.190
 Vibration     5          0.599              1.967              4.074
 Vibration     6          0.602              1.956              3.652
 Vibration     7          0.609              1.932              3.094
 Vibration     8          0.614              1.917              2.852
 Vibration     9          0.618              1.903              2.679
 Vibration    10          0.619              1.899              2.628
 Vibration    11          0.626              1.876              2.409
 Vibration    12          0.630              1.865              2.314
 Vibration    13          0.641              1.830              2.073
 Vibration    14          0.649              1.805              1.927
 Vibration    15          0.659              1.774              1.779
 Vibration    16          0.671              1.738              1.633
 Vibration    17          0.684              1.699              1.494
 Vibration    18          0.690              1.682              1.442
 Vibration    19          0.736              1.550              1.113
 Vibration    20          0.775              1.447              0.923
 Vibration    21          0.785              1.422              0.885
 Vibration    22          0.871              1.214              0.619
 Vibration    23          0.892              1.168              0.572

 Optimization completed.
    -- Stationary point found.
 Normal termination of Gaussian 16 at Mon Feb 22 18:16:37 2021.
