 Gaussian 16, Revision A.03,
 Gaussian 16:  ES64L-G16RevA.03 25-Dec-2016

 ----------------------------------------------------------------------
 # wB97XD def2tzvp, opt=(ts, noeigen, calcfc, maxcycles=70, maxstep=1),
  freq=noraman, scrf=(iefpcm, solvent=water)
 ----------------------------------------------------------------------

 ------------------------
 0_iteration/TS-739-0.out
 ------------------------
 Symbolic Z-matrix:
 Charge =  0 Multiplicity = 1

 SCF Done:  E(RwB97XD) =  -5529.69561263     A.U. after   15 cycles
 SCF Done:  E(RwB97XD) =  -5529.69555125     A.U. after   10 cycles
 SCF Done:  E(RwB97XD) =  -5529.69549463     A.U. after   10 cycles
 SCF Done:  E(RwB97XD) =  -5529.69544307     A.U. after   10 cycles
 SCF Done:  E(RwB97XD) =  -5529.69539701     A.U. after   10 cycles
 SCF Done:  E(RwB97XD) =  -5529.69535711     A.U. after   10 cycles
 SCF Done:  E(RwB97XD) =  -5529.69532346     A.U. after   11 cycles
 SCF Done:  E(RwB97XD) =  -5529.69529535     A.U. after   11 cycles
 SCF Done:  E(RwB97XD) =  -5529.69527466     A.U. after   11 cycles
 SCF Done:  E(RwB97XD) =  -5529.69526322     A.U. after   11 cycles
 SCF Done:  E(RwB97XD) =  -5529.69666984     A.U. after   10 cycles
 SCF Done:  E(RwB97XD) =  -5529.69667481     A.U. after   10 cycles
 SCF Done:  E(RwB97XD) =  -5529.69668048     A.U. after   10 cycles
 SCF Done:  E(RwB97XD) =  -5529.69668485     A.U. after   10 cycles
 SCF Done:  E(RwB97XD) =  -5529.69668523     A.U. after   10 cycles
 SCF Done:  E(RwB97XD) =  -5529.69668670     A.U. after   10 cycles
 SCF Done:  E(RwB97XD) =  -5529.69668677     A.U. after    9 cycles
 SCF Done:  E(RwB97XD) =  -5529.69668622     A.U. after   10 cycles
 SCF Done:  E(RwB97XD) =  -5529.69668680     A.U. after    9 cycles
 Optimization completed.
    -- Stationary point found.
 Normal termination of Gaussian 16 at Sun Feb 21 23:09:34 2021.

 ---------------------------------------------------------------------
 #N Geom=AllCheck Guess=TCheck SCRF=Check GenChk RwB97XD/def2TZVP Freq
 ---------------------------------------------------------------------

 Structure from the checkpoint file:  "/beegfs/scratch/user/q/tla25/Gau-65147.chk"
 ------------------------
 0_iteration/TS-739-0.out
 ------------------------
 Charge =  0 Multiplicity = 1

                         Standard orientation:
 ---------------------------------------------------------------------
 Center     Atomic      Atomic             Coordinates (Angstroms)
 Number     Number       Type             X           Y           Z
 ---------------------------------------------------------------------
      1          6           0       -0.874041    0.984926    0.009741
      2          6           0       -2.254465    0.738362   -0.398160
      3          8           0       -2.961331    1.673133   -0.799030
      4          6           0        0.163962    0.081376    0.132885
      5          6           0       -0.568734   -0.669032    2.632993
      6          1           0       -0.345596   -0.643230    3.697465
      7          1           0       -1.369642    0.034781    2.406856
      8          1           0       -0.871465   -1.673511    2.347156
      9          7           0        0.604845   -0.278398    1.855164
     10          1           0        0.998498    0.590763    2.201972
     11          1           0        1.339190   -0.980062    1.876537
     12         35           0        1.991296    0.770111   -0.387350
     13         35           0        0.055335   -1.721202   -0.575003
     14          6           0       -0.567097    2.437757    0.312522
     15          1           0       -1.485071    2.950610    0.591351
     16          1           0        0.138388    2.549266    1.138592
     17          1           0       -0.141491    2.965528   -0.546808
     18          7           0       -2.829692   -0.492784   -0.283664
     19          1           0       -2.312950   -1.314600   -0.037487
     20          1           0       -3.715103   -0.618483   -0.741457
 ---------------------------------------------------------------------

 SCF Done:  E(RwB97XD) =  -5529.69668680     A.U. after    1 cycles

 The electronic state is 1-A.
 Alpha  occ. eigenvalues -- -483.14744-483.12910 -62.69587 -62.67768 -56.48716
 Alpha  occ. eigenvalues --  -56.48341 -56.48333 -56.46878 -56.46532 -56.46520
 Alpha  occ. eigenvalues --  -19.19580 -14.51829 -14.43502 -10.44378 -10.38012
 Alpha  occ. eigenvalues --  -10.32729 -10.27181 -10.26993  -8.83697  -8.81874
 Alpha  occ. eigenvalues --   -6.65884  -6.64694  -6.64670  -6.64000  -6.62911
 Alpha  occ. eigenvalues --   -6.62872  -2.76264  -2.75924  -2.75905  -2.74944
 Alpha  occ. eigenvalues --   -2.74942  -2.74377  -2.74085  -2.74053  -2.73172
 Alpha  occ. eigenvalues --   -2.73172  -1.12332  -1.07117  -0.99062  -0.95160
 Alpha  occ. eigenvalues --   -0.88007  -0.86062  -0.80438  -0.76764  -0.71409
 Alpha  occ. eigenvalues --   -0.65755  -0.64467  -0.60985  -0.58890  -0.57665
 Alpha  occ. eigenvalues --   -0.55493  -0.51564  -0.51025  -0.49519  -0.49235
 Alpha  occ. eigenvalues --   -0.47699  -0.46897  -0.45410  -0.44069  -0.40229
 Alpha  occ. eigenvalues --   -0.38999  -0.37845  -0.36302  -0.34333  -0.33692
 Alpha  occ. eigenvalues --   -0.27158
 Alpha virt. eigenvalues --    0.01643   0.05502   0.06870   0.09696   0.12778
 Alpha virt. eigenvalues --    0.13939   0.14970   0.15624   0.16968   0.17398
 Alpha virt. eigenvalues --    0.18954   0.20281   0.20773   0.21391   0.22705

 Mulliken charges:
               1
     1  C   -0.257034
     2  C    0.315250
     3  O   -0.532537
     4  C    0.052985
     5  C   -0.316881
     6  H    0.175114
     7  H    0.168494
     8  H    0.168915
     9  N   -0.235775
    10  H    0.295221
    11  H    0.307199
    12  Br  -0.136545
    13  Br  -0.062713
    14  C   -0.379928
    15  H    0.134287
    16  H    0.117960
    17  H    0.126666
    18  N   -0.458627
    19  H    0.253251
    20  H    0.264698
 Sum of Mulliken charges =  -0.00000

 Dipole moment (field-independent basis, Debye):
    X=              4.2364    Y=             -6.1605    Z=              8.0432  Tot=             10.9815
 Quadrupole moment (field-independent basis, Debye-Ang):
   XX=            -98.0554   YY=            -89.4769   ZZ=            -73.5638
   XY=             14.7121   XZ=              0.2015   YZ=              2.6194

  Exact polarizability: 210.901  -5.607 180.987   4.797  -6.431 149.028
 Approx polarizability: 163.120  -4.010 150.547   4.477  -4.520 127.131

 ******    1 imaginary frequencies (negative Signs) ******

                      1                      2                      3
                      A                      A                      A
 Frequencies --   -401.8894                47.4189                59.1722
 Red. masses --      5.8401                 4.8018                 6.1194
 Frc consts  --      0.5558                 0.0064                 0.0126
 IR Inten    --    522.7163                 9.2878                17.1605

                      4                      5                      6
                      A                      A                      A
 Frequencies --     94.3786               133.5511               140.0537
 Red. masses --      2.8176                 1.1562                 5.0759
 Frc consts  --      0.0148                 0.0122                 0.0587
 IR Inten    --      2.8528                 0.1124                 7.5839

                      7                      8                      9
                      A                      A                      A
 Frequencies --    152.7131               171.3180               183.4999
 Red. masses --      3.0828                 6.3663                 1.4936
 Frc consts  --      0.0424                 0.1101                 0.0296
 IR Inten    --      6.4473                26.8827                 5.7868

                     10                     11                     12
                      A                      A                      A
 Frequencies --    197.7609               244.0238               257.9662
 Red. masses --      4.0812                 1.5888                 2.5003
 Frc consts  --      0.0940                 0.0557                 0.0980
 IR Inten    --     17.6342               258.9602                48.2463

                     13                     14                     15
                      A                      A                      A
 Frequencies --    267.4044               299.3327               338.2654
 Red. masses --      3.7491                 3.1130                 3.5946
 Frc consts  --      0.1580                 0.1643                 0.2423
 IR Inten    --    148.6297                21.1335                12.3196

                     16                     17                     18
                      A                      A                      A
 Frequencies --    376.0520               476.2035               498.0281
 Red. masses --      3.1371                 1.7673                 4.3077
 Frc consts  --      0.2614                 0.2361                 0.6295
 IR Inten    --     17.1119                40.3769                44.6793

                     19                     20                     21
                      A                      A                      A
 Frequencies --    549.2781               627.9779               693.5575
 Red. masses --      1.7961                 3.0941                 3.6297
 Frc consts  --      0.3193                 0.7189                 1.0287
 IR Inten    --    132.5097                78.8618               235.8588

                     22                     23                     24
                      A                      A                      A
 Frequencies --    735.5712               775.8359               866.6069
 Red. masses --      2.1203                 7.4826                 2.3262
 Frc consts  --      0.6759                 2.6536                 1.0293
 IR Inten    --     50.6347                29.2338                79.5371

                     25                     26                     27
                      A                      A                      A
 Frequencies --   1011.6421              1036.9285              1055.8249
 Red. masses --      1.2859                 1.4667                 1.4893
 Frc consts  --      0.7754                 0.9292                 0.9782
 IR Inten    --    160.2695                81.7776                52.6071

                     28                     29                     30
                      A                      A                      A
 Frequencies --   1063.7777              1087.8684              1093.0460
 Red. masses --      1.7321                 1.7671                 2.0541
 Frc consts  --      1.1549                 1.2322                 1.4459
 IR Inten    --     17.8333                97.7381               138.2644

                     31                     32                     33
                      A                      A                      A
 Frequencies --   1176.9916              1253.6848              1339.2413
 Red. masses --      3.2002                 1.3489                 1.3076
 Frc consts  --      2.6120                 1.2491                 1.3818
 IR Inten    --      4.4866                62.9430                 1.7672

                     34                     35                     36
                      A                      A                      A
 Frequencies --   1386.5282              1402.1246              1432.3720
 Red. masses --      4.1938                 1.9325                 1.6487
 Frc consts  --      4.7502                 2.2384                 1.9930
 IR Inten    --   1157.3904               122.6945               231.0371

                     37                     38                     39
                      A                      A                      A
 Frequencies --   1453.7218              1473.8644              1495.7318
 Red. masses --      1.3345                 1.0544                 1.0748
 Frc consts  --      1.6617                 1.3495                 1.4167
 IR Inten    --     99.3353                18.8957               122.8873

                     40                     41                     42
                      A                      A                      A
 Frequencies --   1497.8432              1498.8376              1616.0265
 Red. masses --      1.0530                 1.0891                 2.0709
 Frc consts  --      1.3918                 1.4416                 3.1865
 IR Inten    --     78.4475                29.9214               587.8937

                     43                     44                     45
                      A                      A                      A
 Frequencies --   1636.1135              1646.4651              3032.6480
 Red. masses --      1.0879                 2.2181                 1.0439
 Frc consts  --      1.7158                 3.5428                 5.6566
 IR Inten    --     70.3465               637.4909                72.9349

                     46                     47                     48
                      A                      A                      A
 Frequencies --   3078.1809              3090.5652              3149.9082
 Red. masses --      1.0329                 1.0966                 1.0972
 Frc consts  --      5.7665                 6.1713                 6.4143
 IR Inten    --     22.8359                48.7422                20.1897

                     49                     50                     51
                      A                      A                      A
 Frequencies --   3164.2861              3181.1398              3501.6776
 Red. masses --      1.1044                 1.1067                 1.0512
 Frc consts  --      6.5155                 6.5987                 7.5940
 IR Inten    --      2.1403                 7.1762                68.1035

                     52                     53                     54
                      A                      A                      A
 Frequencies --   3582.7145              3629.5801              3757.1474
 Red. masses --      1.0974                 1.0461                 1.1034
 Frc consts  --      8.2990                 8.1196                 9.1773
 IR Inten    --     72.0227                45.4752               102.0954

 - Thermochemistry -
 -------------------
 Temperature   298.150 Kelvin.  Pressure   1.00000 Atm.
 Atom     1 has atomic number  6 and mass  12.00000

 Molecular mass:   271.91599 amu.
 Principal axes and moments of inertia in atomic units:
                           1         2         3
     Eigenvalues --  2402.497973186.560314032.02508
           X            0.99841  -0.05494   0.01284
           Y            0.05537   0.99781  -0.03608
           Z           -0.01083   0.03673   0.99927
 This molecule is an asymmetric top.
 Rotational symmetry number  1.
 Warning -- assumption of classical behavior for rotation
           may cause significant error
 Rotational temperatures (Kelvin)      0.03605     0.02718     0.02148
 Rotational constants (GHZ):           0.75119     0.56636     0.44760
    1 imaginary frequencies ignored.
 Zero-point vibrational energy     406804.8 (Joules/Mol)
                                   97.22868 (Kcal/Mol)
 Warning -- explicit consideration of  18 degrees of freedom as
           vibrations may cause significant error
 Vibrational temperatures:     68.23    85.14   135.79   192.15   201.51
          (Kelvin)            219.72   246.49   264.02   284.53   351.10
                              371.16   384.74   430.67   486.69   541.06
                              685.15   716.55   790.29   903.52   997.87
                             1058.32  1116.25  1246.85  1455.53  1491.91
                             1519.10  1530.54  1565.20  1572.65  1693.43
                             1803.77  1926.87  1994.90  2017.34  2060.86
                             2091.58  2120.56  2152.02  2155.06  2156.49
                             2325.10  2354.00  2368.90  4363.30  4428.82
                             4446.63  4532.02  4552.70  4576.95  5038.13
                             5154.73  5222.16  5405.70

 Zero-point correction=                           0.154944 (Hartree/Particle)
 Thermal correction to Energy=                    0.167909
 Thermal correction to Enthalpy=                  0.168854
 Thermal correction to Gibbs Free Energy=         0.114014
 Sum of electronic and zero-point Energies=          -5529.541743
 Sum of electronic and thermal Energies=             -5529.528777
 Sum of electronic and thermal Enthalpies=           -5529.527833
 Sum of electronic and thermal Free Energies=        -5529.582673

                     E (Thermal)             CV                S
                      KCal/Mol        Cal/Mol-Kelvin    Cal/Mol-Kelvin
 Total                  105.365             44.031            115.420
 Electronic               0.000              0.000              0.000
 Translational            0.889              2.981             42.700
 Rotational               0.889              2.981             31.801
 Vibrational            103.587             38.069             40.919
 Vibration     1          0.595              1.979              4.922
 Vibration     2          0.597              1.974              4.485
 Vibration     3          0.603              1.953              3.567
 Vibration     4          0.613              1.920              2.894
 Vibration     5          0.615              1.913              2.803
 Vibration     6          0.619              1.900              2.638
 Vibration     7          0.626              1.878              2.421
 Vibration     8          0.631              1.862              2.293
 Vibration     9          0.637              1.843              2.154
 Vibration    10          0.659              1.773              1.773
 Vibration    11          0.667              1.749              1.675
 Vibration    12          0.673              1.733              1.613
 Vibration    13          0.692              1.675              1.421
 Vibration    14          0.719              1.599              1.220
 Vibration    15          0.747              1.521              1.055
 Vibration    16          0.833              1.303              0.720
 Vibration    17          0.854              1.254              0.663
 Vibration    18          0.905              1.141              0.546

 Optimization completed.
    -- Stationary point found.
 Normal termination of Gaussian 16 at Sun Feb 21 23:29:55 2021.
