 Gaussian 16, Revision C.01,
 Gaussian 16:  ES64L-G16RevC.01  3-Jul-2019

 ----------------------------------------------------------------------
 # wb97xd def2tzvp opt=(ts, noeigen, calcfc, maxcycles=100, maxstep=10)
  freq=noraman scrf=(iefpcm, solvent=water)
 ----------------------------------------------------------------------

 ----------
 TS-782.out
 ----------
 Symbolic Z-matrix:
 Charge =  0 Multiplicity = 1

 SCF Done:  E(RwB97XD) =  -3494.30125840     A.U. after   15 cycles
 SCF Done:  E(RwB97XD) =  -3494.29977543     A.U. after   12 cycles
 SCF Done:  E(RwB97XD) =  -3494.29910570     A.U. after   13 cycles
 SCF Done:  E(RwB97XD) =  -3494.29989767     A.U. after   14 cycles
 SCF Done:  E(RwB97XD) =  -3494.30069141     A.U. after   14 cycles
 SCF Done:  E(RwB97XD) =  -3494.30118790     A.U. after   13 cycles
 SCF Done:  E(RwB97XD) =  -3494.30115546     A.U. after   14 cycles
 SCF Done:  E(RwB97XD) =  -3494.30140005     A.U. after   13 cycles
 SCF Done:  E(RwB97XD) =  -3494.30145135     A.U. after   12 cycles
 SCF Done:  E(RwB97XD) =  -3494.30137815     A.U. after   13 cycles
 SCF Done:  E(RwB97XD) =  -3494.30134376     A.U. after   13 cycles
 SCF Done:  E(RwB97XD) =  -3494.30156125     A.U. after   13 cycles
 SCF Done:  E(RwB97XD) =  -3494.30145572     A.U. after   14 cycles
 SCF Done:  E(RwB97XD) =  -3494.30159591     A.U. after   13 cycles
 SCF Done:  E(RwB97XD) =  -3494.30159733     A.U. after   12 cycles
 SCF Done:  E(RwB97XD) =  -3494.30160089     A.U. after   11 cycles
 SCF Done:  E(RwB97XD) =  -3494.30160112     A.U. after   10 cycles
 SCF Done:  E(RwB97XD) =  -3494.30160099     A.U. after   10 cycles
 SCF Done:  E(RwB97XD) =  -3494.30160115     A.U. after   10 cycles
 Optimization completed.
    -- Stationary point found.
 Normal termination of Gaussian 16 at Fri Jun  3 01:33:35 2022.

 ---------------------------------------------------------------------
 #N Geom=AllCheck Guess=TCheck SCRF=Check GenChk RwB97XD/def2TZVP Freq
 ---------------------------------------------------------------------

 Structure from the checkpoint file:  "/local/jobs/107286/Gau-2568332.chk"
 ----------
 TS-782.out
 ----------
 Charge =  0 Multiplicity = 1

                         Standard orientation:
 ---------------------------------------------------------------------
 Center     Atomic      Atomic             Coordinates (Angstroms)
 Number     Number       Type             X           Y           Z
 ---------------------------------------------------------------------
      1          6           0       -0.465801    0.284053   -0.619085
      2          6           0       -1.854717    0.616230   -0.167863
      3          8           0       -2.187877    1.766121    0.118146
      4          6           0        0.547207    0.294191    0.270620
      5          6           0        2.067637    2.112811   -1.133683
      6          1           0        2.573626    1.299903   -1.649895
      7          1           0        2.714816    2.988118   -1.111413
      8          1           0        1.143165    2.358130   -1.650978
      9          7           0        1.739316    1.684746    0.223976
     10          1           0        1.247005    2.418803    0.724008
     11          1           0        2.568102    1.434648    0.755358
     12         35           0        2.063194   -1.167801   -0.020959
     13         17           0        0.162958    0.342986    1.986536
     14          6           0       -0.309876    0.006668   -2.090883
     15          1           0       -0.984754   -0.791795   -2.414451
     16          1           0       -0.539332    0.885105   -2.701214
     17          1           0        0.706401   -0.304211   -2.328521
     18          7           0       -2.751718   -0.398672   -0.169612
     19          6           0       -4.150002   -0.131733    0.093932
     20          6           0       -2.395374   -1.797075   -0.279883
     21          1           0       -4.364543    0.915268   -0.097829
     22          1           0       -4.764619   -0.755088   -0.557618
     23          1           0       -4.405881   -0.360477    1.132838
     24          1           0       -1.314630   -1.907749   -0.300745
     25          1           0       -2.783605   -2.343684    0.583184
     26          1           0       -2.822452   -2.237068   -1.184907
 ---------------------------------------------------------------------

 SCF Done:  E(RwB97XD) =  -3494.30160115     A.U. after    1 cycles

 The electronic state is 1-A.
 Alpha  occ. eigenvalues -- -483.10815-101.70846 -62.65678 -56.44748 -56.44458
 Alpha  occ. eigenvalues --  -56.44454 -19.20861 -14.50725 -14.46345 -10.43106
 Alpha  occ. eigenvalues --  -10.38415 -10.32363 -10.30888 -10.30540 -10.27903
 Alpha  occ. eigenvalues --  -10.26814  -9.59428  -8.79776  -7.34083  -7.33189
 Alpha  occ. eigenvalues --   -7.33186  -6.61775  -6.60867  -6.60853  -2.72166
 Alpha  occ. eigenvalues --   -2.71926  -2.71915  -2.71181  -2.71180  -1.13704
 Alpha  occ. eigenvalues --   -1.06288  -1.03609  -0.98190  -0.89099  -0.84933
 Alpha  occ. eigenvalues --   -0.81760  -0.80062  -0.79426  -0.77153  -0.67807
 Alpha  occ. eigenvalues --   -0.64887  -0.62098  -0.59160  -0.58688  -0.56821
 Alpha  occ. eigenvalues --   -0.56256  -0.55218  -0.52338  -0.51275  -0.49860
 Alpha  occ. eigenvalues --   -0.48937  -0.48687  -0.48345  -0.47482  -0.46674
 Alpha  occ. eigenvalues --   -0.46022  -0.45108  -0.44758  -0.40812  -0.39808
 Alpha  occ. eigenvalues --   -0.36523  -0.35917  -0.34496  -0.32256  -0.26429
 Alpha virt. eigenvalues --    0.01479   0.08977   0.09260   0.10397   0.11711
 Alpha virt. eigenvalues --    0.12213   0.13859   0.15116   0.15863   0.16486
 Alpha virt. eigenvalues --    0.17118   0.17762   0.19048   0.19131   0.19875

 Mulliken charges:
               1
     1  C   -0.232535
     2  C    0.261099
     3  O   -0.503382
     4  C    0.077135
     5  C   -0.302802
     6  H    0.160540
     7  H    0.173210
     8  H    0.160623
     9  N   -0.237060
    10  H    0.286946
    11  H    0.293814
    12  Br  -0.290975
    13  Cl  -0.073930
    14  C   -0.362004
    15  H    0.138816
    16  H    0.138440
    17  H    0.134230
    18  N   -0.097653
    19  C   -0.283503
    20  C   -0.316307
    21  H    0.142977
    22  H    0.136905
    23  H    0.139025
    24  H    0.166049
    25  H    0.141649
    26  H    0.148694
 Sum of Mulliken charges =  -0.00000

 Dipole moment (field-independent basis, Debye):
    X=              2.4589    Y=              1.6225    Z=             -1.5273  Tot=              3.3183
 Quadrupole moment (field-independent basis, Debye-Ang):
   XX=            -83.9081   YY=            -90.3234   ZZ=            -91.3597
   XY=             25.0272   XZ=              1.0740   YZ=             -0.3055

  Exact polarizability:     229.436      -9.145     205.925       5.323       2.346     176.332
 Approx polarizability:     173.515      -6.844     169.504       3.471       4.073     150.542

 ******    1 imaginary frequencies (negative Signs) ******

                      1                      2                      3
                      A                      A                      A
 Frequencies --   -487.5352                27.4773                48.6923
 Red. masses --      7.0036                 4.9233                 5.1913
 Frc consts  --      0.9808                 0.0022                 0.0073
 IR Inten    --    623.2870                 7.4823                 8.0753

                      4                      5                      6
                      A                      A                      A
 Frequencies --     79.1001                81.1164                93.4586
 Red. masses --      1.2865                 2.6761                 2.5723
 Frc consts  --      0.0047                 0.0104                 0.0132
 IR Inten    --      2.4543                 0.0394                 0.4137

                      7                      8                      9
                      A                      A                      A
 Frequencies --    128.8659               148.4429               160.8548
 Red. masses --      1.6745                 2.8250                 1.6753
 Frc consts  --      0.0164                 0.0367                 0.0255
 IR Inten    --     12.6298                27.9677                 9.9085

                     10                     11                     12
                      A                      A                      A
 Frequencies --    166.8545               184.8400               198.6602
 Red. masses --      2.9466                 3.8924                 2.1702
 Frc consts  --      0.0483                 0.0784                 0.0505
 IR Inten    --      1.0411                11.7629                 4.7896

                     13                     14                     15
                      A                      A                      A
 Frequencies --    224.0745               233.3982               257.2378
 Red. masses --      3.0694                 2.3196                 1.9905
 Frc consts  --      0.0908                 0.0745                 0.0776
 IR Inten    --     15.0436                 7.3563                18.8420

                     16                     17                     18
                      A                      A                      A
 Frequencies --    273.4099               284.4882               334.5530
 Red. masses --      1.6344                 3.0046                 3.9708
 Frc consts  --      0.0720                 0.1433                 0.2619
 IR Inten    --      3.6046                 9.4492                24.6634

                     19                     20                     21
                      A                      A                      A
 Frequencies --    344.9440               391.1445               430.9884
 Red. masses --      3.7163                 3.4143                 5.8682
 Frc consts  --      0.2605                 0.3078                 0.6422
 IR Inten    --      1.8338                32.3788               114.4051

                     22                     23                     24
                      A                      A                      A
 Frequencies --    446.7972               543.4269               605.1282
 Red. masses --      3.4519                 4.8105                 4.0258
 Frc consts  --      0.4060                 0.8370                 0.8685
 IR Inten    --     52.0720               215.3477                42.7229

                     25                     26                     27
                      A                      A                      A
 Frequencies --    705.1104               769.8086               789.2905
 Red. masses --      5.4351                 1.9019                 3.4045
 Frc consts  --      1.5921                 0.6641                 1.2496
 IR Inten    --     56.0363               126.7847                80.9232

                     28                     29                     30
                      A                      A                      A
 Frequencies --    821.0864               969.0135              1018.2041
 Red. masses --      5.0856                 2.9056                 1.1961
 Frc consts  --      2.0201                 1.6075                 0.7306
 IR Inten    --    159.0383                23.8887                47.9103

                     31                     32                     33
                      A                      A                      A
 Frequencies --   1036.9170              1062.9311              1070.9475
 Red. masses --      1.5121                 1.4436                 1.5667
 Frc consts  --      0.9579                 0.9610                 1.0587
 IR Inten    --    197.4707                30.0773                17.7742

                     34                     35                     36
                      A                      A                      A
 Frequencies --   1081.7015              1089.9084              1125.4128
 Red. masses --      1.3683                 2.3112                 2.0839
 Frc consts  --      0.9433                 1.6176                 1.5551
 IR Inten    --     12.5499                72.9227               133.5974

                     37                     38                     39
                      A                      A                      A
 Frequencies --   1131.9074              1178.0070              1241.6784
 Red. masses --      1.2704                 1.3939                 3.8425
 Frc consts  --      0.9590                 1.1396                 3.4905
 IR Inten    --      5.7054                 8.2188               131.7693

                     40                     41                     42
                      A                      A                      A
 Frequencies --   1254.3108              1314.5181              1345.8863
 Red. masses --      1.3916                 5.5750                 1.2989
 Frc consts  --      1.2900                 5.6759                 1.3862
 IR Inten    --     89.1682                89.9059                 0.6564

                     43                     44                     45
                      A                      A                      A
 Frequencies --   1419.6208              1433.7076              1443.5920
 Red. masses --      1.3076                 1.4142                 1.4469
 Frc consts  --      1.5526                 1.7126                 1.7766
 IR Inten    --     10.2359               140.0763               126.1597

                     46                     47                     48
                      A                      A                      A
 Frequencies --   1452.3485              1468.6676              1477.9111
 Red. masses --      1.1851                 1.2251                 1.0439
 Frc consts  --      1.4728                 1.5570                 1.3434
 IR Inten    --     10.1293               102.4149                17.7161

                     49                     50                     51
                      A                      A                      A
 Frequencies --   1484.1906              1487.8395              1495.9378
 Red. masses --      1.0699                 1.0781                 1.0460
 Frc consts  --      1.3886                 1.4062                 1.3791
 IR Inten    --      3.9636                 5.1648                32.5474

                     52                     53                     54
                      A                      A                      A
 Frequencies --   1501.1155              1501.6741              1506.1748
 Red. masses --      1.0380                 1.0435                 1.0733
 Frc consts  --      1.3781                 1.3865                 1.4345
 IR Inten    --     30.0699                 7.8574                28.2115

                     55                     56                     57
                      A                      A                      A
 Frequencies --   1543.0967              1583.1980              1630.9044
 Red. masses --      1.5576                 5.0267                 1.0882
 Frc consts  --      2.1852                 7.4234                 1.7053
 IR Inten    --    217.2269               576.0962                75.4470

                     58                     59                     60
                      A                      A                      A
 Frequencies --   1672.3804              3029.8116              3037.5614
 Red. masses --      9.2368                 1.0394                 1.0392
 Frc consts  --     15.2209                 5.6219                 5.6491
 IR Inten    --    773.9807                98.6305                46.6170

                     61                     62                     63
                      A                      A                      A
 Frequencies --   3041.4239              3077.0359              3083.1957
 Red. masses --      1.0408                 1.1009                 1.0332
 Frc consts  --      5.6722                 6.1411                 5.7867
 IR Inten    --    121.6508                40.2155                28.1944

                     64                     65                     66
                      A                      A                      A
 Frequencies --   3094.8536              3105.6337              3146.2895
 Red. masses --      1.1035                 1.0997                 1.0964
 Frc consts  --      6.2276                 6.2490                 6.3944
 IR Inten    --     59.6712                23.4385                20.1914

                     67                     68                     69
                      A                      A                      A
 Frequencies --   3166.8273              3172.6714              3182.1456
 Red. masses --      1.1052                 1.0987                 1.0990
 Frc consts  --      6.5302                 6.5160                 6.5567
 IR Inten    --      5.1869                 7.5488                 7.3047

                     70                     71                     72
                      A                      A                      A
 Frequencies --   3184.8304              3497.3520              3585.3649
 Red. masses --      1.1062                 1.0504                 1.0975
 Frc consts  --      6.6106                 7.5700                 8.3125
 IR Inten    --      7.7281                53.4121                57.9279

 - Thermochemistry -
 -------------------
 Temperature   298.150 Kelvin.  Pressure   1.00000 Atm.
 Atom     1 has atomic number  6 and mass  12.00000

 Molecular mass:   255.99780 amu.
 Principal axes and moments of inertia in atomic units:
                           1         2         3
     Eigenvalues --  2079.803654593.282474936.87397
           X            0.99669   0.08088  -0.00758
           Y           -0.08120   0.99463  -0.06412
           Z            0.00235   0.06452   0.99791
 This molecule is an asymmetric top.
 Rotational symmetry number  1.
 Warning -- assumption of classical behavior for rotation
           may cause significant error
 Rotational temperatures (Kelvin)      0.04165     0.01886     0.01754
 Rotational constants (GHZ):           0.86775     0.39291     0.36556
    1 imaginary frequencies ignored.
 Zero-point vibrational energy     557471.5 (Joules/Mol)
                                  133.23888 (Kcal/Mol)
 Warning -- explicit consideration of  23 degrees of freedom as
           vibrations may cause significant error
 Vibrational temperatures:     39.53    70.06   113.81   116.71   134.47
          (Kelvin)            185.41   213.58   231.43   240.07   265.94
                              285.83   322.39   335.81   370.11   393.38
                              409.32   481.35   496.30   562.77   620.10
                              642.84   781.87   870.64  1014.50  1107.58
                             1135.61  1181.36  1394.19  1464.97  1491.89
                             1529.32  1540.85  1556.33  1568.14  1619.22
                             1628.56  1694.89  1786.50  1804.67  1891.30
                             1936.43  2042.52  2062.79  2077.01  2089.61
                             2113.09  2126.38  2135.42  2140.67  2152.32
                             2159.77  2160.57  2167.05  2220.17  2277.87
                             2346.51  2406.18  4359.22  4370.37  4375.93
                             4427.17  4436.03  4452.80  4468.31  4526.81
                             4556.36  4564.77  4578.40  4582.26  5031.91
                             5158.54

 Zero-point correction=                           0.212330 (Hartree/Particle)
 Thermal correction to Energy=                    0.228017
 Thermal correction to Enthalpy=                  0.228961
 Thermal correction to Gibbs Free Energy=         0.167838
 Sum of electronic and zero-point Energies=          -3494.089271
 Sum of electronic and thermal Energies=             -3494.073585
 Sum of electronic and thermal Enthalpies=           -3494.072640
 Sum of electronic and thermal Free Energies=        -3494.133763

                     E (Thermal)             CV                S
                      KCal/Mol        Cal/Mol-Kelvin    Cal/Mol-Kelvin
 Total                  143.083             53.177            128.643
 Electronic               0.000              0.000              0.000
 Translational            0.889              2.981             42.520
 Rotational               0.889              2.981             32.223
 Vibrational            141.305             47.215             53.900
 Vibration     1          0.593              1.984              6.004
 Vibration     2          0.595              1.978              4.870
 Vibration     3          0.600              1.963              3.913
 Vibration     4          0.600              1.962              3.864
 Vibration     5          0.602              1.954              3.586
 Vibration     6          0.611              1.924              2.963
 Vibration     7          0.618              1.904              2.692
 Vibration     8          0.622              1.890              2.540
 Vibration     9          0.624              1.883              2.471
 Vibration    10          0.631              1.861              2.279
 Vibration    11          0.637              1.842              2.145
 Vibration    12          0.649              1.804              1.926
 Vibration    13          0.654              1.790              1.853
 Vibration    14          0.667              1.751              1.680
 Vibration    15          0.676              1.722              1.575
 Vibration    16          0.683              1.702              1.507
 Vibration    17          0.716              1.606              1.238
 Vibration    18          0.723              1.586              1.189
 Vibration    19          0.759              1.489              0.996
 Vibration    20          0.792              1.403              0.855
 Vibration    21          0.806              1.368              0.806
 Vibration    22          0.899              1.154              0.558
 Vibration    23          0.964              1.021              0.441

 Optimization completed.
    -- Stationary point found.
 Normal termination of Gaussian 16 at Fri Jun  3 01:55:35 2022.
