 Gaussian 16, Revision A.03,
 Gaussian 16:  ES64L-G16RevA.03 25-Dec-2016

 ----------------------------------------------------------------------
 # wB97XD def2tzvp, opt=(ts, noeigen, calcfc, maxcycles=70, maxstep=1),
  freq=noraman, scrf=(iefpcm, solvent=water)
 ----------------------------------------------------------------------

 ------------------------
 0_iteration/TS-737-0.out
 ------------------------
 Symbolic Z-matrix:
 Charge =  0 Multiplicity = 1

 SCF Done:  E(RwB97XD) =  -5474.31912697     A.U. after   15 cycles
 SCF Done:  E(RwB97XD) =  -5474.31907380     A.U. after   10 cycles
 SCF Done:  E(RwB97XD) =  -5474.31902579     A.U. after   10 cycles
 SCF Done:  E(RwB97XD) =  -5474.31898255     A.U. after   10 cycles
 SCF Done:  E(RwB97XD) =  -5474.31894409     A.U. after   10 cycles
 SCF Done:  E(RwB97XD) =  -5474.31891066     A.U. after   10 cycles
 SCF Done:  E(RwB97XD) =  -5474.31888233     A.U. after   10 cycles
 SCF Done:  E(RwB97XD) =  -5474.31885908     A.U. after   10 cycles
 SCF Done:  E(RwB97XD) =  -5474.31884101     A.U. after   10 cycles
 SCF Done:  E(RwB97XD) =  -5474.31882857     A.U. after   10 cycles
 SCF Done:  E(RwB97XD) =  -5474.31939384     A.U. after   10 cycles
 SCF Done:  E(RwB97XD) =  -5474.31944005     A.U. after   10 cycles
 SCF Done:  E(RwB97XD) =  -5474.31948297     A.U. after   10 cycles
 SCF Done:  E(RwB97XD) =  -5474.31952018     A.U. after   10 cycles
 SCF Done:  E(RwB97XD) =  -5474.31954931     A.U. after   10 cycles
 SCF Done:  E(RwB97XD) =  -5474.31957012     A.U. after   10 cycles
 SCF Done:  E(RwB97XD) =  -5474.31958225     A.U. after   10 cycles
 SCF Done:  E(RwB97XD) =  -5474.31958454     A.U. after    9 cycles
 SCF Done:  E(RwB97XD) =  -5474.31958453     A.U. after    8 cycles
 Optimization completed.
    -- Stationary point found.
 Normal termination of Gaussian 16 at Sun Feb 21 18:03:37 2021.

 ---------------------------------------------------------------------
 #N Geom=AllCheck Guess=TCheck SCRF=Check GenChk RwB97XD/def2TZVP Freq
 ---------------------------------------------------------------------

 Structure from the checkpoint file:  "/beegfs/scratch/user/q/tla25/Gau-47163.chk"
 ------------------------
 0_iteration/TS-737-0.out
 ------------------------
 Charge =  0 Multiplicity = 1

                         Standard orientation:
 ---------------------------------------------------------------------
 Center     Atomic      Atomic             Coordinates (Angstroms)
 Number     Number       Type             X           Y           Z
 ---------------------------------------------------------------------
      1          6           0        1.062290   -0.885100   -0.269501
      2          6           0        2.302316   -0.323884   -0.694333
      3          8           0        3.333607   -0.961016   -0.912863
      4          6           0       -0.037184   -0.091020    0.014758
      5          6           0        1.077646    0.563848    2.496883
      6          1           0        1.855100   -0.099972    2.117552
      7          1           0        1.299648    1.584711    2.193459
      8          1           0        1.053719    0.504943    3.584064
      9          7           0       -0.195589    0.155388    1.921685
     10          1           0       -0.490767   -0.748441    2.274729
     11          1           0       -0.938741    0.821969    2.101083
     12         35           0       -1.802463   -0.881924   -0.241111
     13         35           0       -0.077065    1.758246   -0.526480
     14          6           0        0.996935   -2.369087   -0.020531
     15          1           0        0.600897   -2.609991    0.969681
     16          1           0        0.373050   -2.885252   -0.754093
     17          1           0        2.005495   -2.774359   -0.087207
     18          1           0        2.313315    0.766992   -0.846138
 ---------------------------------------------------------------------

 SCF Done:  E(RwB97XD) =  -5474.31958453     A.U. after    1 cycles

 The electronic state is 1-A.
 Alpha  occ. eigenvalues -- -483.14731-483.14173 -62.69569 -62.69025 -56.48704
 Alpha  occ. eigenvalues --  -56.48321 -56.48312 -56.48150 -56.47782 -56.47769
 Alpha  occ. eigenvalues --  -19.21317 -14.50174 -10.44370 -10.34922 -10.32274
 Alpha  occ. eigenvalues --  -10.27812 -10.27579  -8.83677  -8.83136  -6.65885
 Alpha  occ. eigenvalues --   -6.65314  -6.64666  -6.64638  -6.64148  -6.64104
 Alpha  occ. eigenvalues --   -2.76262  -2.75912  -2.75891  -2.75693  -2.75368
 Alpha  occ. eigenvalues --   -2.75333  -2.74906  -2.74906  -2.74390  -2.74390
 Alpha  occ. eigenvalues --   -1.11570  -1.05564  -0.96586  -0.88424  -0.87423
 Alpha  occ. eigenvalues --   -0.79737  -0.77749  -0.71495  -0.64643  -0.61146
 Alpha  occ. eigenvalues --   -0.58780  -0.57626  -0.55476  -0.53408  -0.50399
 Alpha  occ. eigenvalues --   -0.48926  -0.48756  -0.46776  -0.46138  -0.45470
 Alpha  occ. eigenvalues --   -0.45369  -0.40656  -0.38896  -0.37973  -0.36871
 Alpha  occ. eigenvalues --   -0.32498  -0.28612
 Alpha virt. eigenvalues --    0.01704   0.03480   0.06747   0.09880   0.13120
 Alpha virt. eigenvalues --    0.14054   0.14405   0.16232   0.17383   0.18967
 Alpha virt. eigenvalues --    0.19311   0.20110   0.21010   0.21703   0.23733

 Mulliken charges:
               1
     1  C   -0.202332
     2  C    0.126013
     3  O   -0.498904
     4  C    0.128407
     5  C   -0.307648
     6  H    0.167966
     7  H    0.162630
     8  H    0.169974
     9  N   -0.319505
    10  H    0.292660
    11  H    0.302507
    12  Br  -0.061212
    13  Br  -0.046146
    14  C   -0.398717
    15  H    0.124781
    16  H    0.137264
    17  H    0.134424
    18  H    0.087837
 Sum of Mulliken charges =  -0.00000

 Dipole moment (field-independent basis, Debye):
    X=             -5.6850    Y=              2.5020    Z=              7.7982  Tot=              9.9695
 Quadrupole moment (field-independent basis, Debye-Ang):
   XX=           -102.2852   YY=            -78.7649   ZZ=            -68.0857
   XY=              8.1129   XZ=              6.1468   YZ=             -1.5050

  Exact polarizability: 197.293  -7.263 164.586 -17.490   5.455 146.354
 Approx polarizability: 158.584  -4.449 135.907 -13.206   2.862 123.009

 ******    1 imaginary frequencies (negative Signs) ******

                      1                      2                      3
                      A                      A                      A
 Frequencies --   -370.8962                57.1014                70.7109
 Red. masses --      5.8955                 2.1001                 4.2990
 Frc consts  --      0.4778                 0.0040                 0.0127
 IR Inten    --    780.1057                 0.3765                 1.0717

                      4                      5                      6
                      A                      A                      A
 Frequencies --    106.5381               128.5853               145.5666
 Red. masses --      1.6598                 2.9976                 1.3918
 Frc consts  --      0.0111                 0.0292                 0.0174
 IR Inten    --      6.5886                 2.2354                 1.8086

                      7                      8                      9
                      A                      A                      A
 Frequencies --    165.3832               172.2945               200.7543
 Red. masses --      2.9383                12.4721                 2.5853
 Frc consts  --      0.0474                 0.2181                 0.0614
 IR Inten    --      2.9052                 6.9326                 8.3803

                     10                     11                     12
                      A                      A                      A
 Frequencies --    241.8839               277.9034               284.6328
 Red. masses --      3.0683                 4.0601                 4.1313
 Frc consts  --      0.1058                 0.1847                 0.1972
 IR Inten    --     10.3335                13.2942                14.8993

                     13                     14                     15
                      A                      A                      A
 Frequencies --    325.8068               337.4027               376.8672
 Red. masses --      3.4958                 4.9841                 3.5734
 Frc consts  --      0.2186                 0.3343                 0.2990
 IR Inten    --      2.8316                15.7746                 8.8583

                     16                     17                     18
                      A                      A                      A
 Frequencies --    529.7388               645.3054               721.5431
 Red. masses --      3.9693                 1.7132                 3.7579
 Frc consts  --      0.6563                 0.4203                 1.1527
 IR Inten    --    113.4450                10.0428               234.3586

                     19                     20                     21
                      A                      A                      A
 Frequencies --    786.0825               897.6204              1004.2024
 Red. masses --      4.4139                 3.5535                 1.1106
 Frc consts  --      1.6070                 1.6869                 0.6598
 IR Inten    --    173.7333                39.4517                49.4195

                     22                     23                     24
                      A                      A                      A
 Frequencies --   1017.6512              1029.8630              1039.7991
 Red. masses --      1.5708                 1.5156                 1.1559
 Frc consts  --      0.9585                 0.9471                 0.7364
 IR Inten    --     50.4100               169.5977               129.6741

                     25                     26                     27
                      A                      A                      A
 Frequencies --   1066.5347              1080.8831              1220.9389
 Red. masses --      1.4463                 4.8626                 1.3925
 Frc consts  --      0.9693                 3.3471                 1.2230
 IR Inten    --     15.2868                51.2242                27.0489

                     28                     29                     30
                      A                      A                      A
 Frequencies --   1328.2021              1338.3072              1394.2607
 Red. masses --      3.3636                 1.3278                 4.2189
 Frc consts  --      3.4960                 1.4012                 4.8321
 IR Inten    --    685.1461                 2.0004               513.2719

                     31                     32                     33
                      A                      A                      A
 Frequencies --   1404.4235              1457.7531              1468.0090
 Red. masses --      1.2502                 1.1842                 1.2055
 Frc consts  --      1.4528                 1.4827                 1.5306
 IR Inten    --    118.5032                 3.7194                11.6342

                     34                     35                     36
                      A                      A                      A
 Frequencies --   1484.6633              1494.4234              1499.4364
 Red. masses --      1.1303                 1.0540                 1.0654
 Frc consts  --      1.4680                 1.3868                 1.4113
 IR Inten    --     54.1800                75.0568                46.2215

                     37                     38                     39
                      A                      A                      A
 Frequencies --   1503.4908              1638.4579              1664.5686
 Red. masses --      1.2126                 1.0906                 7.3810
 Frc consts  --      1.6149                 1.7250                12.0495
 IR Inten    --    126.4244                69.5787              1030.9844

                     40                     41                     42
                      A                      A                      A
 Frequencies --   2992.1078              3040.0180              3072.5751
 Red. masses --      1.0826                 1.0389                 1.0330
 Frc consts  --      5.7104                 5.6566                 5.7457
 IR Inten    --     91.9453                51.7802                21.5506

                     43                     44                     45
                      A                      A                      A
 Frequencies --   3095.4953              3146.5451              3152.4095
 Red. masses --      1.1013                 1.0983                 1.1043
 Frc consts  --      6.2177                 6.4066                 6.4659
 IR Inten    --     36.1298                 8.6790                 4.1219

                     46                     47                     48
                      A                      A                      A
 Frequencies --   3172.2770              3515.5466              3599.9126
 Red. masses --      1.1058                 1.0506                 1.0973
 Frc consts  --      6.5564                 7.6504                 8.3783
 IR Inten    --      8.4325                79.5303                62.7312

 - Thermochemistry -
 -------------------
 Temperature   298.150 Kelvin.  Pressure   1.00000 Atm.
 Atom     1 has atomic number  6 and mass  12.00000

 Molecular mass:   256.90509 amu.
 Principal axes and moments of inertia in atomic units:
                           1         2         3
     Eigenvalues --  2258.531722719.132643510.18744
           X            0.98909  -0.14716   0.00662
           Y            0.14674   0.98825   0.04284
           Z           -0.01285  -0.04140   0.99906
 This molecule is an asymmetric top.
 Rotational symmetry number  1.
 Warning -- assumption of classical behavior for rotation
           may cause significant error
 Rotational temperatures (Kelvin)      0.03835     0.03185     0.02468
 Rotational constants (GHZ):           0.79908     0.66372     0.51414
    1 imaginary frequencies ignored.
 Zero-point vibrational energy     361239.2 (Joules/Mol)
                                   86.33824 (Kcal/Mol)
 Warning -- explicit consideration of  15 degrees of freedom as
           vibrations may cause significant error
 Vibrational temperatures:     82.16   101.74   153.28   185.01   209.44
          (Kelvin)            237.95   247.89   288.84   348.02   399.84
                              409.52   468.76   485.45   542.23   762.18
                              928.45  1038.14  1131.00  1291.48  1444.82
                             1464.17  1481.74  1496.04  1534.51  1555.15
                             1756.66  1910.99  1925.53  2006.03  2020.65
                             2097.38  2112.14  2136.10  2150.14  2157.35
                             2163.19  2357.38  2394.94  4304.98  4373.91
                             4420.75  4453.73  4527.18  4535.61  4564.20
                             5058.09  5179.47

 Zero-point correction=                           0.137589 (Hartree/Particle)
 Thermal correction to Energy=                    0.149211
 Thermal correction to Enthalpy=                  0.150155
 Thermal correction to Gibbs Free Energy=         0.098171
 Sum of electronic and zero-point Energies=          -5474.181996
 Sum of electronic and thermal Energies=             -5474.170373
 Sum of electronic and thermal Enthalpies=           -5474.169429
 Sum of electronic and thermal Free Energies=        -5474.221413

                     E (Thermal)             CV                S
                      KCal/Mol        Cal/Mol-Kelvin    Cal/Mol-Kelvin
 Total                   93.631             38.556            109.410
 Electronic               0.000              0.000              0.000
 Translational            0.889              2.981             42.531
 Rotational               0.889              2.981             31.445
 Vibrational             91.854             32.595             35.435
 Vibration     1          0.596              1.975              4.555
 Vibration     2          0.598              1.968              4.133
 Vibration     3          0.605              1.944              3.331
 Vibration     4          0.611              1.925              2.967
 Vibration     5          0.617              1.907              2.729
 Vibration     6          0.624              1.885              2.487
 Vibration     7          0.626              1.877              2.410
 Vibration     8          0.638              1.839              2.126
 Vibration     9          0.658              1.776              1.789
 Vibration    10          0.679              1.714              1.547
 Vibration    11          0.683              1.702              1.506
 Vibration    12          0.710              1.624              1.281
 Vibration    13          0.718              1.601              1.224
 Vibration    14          0.747              1.519              1.052
 Vibration    15          0.885              1.184              0.588

 Optimization completed.
    -- Stationary point found.
 Normal termination of Gaussian 16 at Sun Feb 21 18:15:44 2021.
