 Gaussian 16, Revision A.03,
 Gaussian 16:  ES64L-G16RevA.03 25-Dec-2016

 ----------------------------------------------------------------------
 # wB97XD def2tzvp, opt=(ts, noeigen, calcfc, maxcycles=70, maxstep=1),
  freq=noraman, scrf=(iefpcm, solvent=water)
 ----------------------------------------------------------------------

 ------------------------
 0_iteration/TS-777-0.out
 ------------------------
 Symbolic Z-matrix:
 Charge =  0 Multiplicity = 1

 SCF Done:  E(RwB97XD) =  -3360.31308360     A.U. after   15 cycles
 SCF Done:  E(RwB97XD) =  -3360.31308691     A.U. after   10 cycles
 SCF Done:  E(RwB97XD) =  -3360.31309633     A.U. after    9 cycles
 SCF Done:  E(RwB97XD) =  -3360.31311183     A.U. after   10 cycles
 SCF Done:  E(RwB97XD) =  -3360.31313680     A.U. after   10 cycles
 SCF Done:  E(RwB97XD) =  -3360.31316351     A.U. after   10 cycles
 SCF Done:  E(RwB97XD) =  -3360.31320689     A.U. after   10 cycles
 SCF Done:  E(RwB97XD) =  -3360.31326652     A.U. after   10 cycles
 SCF Done:  E(RwB97XD) =  -3360.31334657     A.U. after   10 cycles
 SCF Done:  E(RwB97XD) =  -3360.31344304     A.U. after   10 cycles
 SCF Done:  E(RwB97XD) =  -3360.31710641     A.U. after   10 cycles
 SCF Done:  E(RwB97XD) =  -3360.31711841     A.U. after   10 cycles
 SCF Done:  E(RwB97XD) =  -3360.31712616     A.U. after   10 cycles
 SCF Done:  E(RwB97XD) =  -3360.31712770     A.U. after   10 cycles
 SCF Done:  E(RwB97XD) =  -3360.31712797     A.U. after    9 cycles
 SCF Done:  E(RwB97XD) =  -3360.31712804     A.U. after    7 cycles
 SCF Done:  E(RwB97XD) =  -3360.31712808     A.U. after    8 cycles
 SCF Done:  E(RwB97XD) =  -3360.31712808     A.U. after    7 cycles
 SCF Done:  E(RwB97XD) =  -3360.31712804     A.U. after    7 cycles
 Optimization completed.
    -- Stationary point found.
 Normal termination of Gaussian 16 at Sun Feb 21 18:34:47 2021.

 ---------------------------------------------------------------------
 #N Geom=AllCheck Guess=TCheck SCRF=Check GenChk RwB97XD/def2TZVP Freq
 ---------------------------------------------------------------------

 Structure from the checkpoint file:  "/beegfs/scratch/user/q/tla25/Gau-82614.chk"
 ------------------------
 0_iteration/TS-777-0.out
 ------------------------
 Charge =  0 Multiplicity = 1

                         Standard orientation:
 ---------------------------------------------------------------------
 Center     Atomic      Atomic             Coordinates (Angstroms)
 Number     Number       Type             X           Y           Z
 ---------------------------------------------------------------------
      1          6           0        1.034113   -0.698404    0.013985
      2          6           0        2.284624   -0.471426   -0.632615
      3          8           0        3.300863   -1.148746   -0.471141
      4          6           0       -0.042534    0.149340   -0.190561
      5          6           0        1.065474    2.023807    1.567184
      6          1           0        1.049788    2.540000    2.526072
      7          1           0        1.843417    1.259257    1.584047
      8          1           0        1.281348    2.736740    0.774593
      9          7           0       -0.208635    1.374363    1.297228
     10          1           0       -0.509336    0.801033    2.077385
     11          1           0       -0.949061    2.034151    1.085783
     12         35           0       -1.833000   -0.614611   -0.031909
     13         17           0       -0.011170    1.327816   -1.490562
     14          6           0        0.928587   -1.819256    1.011998
     15          1           0        0.539207   -1.483891    1.977229
     16          1           0        0.279759   -2.626044    0.662814
     17          1           0        1.923327   -2.230592    1.175984
     18          1           0        2.318418    0.372912   -1.338970
 ---------------------------------------------------------------------

 SCF Done:  E(RwB97XD) =  -3360.31712804     A.U. after    1 cycles

 The electronic state is 1-A.
 Alpha  occ. eigenvalues -- -483.14100-101.71756 -62.68957 -56.48079 -56.47714
 Alpha  occ. eigenvalues --  -56.47701 -19.21306 -14.49942 -10.44839 -10.34929
 Alpha  occ. eigenvalues --  -10.32200 -10.27783 -10.27568  -9.60334  -8.83069
 Alpha  occ. eigenvalues --   -7.35008  -7.34093  -7.34072  -6.65244  -6.64083
 Alpha  occ. eigenvalues --   -6.64041  -2.75624  -2.75299  -2.75267  -2.74327
 Alpha  occ. eigenvalues --   -2.74327  -1.11557  -1.05742  -0.99767  -0.90841
 Alpha  occ. eigenvalues --   -0.87491  -0.79643  -0.77971  -0.71623  -0.64597
 Alpha  occ. eigenvalues --   -0.61436  -0.58975  -0.58287  -0.56205  -0.53939
 Alpha  occ. eigenvalues --   -0.50436  -0.49395  -0.48734  -0.47581  -0.46424
 Alpha  occ. eigenvalues --   -0.46199  -0.45450  -0.42283  -0.40798  -0.38000
 Alpha  occ. eigenvalues --   -0.37782  -0.32605  -0.28646
 Alpha virt. eigenvalues --    0.02235   0.03932   0.09143   0.10031   0.13258
 Alpha virt. eigenvalues --    0.14194   0.14563   0.16440   0.17544   0.19114
 Alpha virt. eigenvalues --    0.19373   0.20214   0.21482   0.21903   0.24068

 Mulliken charges:
               1
     1  C   -0.192457
     2  C    0.119991
     3  O   -0.499730
     4  C    0.148717
     5  C   -0.306125
     6  H    0.168493
     7  H    0.166198
     8  H    0.161812
     9  N   -0.327191
    10  H    0.292442
    11  H    0.300979
    12  Br  -0.066647
    13  Cl  -0.049870
    14  C   -0.393994
    15  H    0.124116
    16  H    0.136587
    17  H    0.133935
    18  H    0.082745
 Sum of Mulliken charges =  -0.00000

 Dipole moment (field-independent basis, Debye):
    X=             -5.6686    Y=              6.3637    Z=              5.1756  Tot=              9.9708
 Quadrupole moment (field-independent basis, Debye-Ang):
   XX=            -95.9660   YY=            -69.0988   ZZ=            -66.8718
   XY=              9.2439   XZ=              1.8931   YZ=              4.0197

  Exact polarizability: 189.135 -15.259 152.383 -11.551   0.022 132.318
 Approx polarizability: 151.318 -10.951 126.067  -8.543  -1.653 113.670

 ******    1 imaginary frequencies (negative Signs) ******

                      1                      2                      3
                      A                      A                      A
 Frequencies --   -366.5141                73.6714                82.0917
 Red. masses --      5.8508                 3.9501                 2.2733
 Frc consts  --      0.4631                 0.0126                 0.0090
 IR Inten    --    806.2300                 0.8801                 0.6954

                      4                      5                      6
                      A                      A                      A
 Frequencies --    106.8102               140.0142               151.3977
 Red. masses --      1.2738                 1.4325                 2.8610
 Frc consts  --      0.0086                 0.0165                 0.0386
 IR Inten    --      4.3107                 0.9700                 1.7083

                      7                      8                      9
                      A                      A                      A
 Frequencies --    170.0733               207.7594               220.5061
 Red. masses --      2.4879                 4.6601                 8.4598
 Frc consts  --      0.0424                 0.1185                 0.2424
 IR Inten    --      5.0365                12.4646                 6.4939

                     10                     11                     12
                      A                      A                      A
 Frequencies --    273.6341               281.0736               286.3403
 Red. masses --      3.8444                 3.4667                 5.2214
 Frc consts  --      0.1696                 0.1614                 0.2522
 IR Inten    --      8.3766                11.6863                24.5626

                     13                     14                     15
                      A                      A                      A
 Frequencies --    337.5318               366.9048               426.6653
 Red. masses --      3.5344                 3.2539                 6.4357
 Frc consts  --      0.2372                 0.2581                 0.6903
 IR Inten    --      1.4562                 5.2624                21.7034

                     16                     17                     18
                      A                      A                      A
 Frequencies --    543.1169               650.3274               725.8545
 Red. masses --      4.6184                 1.5967                 3.6849
 Frc consts  --      0.8027                 0.3979                 1.1439
 IR Inten    --    134.3369                 5.5230               241.8942

                     19                     20                     21
                      A                      A                      A
 Frequencies --    812.0420               910.9207              1006.2119
 Red. masses --      5.6205                 3.4292                 1.1060
 Frc consts  --      2.1837                 1.6765                 0.6597
 IR Inten    --    182.3113                61.8723                45.7133

                     22                     23                     24
                      A                      A                      A
 Frequencies --   1021.5569              1037.1063              1042.5113
 Red. masses --      1.6109                 1.4236                 1.2438
 Frc consts  --      0.9905                 0.9022                 0.7964
 IR Inten    --     25.3867               171.6008               155.4608

                     25                     26                     27
                      A                      A                      A
 Frequencies --   1069.0811              1082.7638              1218.9652
 Red. masses --      1.4413                 4.7580                 1.3948
 Frc consts  --      0.9706                 3.2866                 1.2211
 IR Inten    --     24.7800                50.5003                25.0416

                     28                     29                     30
                      A                      A                      A
 Frequencies --   1332.8516              1339.2327              1405.3749
 Red. masses --      3.4400                 1.3263                 4.1851
 Frc consts  --      3.6006                 1.4015                 4.8701
 IR Inten    --    738.3072                 0.7508               470.1195

                     31                     32                     33
                      A                      A                      A
 Frequencies --   1410.9277              1457.3111              1473.5443
 Red. masses --      1.2662                 1.1801                 1.1213
 Frc consts  --      1.4851                 1.4766                 1.4344
 IR Inten    --    170.5470                 3.6532                 3.2738

                     34                     35                     36
                      A                      A                      A
 Frequencies --   1488.7650              1493.3785              1498.7401
 Red. masses --      1.0787                 1.0420                 1.0441
 Frc consts  --      1.4087                 1.3692                 1.3818
 IR Inten    --     19.4537                37.4800                25.2273

                     37                     38                     39
                      A                      A                      A
 Frequencies --   1508.0984              1641.5801              1666.8383
 Red. masses --      1.4340                 1.0903                 6.7984
 Frc consts  --      1.9215                 1.7312                11.1287
 IR Inten    --    202.1918                64.8438              1011.3509

                     40                     41                     42
                      A                      A                      A
 Frequencies --   2994.7883              3039.8306              3071.1237
 Red. masses --      1.0824                 1.0392                 1.0336
 Frc consts  --      5.7198                 5.6579                 5.7435
 IR Inten    --     95.8211                48.1216                23.2795

                     43                     44                     45
                      A                      A                      A
 Frequencies --   3094.2276              3148.0816              3149.3384
 Red. masses --      1.1011                 1.0979                 1.1038
 Frc consts  --      6.2115                 6.4105                 6.4504
 IR Inten    --     36.6946                 9.4019                 3.8708

                     46                     47                     48
                      A                      A                      A
 Frequencies --   3174.2995              3522.2569              3606.8149
 Red. masses --      1.1056                 1.0504                 1.0972
 Frc consts  --      6.5634                 7.6781                 8.4097
 IR Inten    --      8.2715                75.8522                61.5211

 - Thermochemistry -
 -------------------
 Temperature   298.150 Kelvin.  Pressure   1.00000 Atm.
 Atom     1 has atomic number  6 and mass  12.00000

 Molecular mass:   212.95560 amu.
 Principal axes and moments of inertia in atomic units:
                           1         2         3
     Eigenvalues --  1588.261342596.222432948.60361
           X            0.99946  -0.03004   0.01302
           Y            0.02879   0.99575   0.08750
           Z           -0.01559  -0.08707   0.99608
 This molecule is an asymmetric top.
 Rotational symmetry number  1.
 Warning -- assumption of classical behavior for rotation
           may cause significant error
 Rotational temperatures (Kelvin)      0.05453     0.03336     0.02937
 Rotational constants (GHZ):           1.13630     0.69514     0.61207
    1 imaginary frequencies ignored.
 Zero-point vibrational energy     363439.5 (Joules/Mol)
                                   86.86412 (Kcal/Mol)
 Warning -- explicit consideration of  15 degrees of freedom as
           vibrations may cause significant error
 Vibrational temperatures:    106.00   118.11   153.68   201.45   217.83
          (Kelvin)            244.70   298.92   317.26   393.70   404.40
                              411.98   485.63   527.89   613.88   781.42
                              935.68  1044.34  1168.35  1310.61  1447.71
                             1469.79  1492.16  1499.94  1538.17  1557.86
                             1753.82  1917.68  1926.86  2022.02  2030.01
                             2096.75  2120.10  2142.00  2148.64  2156.35
                             2169.82  2361.87  2398.21  4308.83  4373.64
                             4418.66  4451.90  4529.39  4531.20  4567.11
                             5067.74  5189.40

 Zero-point correction=                           0.138427 (Hartree/Particle)
 Thermal correction to Energy=                    0.149696
 Thermal correction to Enthalpy=                  0.150640
 Thermal correction to Gibbs Free Energy=         0.100286
 Sum of electronic and zero-point Energies=          -3360.178701
 Sum of electronic and thermal Energies=             -3360.167432
 Sum of electronic and thermal Enthalpies=           -3360.166488
 Sum of electronic and thermal Free Energies=        -3360.216842

                     E (Thermal)             CV                S
                      KCal/Mol        Cal/Mol-Kelvin    Cal/Mol-Kelvin
 Total                   93.935             38.046            105.978
 Electronic               0.000              0.000              0.000
 Translational            0.889              2.981             41.971
 Rotational               0.889              2.981             30.876
 Vibrational             92.158             32.085             33.131
 Vibration     1          0.599              1.966              4.053
 Vibration     2          0.600              1.961              3.840
 Vibration     3          0.606              1.944              3.326
 Vibration     4          0.615              1.913              2.804
 Vibration     5          0.619              1.901              2.655
 Vibration     6          0.625              1.879              2.435
 Vibration     7          0.641              1.829              2.063
 Vibration     8          0.647              1.810              1.955
 Vibration     9          0.676              1.722              1.573
 Vibration    10          0.681              1.709              1.527
 Vibration    11          0.684              1.699              1.495
 Vibration    12          0.718              1.601              1.224
 Vibration    13          0.740              1.540              1.093
 Vibration    14          0.788              1.412              0.870
 Vibration    15          0.898              1.155              0.559

 Optimization completed.
    -- Stationary point found.
 Normal termination of Gaussian 16 at Sun Feb 21 18:45:42 2021.
