 Gaussian 16, Revision A.03,
 Gaussian 16:  ES64L-G16RevA.03 25-Dec-2016

 ----------------------------------------------------------------------
 # wB97XD def2tzvp, opt=(ts, noeigen, calcfc, maxcycles=70, maxstep=8),
  freq=noraman, scrf=(iefpcm, solvent=water)
 ----------------------------------------------------------------------

 ------------------------
 1_iteration/TS-798-1.out
 ------------------------
 Symbolic Z-matrix:
 Charge =  0 Multiplicity = 1

 SCF Done:  E(RwB97XD) =  -3914.59154666     A.U. after   16 cycles
 SCF Done:  E(RwB97XD) =  -3914.59154669     A.U. after    9 cycles
 Optimization completed.
    -- Stationary point found.
 Normal termination of Gaussian 16 at Mon Feb 22 06:11:27 2021.

 ---------------------------------------------------------------------
 #N Geom=AllCheck Guess=TCheck SCRF=Check GenChk RwB97XD/def2TZVP Freq
 ---------------------------------------------------------------------

 Structure from the checkpoint file:  "/beegfs/scratch/user/q/tla25/Gau-49755.chk"
 ------------------------
 1_iteration/TS-798-1.out
 ------------------------
 Charge =  0 Multiplicity = 1

                         Standard orientation:
 ---------------------------------------------------------------------
 Center     Atomic      Atomic             Coordinates (Angstroms)
 Number     Number       Type             X           Y           Z
 ---------------------------------------------------------------------
      1          6           0       -0.416307    0.588032   -0.230001
      2          6           0       -1.863173    0.673973    0.129360
      3          8           0       -2.312616    1.669268    0.696533
      4          6           0        0.524646   -0.169357    0.406604
      5          6           0        2.046355    1.943435    1.321544
      6          1           0        1.216356    2.604220    1.088256
      7          1           0        2.613617    2.347139    2.158502
      8          1           0        2.694551    1.842654    0.454616
      9          7           0        1.511145    0.625612    1.676531
     10          1           0        2.251133   -0.015702    1.950599
     11          1           0        0.863085    0.705541    2.455297
     12         35           0        2.098994   -0.832906   -0.709608
     13         17           0       -0.105542   -1.493018    1.391265
     14         17           0        0.072834    1.799094   -1.398822
     15          7           0       -2.659050   -0.360473   -0.219715
     16          6           0       -2.282852   -1.430203   -1.119751
     17          6           0       -4.046217   -0.360549    0.198496
     18          1           0       -1.278866   -1.264887   -1.499542
     19          1           0       -2.316573   -2.394853   -0.608446
     20          1           0       -2.980406   -1.459332   -1.960473
     21          1           0       -4.160921    0.241208    1.095286
     22          1           0       -4.694534    0.046040   -0.583163
     23          1           0       -4.354644   -1.385711    0.406332
 ---------------------------------------------------------------------

 SCF Done:  E(RwB97XD) =  -3914.59154669     A.U. after    1 cycles

 The electronic state is 1-A.
 Alpha  occ. eigenvalues -- -483.12487-101.71630-101.69423 -62.67343 -56.46444
 Alpha  occ. eigenvalues --  -56.46109 -56.46102 -19.21223 -14.51977 -14.46824
 Alpha  occ. eigenvalues --  -10.44955 -10.39249 -10.32722 -10.31334 -10.30972
 Alpha  occ. eigenvalues --  -10.30736  -9.60208  -9.57923  -8.81444  -7.34882
 Alpha  occ. eigenvalues --   -7.33959  -7.33953  -7.32571  -7.31713  -7.31686
 Alpha  occ. eigenvalues --   -6.63543  -6.62487  -6.62464  -2.73922  -2.73637
 Alpha  occ. eigenvalues --   -2.73618  -2.72765  -2.72764  -1.14245  -1.07603
 Alpha  occ. eigenvalues --   -1.04006  -0.99576  -0.95586  -0.87725  -0.83643
 Alpha  occ. eigenvalues --   -0.81653  -0.80558  -0.79065  -0.69417  -0.65750
 Alpha  occ. eigenvalues --   -0.62633  -0.60618  -0.59586  -0.57541  -0.56737
 Alpha  occ. eigenvalues --   -0.55518  -0.53672  -0.51605  -0.49652  -0.49169
 Alpha  occ. eigenvalues --   -0.48800  -0.48539  -0.47433  -0.46497  -0.45879
 Alpha  occ. eigenvalues --   -0.43431  -0.41732  -0.41115  -0.39970  -0.37701
 Alpha  occ. eigenvalues --   -0.36597  -0.35022  -0.32530  -0.26849
 Alpha virt. eigenvalues --    0.01678   0.05759   0.08281   0.10017   0.11510
 Alpha virt. eigenvalues --    0.12411   0.14717   0.14910   0.15406   0.16412
 Alpha virt. eigenvalues --    0.17328   0.17893   0.18959   0.19302   0.19871

 Mulliken charges:
               1
     1  C   -0.182471
     2  C    0.270196
     3  O   -0.498487
     4  C    0.055879
     5  C   -0.305177
     6  H    0.166910
     7  H    0.171440
     8  H    0.164130
     9  N   -0.228387
    10  H    0.300800
    11  H    0.295032
    12  Br  -0.182486
    13  Cl  -0.060485
    14  Cl  -0.158031
    15  N   -0.100938
    16  C   -0.307565
    17  C   -0.283729
    18  H    0.165895
    19  H    0.148687
    20  H    0.143374
    21  H    0.144193
    22  H    0.142028
    23  H    0.139191
 Sum of Mulliken charges =  -0.00000

 Dipole moment (field-independent basis, Debye):
    X=              3.2093    Y=             -2.4589    Z=              4.6280  Tot=              6.1452
 Quadrupole moment (field-independent basis, Debye-Ang):
   XX=            -89.0159   YY=           -103.6267   ZZ=            -89.6224
   XY=             18.1224   XZ=             14.3895   YZ=              3.9534

  Exact polarizability: 218.901  -4.113 197.048  -3.087   3.351 180.077
 Approx polarizability: 169.770  -3.339 166.778  -4.823   0.674 156.307

 ******    1 imaginary frequencies (negative Signs) ******

                      1                      2                      3
                      A                      A                      A
 Frequencies --   -388.9742                28.8431                37.9606
 Red. masses --      7.0474                 5.7003                 6.2929
 Frc consts  --      0.6282                 0.0028                 0.0053
 IR Inten    --    490.3210                13.0158                 6.1362

                      4                      5                      6
                      A                      A                      A
 Frequencies --     78.8611                88.8542                92.1857
 Red. masses --      1.4849                 2.2757                 2.6933
 Frc consts  --      0.0054                 0.0106                 0.0135
 IR Inten    --      0.1970                 0.2547                 2.0199

                      7                      8                      9
                      A                      A                      A
 Frequencies --    115.1608               148.3043               170.2693
 Red. masses --      6.5924                 3.2226                 8.8174
 Frc consts  --      0.0515                 0.0418                 0.1506
 IR Inten    --      8.5424                 1.6965                 8.0450

                     10                     11                     12
                      A                      A                      A
 Frequencies --    176.8261               194.2310               200.5099
 Red. masses --      3.9602                 1.9230                 1.8755
 Frc consts  --      0.0730                 0.0427                 0.0444
 IR Inten    --      4.4974                 7.5039                 5.0939

                     13                     14                     15
                      A                      A                      A
 Frequencies --    233.7525               243.8732               270.0530
 Red. masses --      7.8636                 2.0554                 2.0517
 Frc consts  --      0.2532                 0.0720                 0.0882
 IR Inten    --      5.2318                15.8683                13.2361

                     16                     17                     18
                      A                      A                      A
 Frequencies --    279.5710               313.3328               347.9773
 Red. masses --      2.5874                 6.8105                 3.6510
 Frc consts  --      0.1191                 0.3939                 0.2605
 IR Inten    --     13.9488                43.1641                 0.4028

                     19                     20                     21
                      A                      A                      A
 Frequencies --    381.2747               399.3176               464.1131
 Red. masses --      7.2673                 4.1886                 3.1857
 Frc consts  --      0.6224                 0.3935                 0.4043
 IR Inten    --     12.0032                27.8063                73.0313

                     22                     23                     24
                      A                      A                      A
 Frequencies --    526.4466               593.6328               701.7892
 Red. masses --      4.5168                 7.6567                 6.3851
 Frc consts  --      0.7375                 1.5898                 1.8528
 IR Inten    --    226.5063               130.9519                43.8937

                     25                     26                     27
                      A                      A                      A
 Frequencies --    750.0612               790.7112               830.2378
 Red. masses --      5.3488                 3.1636                 2.5726
 Frc consts  --      1.7730                 1.1654                 1.0448
 IR Inten    --     53.3287               207.3601               108.6934

                     28                     29                     30
                      A                      A                      A
 Frequencies --    901.2370              1042.4621              1049.4238
 Red. masses --      5.3500                 1.9254                 1.6362
 Frc consts  --      2.5602                 1.2328                 1.0617
 IR Inten    --     40.0552                74.2133                37.0587

                     31                     32                     33
                      A                      A                      A
 Frequencies --   1062.4493              1086.6126              1105.7801
 Red. masses --      1.9687                 1.3772                 1.4755
 Frc consts  --      1.3093                 0.9580                 1.0630
 IR Inten    --      4.3519                17.6693                61.6302

                     34                     35                     36
                      A                      A                      A
 Frequencies --   1129.7054              1176.4207              1207.7688
 Red. masses --      1.2338                 1.3997                 2.9570
 Frc consts  --      0.9278                 1.1413                 2.5414
 IR Inten    --      1.2850                 5.3334               222.5539

                     37                     38                     39
                      A                      A                      A
 Frequencies --   1283.6581              1313.5895              1349.4732
 Red. masses --      1.3282                 5.4173                 1.2769
 Frc consts  --      1.2894                 5.5074                 1.3701
 IR Inten    --     79.1508                74.5578                 0.3013

                     40                     41                     42
                      A                      A                      A
 Frequencies --   1436.1861              1446.7040              1453.1488
 Red. masses --      1.6267                 1.3448                 1.3225
 Frc consts  --      1.9768                 1.6583                 1.6454
 IR Inten    --    241.9378                61.6219                97.4966

                     43                     44                     45
                      A                      A                      A
 Frequencies --   1473.4878              1483.8697              1485.2814
 Red. masses --      1.2051                 1.1915                 1.8199
 Frc consts  --      1.5416                 1.5458                 2.3655
 IR Inten    --    109.3710               112.1365               286.8426

                     46                     47                     48
                      A                      A                      A
 Frequencies --   1493.5229              1495.5464              1499.4292
 Red. masses --      1.1881                 1.0584                 1.1277
 Frc consts  --      1.5615                 1.3948                 1.4938
 IR Inten    --     66.2486                42.3654                 5.3113

                     49                     50                     51
                      A                      A                      A
 Frequencies --   1501.5714              1541.5044              1634.3325
 Red. masses --      1.0858                 1.6454                 1.0859
 Frc consts  --      1.4425                 2.3036                 1.7089
 IR Inten    --     62.3191               210.9760                68.4669

                     52                     53                     54
                      A                      A                      A
 Frequencies --   1669.0982              3042.2816              3045.9943
 Red. masses --      8.7501                 1.0396                 1.0406
 Frc consts  --     14.3625                 5.6689                 5.6884
 IR Inten    --    808.3067                41.4412               114.6503

                     55                     56                     57
                      A                      A                      A
 Frequencies --   3088.9037              3101.9196              3114.6988
 Red. masses --      1.0333                 1.1037                 1.0980
 Frc consts  --      5.8090                 6.2567                 6.2763
 IR Inten    --     17.0632                53.3173                24.1372

                     58                     59                     60
                      A                      A                      A
 Frequencies --   3174.4993              3179.0849              3179.5769
 Red. masses --      1.1049                 1.1004                 1.0988
 Frc consts  --      6.5605                 6.5525                 6.5448
 IR Inten    --      4.8649                 5.3831                11.4971

                     61                     62                     63
                      A                      A                      A
 Frequencies --   3197.1386              3489.1717              3573.7387
 Red. masses --      1.1070                 1.0512                 1.0969
 Frc consts  --      6.6667                 7.5400                 8.2541
 IR Inten    --      4.4106                60.3327                64.7519

 - Thermochemistry -
 -------------------
 Temperature   298.150 Kelvin.  Pressure   1.00000 Atm.
 Atom     1 has atomic number  6 and mass  12.00000

 Molecular mass:   275.94318 amu.
 Principal axes and moments of inertia in atomic units:
                           1         2         3
     Eigenvalues --  2459.548614648.841895089.37017
           X            0.99645   0.06566   0.05275
           Y           -0.07268   0.98684   0.14446
           Z           -0.04257  -0.14778   0.98810
 This molecule is an asymmetric top.
 Rotational symmetry number  1.
 Warning -- assumption of classical behavior for rotation
           may cause significant error
 Rotational temperatures (Kelvin)      0.03522     0.01863     0.01702
 Rotational constants (GHZ):           0.73377     0.38821     0.35461
    1 imaginary frequencies ignored.
 Zero-point vibrational energy     460367.4 (Joules/Mol)
                                  110.03045 (Kcal/Mol)
 Warning -- explicit consideration of  22 degrees of freedom as
           vibrations may cause significant error
 Vibrational temperatures:     41.50    54.62   113.46   127.84   132.63
          (Kelvin)            165.69   213.38   244.98   254.41   279.46
                              288.49   336.32   350.88   388.55   402.24
                              450.82   500.66   548.57   574.53   667.76
                              757.44   854.11  1009.72  1079.17  1137.66
                             1194.53  1296.68  1499.87  1509.89  1528.63
                             1563.39  1590.97  1625.39  1692.61  1737.71
                             1846.90  1889.96  1941.59  2066.35  2081.48
                             2090.76  2120.02  2134.96  2136.99  2148.85
                             2151.76  2157.34  2160.43  2217.88  2351.44
                             2401.46  4377.16  4382.51  4444.24  4462.97
                             4481.36  4567.40  4573.99  4574.70  4599.97
                             5020.14  5141.81

 Zero-point correction=                           0.175345 (Hartree/Particle)
 Thermal correction to Energy=                    0.190529
 Thermal correction to Enthalpy=                  0.191473
 Thermal correction to Gibbs Free Energy=         0.130869
 Sum of electronic and zero-point Energies=          -3914.416202
 Sum of electronic and thermal Energies=             -3914.401018
 Sum of electronic and thermal Enthalpies=           -3914.400074
 Sum of electronic and thermal Free Energies=        -3914.460677

                     E (Thermal)             CV                S
                      KCal/Mol        Cal/Mol-Kelvin    Cal/Mol-Kelvin
 Total                  119.559             50.794            127.551
 Electronic               0.000              0.000              0.000
 Translational            0.889              2.981             42.744
 Rotational               0.889              2.981             32.431
 Vibrational            117.781             44.833             52.377
 Vibration     1          0.593              1.984              5.907
 Vibration     2          0.594              1.982              5.363
 Vibration     3          0.600              1.963              3.919
 Vibration     4          0.602              1.957              3.685
 Vibration     5          0.602              1.955              3.613
 Vibration     6          0.608              1.937              3.180
 Vibration     7          0.618              1.905              2.694
 Vibration     8          0.625              1.879              2.433
 Vibration     9          0.628              1.871              2.362
 Vibration    10          0.635              1.848              2.187
 Vibration    11          0.638              1.839              2.128
 Vibration    12          0.654              1.789              1.850
 Vibration    13          0.659              1.773              1.774
 Vibration    14          0.674              1.728              1.596
 Vibration    15          0.680              1.711              1.536
 Vibration    16          0.701              1.648              1.345
 Vibration    17          0.726              1.579              1.175
 Vibration    18          0.751              1.510              1.034
 Vibration    19          0.765              1.472              0.965
 Vibration    20          0.822              1.330              0.754
 Vibration    21          0.881              1.191              0.595
 Vibration    22          0.951              1.045              0.461

 Optimization completed.
    -- Stationary point found.
 Normal termination of Gaussian 16 at Mon Feb 22 06:41:19 2021.
