 Gaussian 16, Revision A.03,
 Gaussian 16:  ES64L-G16RevA.03 25-Dec-2016

 ----------------------------------------------------------------------
 # wB97XD def2tzvp, opt=(ts, noeigen, calcfc, maxcycles=70, maxstep=8),
  freq=noraman, scrf=(iefpcm, solvent=water)
 ----------------------------------------------------------------------

 ------------------------
 1_iteration/TS-731-1.out
 ------------------------
 Symbolic Z-matrix:
 Charge =  0 Multiplicity = 1

 SCF Done:  E(RwB97XD) =  -5490.39362331     A.U. after   15 cycles
 SCF Done:  E(RwB97XD) =  -5490.39387649     A.U. after   11 cycles
 SCF Done:  E(RwB97XD) =  -5490.39388754     A.U. after   10 cycles
 SCF Done:  E(RwB97XD) =  -5490.39388933     A.U. after    9 cycles
 SCF Done:  E(RwB97XD) =  -5490.39387308     A.U. after   12 cycles
 SCF Done:  E(RwB97XD) =  -5490.39389050     A.U. after   12 cycles
 SCF Done:  E(RwB97XD) =  -5490.39389089     A.U. after    8 cycles
 SCF Done:  E(RwB97XD) =  -5490.39389121     A.U. after   10 cycles
 SCF Done:  E(RwB97XD) =  -5490.39389158     A.U. after   10 cycles
 SCF Done:  E(RwB97XD) =  -5490.39389185     A.U. after    8 cycles
 SCF Done:  E(RwB97XD) =  -5490.39389202     A.U. after    8 cycles
 SCF Done:  E(RwB97XD) =  -5490.39389199     A.U. after    8 cycles
 Optimization completed.
    -- Stationary point found.
 Normal termination of Gaussian 16 at Mon Feb 22 02:48:46 2021.

 ---------------------------------------------------------------------
 #N Geom=AllCheck Guess=TCheck SCRF=Check GenChk RwB97XD/def2TZVP Freq
 ---------------------------------------------------------------------

 Structure from the checkpoint file:  "/beegfs/scratch/user/q/tla25/Gau-27857.chk"
 ------------------------
 1_iteration/TS-731-1.out
 ------------------------
 Charge =  0 Multiplicity = 1

                         Standard orientation:
 ---------------------------------------------------------------------
 Center     Atomic      Atomic             Coordinates (Angstroms)
 Number     Number       Type             X           Y           Z
 ---------------------------------------------------------------------
      1          6           0        0.903992   -0.721460   -0.799713
      2          6           0        2.289164   -0.463915   -0.458290
      3          8           0        2.635912    0.176767    0.543606
      4          6           0       -0.126515   -0.093692   -0.154905
      5          6           0       -0.000307   -1.978599    1.970430
      6          1           0        0.491438   -2.249172    2.905019
      7          1           0       -1.016081   -2.367395    1.970737
      8          1           0        0.554751   -2.425816    1.140674
      9          7           0       -0.023620   -0.542028    1.769344
     10          1           0        0.889540   -0.123511    1.928421
     11          1           0       -0.727212   -0.065121    2.319174
     12         35           0       -1.884979   -0.691971   -0.611964
     13         35           0       -0.111132    1.839817    0.133864
     14          1           0        0.670248   -1.548360   -1.454000
     15          7           0        3.218033   -1.019032   -1.277093
     16          1           0        2.963922   -1.456968   -2.142937
     17          1           0        4.191087   -0.878970   -1.073313
 ---------------------------------------------------------------------

 SCF Done:  E(RwB97XD) =  -5490.39389199     A.U. after    1 cycles

 The electronic state is 1-A.
 Alpha  occ. eigenvalues -- -483.14321-483.13397 -62.69165 -62.68244 -56.48295
 Alpha  occ. eigenvalues --  -56.47920 -56.47909 -56.47371 -56.46999 -56.46989
 Alpha  occ. eigenvalues --  -19.20847 -14.47929 -14.44343 -10.43338 -10.38656
 Alpha  occ. eigenvalues --  -10.31434 -10.26779  -8.83279  -8.82354  -6.65477
 Alpha  occ. eigenvalues --   -6.64535  -6.64276  -6.64245  -6.63359  -6.63325
 Alpha  occ. eigenvalues --   -2.75859  -2.75512  -2.75489  -2.74912  -2.74583
 Alpha  occ. eigenvalues --   -2.74556  -2.74517  -2.74517  -2.73605  -2.73605
 Alpha  occ. eigenvalues --   -1.13259  -1.03621  -0.99933  -0.95597  -0.87553
 Alpha  occ. eigenvalues --   -0.84401  -0.78553  -0.71928  -0.64780  -0.63058
 Alpha  occ. eigenvalues --   -0.60644  -0.58408  -0.57028  -0.54717  -0.51930
 Alpha  occ. eigenvalues --   -0.51082  -0.49586  -0.47730  -0.46861  -0.45243
 Alpha  occ. eigenvalues --   -0.40184  -0.38454  -0.36816  -0.36702  -0.35261
 Alpha  occ. eigenvalues --   -0.34372  -0.29004
 Alpha virt. eigenvalues --    0.02100   0.04428   0.07274   0.11050   0.13157
 Alpha virt. eigenvalues --    0.14425   0.16447   0.17067   0.17371   0.19152
 Alpha virt. eigenvalues --    0.19746   0.20443   0.21804   0.22955   0.24265

 Mulliken charges:
               1
     1  C   -0.543708
     2  C    0.383116
     3  O   -0.544572
     4  C    0.206423
     5  C   -0.283883
     6  H    0.155193
     7  H    0.155961
     8  H    0.145523
     9  N   -0.354510
    10  H    0.279134
    11  H    0.287602
    12  Br  -0.051460
    13  Br  -0.089965
    14  H    0.174564
    15  N   -0.471698
    16  H    0.282120
    17  H    0.270159
 Sum of Mulliken charges =  -0.00000

 Dipole moment (field-independent basis, Debye):
    X=             -0.8286    Y=             -4.3669    Z=              1.3094  Tot=              4.6336
 Quadrupole moment (field-independent basis, Debye-Ang):
   XX=            -77.9075   YY=            -76.3926   ZZ=            -67.3294
   XY=             -5.8928   XZ=            -10.9741   YZ=              0.6166

  Exact polarizability: 176.709  -1.468 153.201 -12.797   6.159 149.900
 Approx polarizability: 137.481   1.026 126.889  -6.263   8.820 127.300

 ******    1 imaginary frequencies (negative Signs) ******

                      1                      2                      3
                      A                      A                      A
 Frequencies --   -405.1899                72.9460                86.4829
 Red. masses --      5.0463                 7.3765                 1.3593
 Frc consts  --      0.4881                 0.0231                 0.0060
 IR Inten    --    559.6842                 1.2556               235.2077

                      4                      5                      6
                      A                      A                      A
 Frequencies --     93.6571               116.4770               122.5660
 Red. masses --      2.6573                 6.7217                 3.3293
 Frc consts  --      0.0137                 0.0537                 0.0295
 IR Inten    --    116.1097                 8.4918                22.5693

                      7                      8                      9
                      A                      A                      A
 Frequencies --    156.2495               166.9341               199.5443
 Red. masses --      2.2340                 6.8577                 1.6472
 Frc consts  --      0.0321                 0.1126                 0.0386
 IR Inten    --     10.8476                 4.9793                15.3558

                     10                     11                     12
                      A                      A                      A
 Frequencies --    240.0719               259.6192               281.8472
 Red. masses --      3.4558                11.5752                 4.0654
 Frc consts  --      0.1173                 0.4597                 0.1903
 IR Inten    --      5.8661                 1.8075                16.4662

                     13                     14                     15
                      A                      A                      A
 Frequencies --    330.5842               432.1428               525.2032
 Red. masses --      5.4512                 3.7030                 1.1377
 Frc consts  --      0.3510                 0.4074                 0.1849
 IR Inten    --     23.1746                47.8898                25.4031

                     16                     17                     18
                      A                      A                      A
 Frequencies --    552.2123               617.1603               663.3067
 Red. masses --      2.0498                 2.5916                 1.3269
 Frc consts  --      0.3683                 0.5816                 0.3440
 IR Inten    --     29.4611                82.6771                61.2750

                     19                     20                     21
                      A                      A                      A
 Frequencies --    686.9773               793.1047               828.7689
 Red. masses --      2.6120                 6.9291                 4.7703
 Frc consts  --      0.7263                 2.5680                 1.9305
 IR Inten    --    122.1943                64.6861               107.4054

                     22                     23                     24
                      A                      A                      A
 Frequencies --    966.5143               988.0972              1052.0515
 Red. masses --      2.7069                 1.1143                 1.1358
 Frc consts  --      1.4898                 0.6410                 0.7407
 IR Inten    --     47.0870                96.2307               101.2258

                     25                     26                     27
                      A                      A                      A
 Frequencies --   1091.5934              1098.2368              1196.4915
 Red. masses --      3.8541                 2.2777                 1.4089
 Frc consts  --      2.7058                 1.6186                 1.1884
 IR Inten    --     32.7479                31.7935                20.1032

                     28                     29                     30
                      A                      A                      A
 Frequencies --   1247.5026              1344.5000              1381.3133
 Red. masses --      1.3636                 1.3392                 4.0905
 Frc consts  --      1.2503                 1.4263                 4.5984
 IR Inten    --    437.4653                 3.1224                78.9225

                     31                     32                     33
                      A                      A                      A
 Frequencies --   1459.2537              1484.8036              1489.6019
 Red. masses --      1.2844                 1.7829                 1.4205
 Frc consts  --      1.6115                 2.3159                 1.8571
 IR Inten    --    212.1913               708.8987               403.3745

                     34                     35                     36
                      A                      A                      A
 Frequencies --   1506.2657              1617.2076              1633.2612
 Red. masses --      1.0416                 1.3588                 1.1813
 Frc consts  --      1.3924                 2.0937                 1.8567
 IR Inten    --      1.0349               165.5516               275.9483

                     37                     38                     39
                      A                      A                      A
 Frequencies --   1671.5127              3048.3500              3120.9281
 Red. masses --      3.7775                 1.0375                 1.0996
 Frc consts  --      6.2184                 5.6804                 6.3104
 IR Inten    --    445.6170                41.8865                13.9509

                     40                     41                     42
                      A                      A                      A
 Frequencies --   3164.7704              3227.0443              3486.1851
 Red. masses --      1.1042                 1.0901                 1.0549
 Frc consts  --      6.5162                 6.6883                 7.5536
 IR Inten    --     14.5320                 0.5348                54.2457

                     43                     44                     45
                      A                      A                      A
 Frequencies --   3605.1197              3631.5386              3761.9217
 Red. masses --      1.0937                 1.0453                 1.1058
 Frc consts  --      8.3750                 8.1224                 9.2205
 IR Inten    --    103.7737               114.9723                77.1148

 - Thermochemistry -
 -------------------
 Temperature   298.150 Kelvin.  Pressure   1.00000 Atm.
 Atom     1 has atomic number  6 and mass  12.00000

 Molecular mass:   257.90034 amu.
 Principal axes and moments of inertia in atomic units:
                           1         2         3
     Eigenvalues --  2097.072072959.434523713.57457
           X            0.99476  -0.09277  -0.04307
           Y            0.08987   0.99383  -0.06506
           Z            0.04884   0.06085   0.99695
 This molecule is an asymmetric top.
 Rotational symmetry number  1.
 Warning -- assumption of classical behavior for rotation
           may cause significant error
 Rotational temperatures (Kelvin)      0.04130     0.02927     0.02332
 Rotational constants (GHZ):           0.86060     0.60983     0.48598
    1 imaginary frequencies ignored.
 Zero-point vibrational energy     331963.2 (Joules/Mol)
                                   79.34112 (Kcal/Mol)
 Warning -- explicit consideration of  16 degrees of freedom as
           vibrations may cause significant error
 Vibrational temperatures:    104.95   124.43   134.75   167.58   176.35
          (Kelvin)            224.81   240.18   287.10   345.41   373.53
                              405.52   475.64   621.76   755.65   794.51
                              887.96   954.35   988.41  1141.10  1192.41
                             1390.60  1421.65  1513.67  1570.56  1580.12
                             1721.48  1794.88  1934.44  1987.40  2099.54
                             2136.30  2143.20  2167.18  2326.80  2349.90
                             2404.93  4385.90  4490.32  4553.40  4643.00
                             5015.84  5186.96  5224.97  5412.57

 Zero-point correction=                           0.126438 (Hartree/Particle)
 Thermal correction to Energy=                    0.138031
 Thermal correction to Enthalpy=                  0.138975
 Thermal correction to Gibbs Free Energy=         0.087096
 Sum of electronic and zero-point Energies=          -5490.267454
 Sum of electronic and thermal Energies=             -5490.255861
 Sum of electronic and thermal Enthalpies=           -5490.254917
 Sum of electronic and thermal Free Energies=        -5490.306796

                     E (Thermal)             CV                S
                      KCal/Mol        Cal/Mol-Kelvin    Cal/Mol-Kelvin
 Total                   86.616             38.695            109.190
 Electronic               0.000              0.000              0.000
 Translational            0.889              2.981             42.542
 Rotational               0.889              2.981             31.511
 Vibrational             84.838             32.734             35.137
 Vibration     1          0.599              1.967              4.072
 Vibration     2          0.601              1.959              3.738
 Vibration     3          0.603              1.954              3.582
 Vibration     4          0.608              1.936              3.158
 Vibration     5          0.610              1.930              3.060
 Vibration     6          0.620              1.896              2.595
 Vibration     7          0.624              1.883              2.470
 Vibration     8          0.638              1.841              2.137
 Vibration     9          0.657              1.779              1.802
 Vibration    10          0.668              1.746              1.664
 Vibration    11          0.681              1.707              1.522
 Vibration    12          0.713              1.614              1.257
 Vibration    13          0.793              1.400              0.852
 Vibration    14          0.880              1.194              0.598
 Vibration    15          0.908              1.135              0.540
 Vibration    16          0.977              0.996              0.421

 Optimization completed.
    -- Stationary point found.
 Normal termination of Gaussian 16 at Mon Feb 22 03:00:26 2021.
