 Gaussian 16, Revision A.03,
 Gaussian 16:  ES64L-G16RevA.03 25-Dec-2016

 ----------------------------------------------------------------------
 # wB97XD def2tzvp, opt=(ts, noeigen, calcfc, maxcycles=70, maxstep=3),
  freq=noraman, scrf=(iefpcm, solvent=water)
 ----------------------------------------------------------------------

 ------------------------
 0_iteration/TS-787-0.out
 ------------------------
 Symbolic Z-matrix:
 Charge =  0 Multiplicity = 1

 SCF Done:  E(RwB97XD) =  -5949.98783843     A.U. after   15 cycles
 SCF Done:  E(RwB97XD) =  -5949.98789044     A.U. after   12 cycles
 SCF Done:  E(RwB97XD) =  -5949.98807188     A.U. after   12 cycles
 SCF Done:  E(RwB97XD) =  -5949.98835349     A.U. after   12 cycles
 SCF Done:  E(RwB97XD) =  -5949.98870906     A.U. after   12 cycles
 SCF Done:  E(RwB97XD) =  -5949.98908341     A.U. after   12 cycles
 SCF Done:  E(RwB97XD) =  -5949.98942600     A.U. after   12 cycles
 SCF Done:  E(RwB97XD) =  -5949.98970644     A.U. after   12 cycles
 SCF Done:  E(RwB97XD) =  -5949.98991062     A.U. after   12 cycles
 SCF Done:  E(RwB97XD) =  -5949.99000242     A.U. after   12 cycles
 SCF Done:  E(RwB97XD) =  -5949.99001049     A.U. after   10 cycles
 SCF Done:  E(RwB97XD) =  -5949.99001172     A.U. after   10 cycles
 SCF Done:  E(RwB97XD) =  -5949.99001205     A.U. after    9 cycles
 SCF Done:  E(RwB97XD) =  -5949.99001214     A.U. after    7 cycles
 Optimization completed.
    -- Stationary point found.
 Normal termination of Gaussian 16 at Sat Apr 10 08:59:52 2021.

 ---------------------------------------------------------------------
 #N Geom=AllCheck Guess=TCheck SCRF=Check GenChk RwB97XD/def2TZVP Freq
 ---------------------------------------------------------------------

 Structure from the checkpoint file:  "/beegfs/scratch/user/q/tla25/Gau-182898.chk"
 ------------------------
 0_iteration/TS-787-0.out
 ------------------------
 Charge =  0 Multiplicity = 1

                         Standard orientation:
 ---------------------------------------------------------------------
 Center     Atomic      Atomic             Coordinates (Angstroms)
 Number     Number       Type             X           Y           Z
 ---------------------------------------------------------------------
      1          6           0        0.778229    0.203373   -0.263639
      2          6           0        1.883949    1.162268   -0.207665
      3          8           0        3.058543    0.804179   -0.172931
      4          6           0       -0.574430    0.503460   -0.167734
      5          6           0       -0.414452    0.432706    2.614257
      6          1           0        0.644681    0.296827    2.398953
      7          1           0       -0.523343    0.932120    3.575900
      8          1           0       -0.903281   -0.538344    2.651117
      9          7           0       -1.004206    1.230290    1.545234
     10          1           0       -2.012435    1.309301    1.628304
     11          1           0       -0.611395    2.166212    1.532507
     12         35           0       -1.859413   -0.921426   -0.242927
     13         17           0       -1.232488    1.878349   -1.116371
     14         35           0        1.362467   -1.604619   -0.120462
     15          7           0        1.591182    2.498982   -0.099739
     16          1           0        0.738859    2.866567   -0.484727
     17          1           0        2.395368    3.097774   -0.191447
 ---------------------------------------------------------------------

 SCF Done:  E(RwB97XD) =  -5949.99001214     A.U. after    1 cycles

 The electronic state is 1-A.
 Alpha  occ. eigenvalues -- -483.15117-483.12578-101.72028 -62.69959 -62.67409
 Alpha  occ. eigenvalues --  -56.49105 -56.48710 -56.48689 -56.46537 -56.46166
 Alpha  occ. eigenvalues --  -56.46157 -19.21085 -14.50559 -14.44540 -10.46127
 Alpha  occ. eigenvalues --  -10.39636 -10.32470 -10.32465  -9.60624  -8.84071
 Alpha  occ. eigenvalues --   -8.81526  -7.35285  -7.34391  -7.34359  -6.66316
 Alpha  occ. eigenvalues --   -6.65055  -6.64996  -6.63712  -6.62525  -6.62502
 Alpha  occ. eigenvalues --   -2.76688  -2.76334  -2.76288  -2.75268  -2.75268
 Alpha  occ. eigenvalues --   -2.74095  -2.73750  -2.73731  -2.72772  -2.72771
 Alpha  occ. eigenvalues --   -1.14079  -1.06366  -1.00939  -0.99168  -0.92587
 Alpha  occ. eigenvalues --   -0.89444  -0.82213  -0.79977  -0.72492  -0.65672
 Alpha  occ. eigenvalues --   -0.64645  -0.61568  -0.59228  -0.58809  -0.56021
 Alpha  occ. eigenvalues --   -0.53736  -0.51746  -0.50416  -0.48955  -0.48510
 Alpha  occ. eigenvalues --   -0.46694  -0.42937  -0.41578  -0.40184  -0.39623
 Alpha  occ. eigenvalues --   -0.38661  -0.36985  -0.36003  -0.33852  -0.28628
 Alpha virt. eigenvalues --    0.02359   0.02646   0.05038   0.10159   0.11928
 Alpha virt. eigenvalues --    0.14068   0.14351   0.15732   0.16920   0.18051
 Alpha virt. eigenvalues --    0.18567   0.19589   0.20846   0.22768   0.24566

 Mulliken charges:
               1
     1  C   -0.243090
     2  C    0.270471
     3  O   -0.489420
     4  C    0.110243
     5  C   -0.298465
     6  H    0.164821
     7  H    0.169589
     8  H    0.163670
     9  N   -0.310456
    10  H    0.302125
    11  H    0.287866
    12  Br  -0.012180
    13  Cl  -0.066556
    14  Br  -0.105362
    15  N   -0.469221
    16  H    0.256513
    17  H    0.269453
 Sum of Mulliken charges =  -0.00000

 Dipole moment (field-independent basis, Debye):
    X=             -7.8508    Y=              5.4969    Z=              5.0659  Tot=             10.8404
 Quadrupole moment (field-independent basis, Debye-Ang):
   XX=           -106.3503   YY=            -77.4945   ZZ=            -82.0336
   XY=             -0.0927   XZ=             -4.7264   YZ=              3.1905

  Exact polarizability: 198.168  -4.825 180.806  -7.141  -1.497 142.546
 Approx polarizability: 160.968  -5.565 153.345  -3.888  -1.543 122.934

 ******    1 imaginary frequencies (negative Signs) ******

                      1                      2                      3
                      A                      A                      A
 Frequencies --   -374.8114                39.6458                69.5907
 Red. masses --      5.6011                11.0290                 2.8803
 Frc consts  --      0.4636                 0.0102                 0.0082
 IR Inten    --    627.9653                 7.9427                 0.1321

                      4                      5                      6
                      A                      A                      A
 Frequencies --     77.9597               126.4085               150.4939
 Red. masses --      4.9288                 5.8196                 7.9153
 Frc consts  --      0.0176                 0.0548                 0.1056
 IR Inten    --     11.5212                 2.5651                 2.7151

                      7                      8                      9
                      A                      A                      A
 Frequencies --    160.0266               194.8235               204.1775
 Red. masses --      1.5553                 2.7462                 9.5002
 Frc consts  --      0.0235                 0.0614                 0.2333
 IR Inten    --      1.1074                 2.2154                16.8844

                     10                     11                     12
                      A                      A                      A
 Frequencies --    239.1406               243.1099               282.7002
 Red. masses --      4.8807                 9.2826                 5.1994
 Frc consts  --      0.1645                 0.3232                 0.2448
 IR Inten    --      4.1558                 1.7841                 0.7873

                     13                     14                     15
                      A                      A                      A
 Frequencies --    304.3380               354.2272               397.1006
 Red. masses --      5.6236                10.8321                 4.2770
 Frc consts  --      0.3069                 0.8008                 0.3974
 IR Inten    --     15.3592                16.2433                13.0040

                     16                     17                     18
                      A                      A                      A
 Frequencies --    467.6021               496.2627               539.0123
 Red. masses --      1.2977                 2.4167                 1.5376
 Frc consts  --      0.1672                 0.3507                 0.2632
 IR Inten    --     70.4707               399.3611                66.7621

                     19                     20                     21
                      A                      A                      A
 Frequencies --    616.5968               669.9512               735.2295
 Red. masses --      3.8159                 1.5491                 8.5539
 Frc consts  --      0.8548                 0.4096                 2.7243
 IR Inten    --     41.5302                36.9715               241.2740

                     22                     23                     24
                      A                      A                      A
 Frequencies --    777.7274               835.9699              1008.6153
 Red. masses --      8.3839                 3.5421                 2.1989
 Frc consts  --      2.9878                 1.4584                 1.3180
 IR Inten    --     61.7931                71.8550                 6.4864

                     25                     26                     27
                      A                      A                      A
 Frequencies --   1011.0466              1059.4633              1082.7749
 Red. masses --      1.6133                 1.2530                 3.9366
 Frc consts  --      0.9717                 0.8287                 2.7193
 IR Inten    --     32.1586                38.0571                68.5579

                     28                     29                     30
                      A                      A                      A
 Frequencies --   1113.4384              1237.3910              1343.4898
 Red. masses --      1.7729                 1.3847                 1.4380
 Frc consts  --      1.2950                 1.2492                 1.5292
 IR Inten    --    152.9516                32.9077               122.5499

                     31                     32                     33
                      A                      A                      A
 Frequencies --   1357.5138              1384.7222              1460.0850
 Red. masses --      3.4260                 7.1599                 1.2036
 Frc consts  --      3.7199                 8.0888                 1.5118
 IR Inten    --    875.2885               427.5384                 7.2831

                     34                     35                     36
                      A                      A                      A
 Frequencies --   1491.5949              1499.9410              1617.6489
 Red. masses --      1.0423                 1.0319                 1.3070
 Frc consts  --      1.3663                 1.3678                 2.0151
 IR Inten    --     27.1830                15.1341               331.7469

                     37                     38                     39
                      A                      A                      A
 Frequencies --   1636.8068              1679.8073              3076.6110
 Red. masses --      1.0908                 5.3411                 1.0325
 Frc consts  --      1.7218                 8.8798                 5.7584
 IR Inten    --     96.1026               680.1302                19.0247

                     40                     41                     42
                      A                      A                      A
 Frequencies --   3158.5133              3174.4004              3512.4712
 Red. masses --      1.1052                 1.1063                 1.0502
 Frc consts  --      6.4959                 6.5682                 7.6342
 IR Inten    --      6.0355                 7.8405                72.0291

                     43                     44                     45
                      A                      A                      A
 Frequencies --   3597.0084              3601.3845              3712.5393
 Red. masses --      1.0970                 1.0470                 1.1013
 Frc consts  --      8.3629                 8.0005                 8.9436
 IR Inten    --     73.1894                46.6542               134.3211

 - Thermochemistry -
 -------------------
 Temperature   298.150 Kelvin.  Pressure   1.00000 Atm.
 Atom     1 has atomic number  6 and mass  12.00000

 Molecular mass:   291.86136 amu.
 Principal axes and moments of inertia in atomic units:
                           1         2         3
     Eigenvalues --  2689.962203349.615674631.93802
           X            0.99732   0.07018  -0.02045
           Y           -0.06986   0.99743   0.01583
           Z            0.02151  -0.01436   0.99967
 This molecule is an asymmetric top.
 Rotational symmetry number  1.
 Warning -- assumption of classical behavior for rotation
           may cause significant error
 Rotational temperatures (Kelvin)      0.03220     0.02586     0.01870
 Rotational constants (GHZ):           0.67092     0.53879     0.38963
    1 imaginary frequencies ignored.
 Zero-point vibrational energy     309829.0 (Joules/Mol)
                                   74.05091 (Kcal/Mol)
 Warning -- explicit consideration of  18 degrees of freedom as
           vibrations may cause significant error
 Vibrational temperatures:     57.04   100.13   112.17   181.87   216.53
          (Kelvin)            230.24   280.31   293.77   344.07   349.78
                              406.74   437.87   509.65   571.34   672.78
                              714.01   775.52   887.15   963.91  1057.83
                             1118.98  1202.77  1451.17  1454.67  1524.33
                             1557.87  1601.99  1780.33  1932.98  1953.16
                             1992.31  2100.74  2146.07  2158.08  2327.44
                             2355.00  2416.87  4426.56  4544.40  4567.25
                             5053.66  5175.29  5181.59  5341.52

 Zero-point correction=                           0.118008 (Hartree/Particle)
 Thermal correction to Energy=                    0.130287
 Thermal correction to Enthalpy=                  0.131231
 Thermal correction to Gibbs Free Energy=         0.077323
 Sum of electronic and zero-point Energies=          -5949.872005
 Sum of electronic and thermal Energies=             -5949.859725
 Sum of electronic and thermal Enthalpies=           -5949.858781
 Sum of electronic and thermal Free Energies=        -5949.912689

                     E (Thermal)             CV                S
                      KCal/Mol        Cal/Mol-Kelvin    Cal/Mol-Kelvin
 Total                   81.756             41.449            113.460
 Electronic               0.000              0.000              0.000
 Translational            0.889              2.981             42.911
 Rotational               0.889              2.981             32.101
 Vibrational             79.979             35.487             38.449
 Vibration     1          0.594              1.981              5.277
 Vibration     2          0.598              1.969              4.165
 Vibration     3          0.599              1.964              3.942
 Vibration     4          0.611              1.927              3.000
 Vibration     5          0.618              1.902              2.666
 Vibration     6          0.622              1.891              2.549
 Vibration     7          0.635              1.847              2.181
 Vibration     8          0.640              1.834              2.095
 Vibration     9          0.657              1.781              1.809
 Vibration    10          0.659              1.774              1.780
 Vibration    11          0.682              1.706              1.517
 Vibration    12          0.695              1.665              1.393
 Vibration    13          0.730              1.567              1.147
 Vibration    14          0.764              1.476              0.973
 Vibration    15          0.825              1.322              0.744
 Vibration    16          0.852              1.258              0.668
 Vibration    17          0.894              1.164              0.567
 Vibration    18          0.976              0.997              0.422

 Optimization completed.
    -- Stationary point found.
 Normal termination of Gaussian 16 at Sat Apr 10 09:06:33 2021.
