 Gaussian 16, Revision C.01,
 Gaussian 16:  ES64L-G16RevC.01  3-Jul-2019

 ----------------------------------------------------------------------
 # wb97xd def2tzvp opt=(ts, noeigen, calcfc, maxcycles=100, maxstep=10)
  freq=noraman scrf=(iefpcm, solvent=water)
 ----------------------------------------------------------------------

 ----------
 TS-781.out
 ----------
 Symbolic Z-matrix:
 Charge =  0 Multiplicity = 1

 SCF Done:  E(RwB97XD) =  -3454.99899559     A.U. after   15 cycles
 SCF Done:  E(RwB97XD) =  -3454.99790985     A.U. after   13 cycles
 SCF Done:  E(RwB97XD) =  -3454.99721724     A.U. after   13 cycles
 SCF Done:  E(RwB97XD) =  -3454.99706972     A.U. after   13 cycles
 SCF Done:  E(RwB97XD) =  -3454.99816933     A.U. after   14 cycles
 SCF Done:  E(RwB97XD) =  -3454.99929048     A.U. after   13 cycles
 SCF Done:  E(RwB97XD) =  -3454.99969320     A.U. after   13 cycles
 SCF Done:  E(RwB97XD) =  -3455.00055005     A.U. after   13 cycles
 SCF Done:  E(RwB97XD) =  -3455.00138000     A.U. after   14 cycles
 SCF Done:  E(RwB97XD) =  -3455.00156299     A.U. after   12 cycles
 SCF Done:  E(RwB97XD) =  -3455.00163089     A.U. after   11 cycles
 SCF Done:  E(RwB97XD) =  -3455.00163170     A.U. after    9 cycles
 SCF Done:  E(RwB97XD) =  -3455.00163192     A.U. after    9 cycles
 SCF Done:  E(RwB97XD) =  -3455.00163219     A.U. after    8 cycles
 SCF Done:  E(RwB97XD) =  -3455.00163235     A.U. after    9 cycles
 SCF Done:  E(RwB97XD) =  -3455.00163240     A.U. after    8 cycles
 SCF Done:  E(RwB97XD) =  -3455.00163235     A.U. after    8 cycles
 SCF Done:  E(RwB97XD) =  -3455.00163231     A.U. after    8 cycles
 SCF Done:  E(RwB97XD) =  -3455.00163227     A.U. after    7 cycles
 Optimization completed.
    -- Stationary point found.
 Normal termination of Gaussian 16 at Fri Jun  3 00:12:07 2022.

 ---------------------------------------------------------------------
 #N Geom=AllCheck Guess=TCheck SCRF=Check GenChk RwB97XD/def2TZVP Freq
 ---------------------------------------------------------------------

 Structure from the checkpoint file:  "/local/jobs/107285/Gau-2567224.chk"
 ----------
 TS-781.out
 ----------
 Charge =  0 Multiplicity = 1

                         Standard orientation:
 ---------------------------------------------------------------------
 Center     Atomic      Atomic             Coordinates (Angstroms)
 Number     Number       Type             X           Y           Z
 ---------------------------------------------------------------------
      1          6           0       -0.508216    0.702408    0.424874
      2          6           0       -1.932608    0.773462    0.078020
      3          8           0       -2.543483    1.844254    0.196629
      4          6           0        0.425517   -0.201579   -0.018222
      5          6           0       -0.037733   -1.950501    2.008412
      6          1           0        0.311316   -2.397884    2.936888
      7          1           0       -0.794269   -1.196036    2.226337
      8          1           0       -0.463477   -2.720667    1.369872
      9          7           0        1.061596   -1.294293    1.306648
     10          1           0        1.581405   -0.682523    1.926970
     11          1           0        1.717064   -1.954092    0.899309
     12         35           0        2.268947    0.560996   -0.487113
     13         17           0        0.056301   -1.400915   -1.251229
     14          6           0       -0.029251    1.824535    1.318291
     15          1           0        0.803108    1.519554    1.954945
     16          1           0        0.306583    2.696409    0.747695
     17          1           0       -0.839148    2.150754    1.968466
     18          7           0       -2.611597   -0.326277   -0.331712
     19          6           0       -4.004356   -0.260490   -0.703447
     20          1           0       -2.161078   -1.220140   -0.337430
     21          1           0       -4.308571   -1.235504   -1.079060
     22          1           0       -4.638838    0.001316    0.146677
     23          1           0       -4.166592    0.482468   -1.485975
 ---------------------------------------------------------------------

 SCF Done:  E(RwB97XD) =  -3455.00163227     A.U. after    1 cycles

 The electronic state is 1-A.
 Alpha  occ. eigenvalues -- -483.12280-101.71668 -62.67145 -56.46242 -56.45912
 Alpha  occ. eigenvalues --  -56.45903 -19.19654 -14.51323 -14.44302 -10.44429
 Alpha  occ. eigenvalues --  -10.37656 -10.32597 -10.30533 -10.27278 -10.26993
 Alpha  occ. eigenvalues --   -9.60268  -8.81251  -7.34928  -7.34031  -7.34010
 Alpha  occ. eigenvalues --   -6.63340  -6.62304  -6.62271  -2.73721  -2.73445
 Alpha  occ. eigenvalues --   -2.73419  -2.72580  -2.72580  -1.12551  -1.06962
 Alpha  occ. eigenvalues --   -1.01125  -0.98785  -0.89705  -0.86030  -0.80283
 Alpha  occ. eigenvalues --   -0.80077  -0.76410  -0.69113  -0.65840  -0.65534
 Alpha  occ. eigenvalues --   -0.60142  -0.58536  -0.56649  -0.55789  -0.53576
 Alpha  occ. eigenvalues --   -0.51708  -0.50537  -0.49812  -0.49148  -0.47672
 Alpha  occ. eigenvalues --   -0.47158  -0.46206  -0.45578  -0.44226  -0.41501
 Alpha  occ. eigenvalues --   -0.40755  -0.37434  -0.36732  -0.33787  -0.32991
 Alpha  occ. eigenvalues --   -0.26965
 Alpha virt. eigenvalues --    0.01988   0.06952   0.08767   0.09831   0.12384
 Alpha virt. eigenvalues --    0.13687   0.14862   0.15244   0.16055   0.16870
 Alpha virt. eigenvalues --    0.18528   0.19167   0.20185   0.20731   0.21437

 Mulliken charges:
               1
     1  C   -0.253139
     2  C    0.352127
     3  O   -0.542974
     4  C    0.074757
     5  C   -0.316780
     6  H    0.173054
     7  H    0.167782
     8  H    0.168507
     9  N   -0.250285
    10  H    0.293416
    11  H    0.303945
    12  Br  -0.179085
    13  Cl  -0.060897
    14  C   -0.370203
    15  H    0.116711
    16  H    0.126824
    17  H    0.132339
    18  N   -0.315283
    19  C   -0.248988
    20  H    0.242048
    21  H    0.137380
    22  H    0.122781
    23  H    0.125962
 Sum of Mulliken charges =  -0.00000

 Dipole moment (field-independent basis, Debye):
    X=              3.3531    Y=             -9.5372    Z=              4.4673  Tot=             11.0525
 Quadrupole moment (field-independent basis, Debye-Ang):
   XX=            -91.4337   YY=            -86.9951   ZZ=            -78.9406
   XY=              9.7352   XZ=              8.5902   YZ=             -6.2638

  Exact polarizability:     226.980      -4.737     181.413      -5.765       3.323     153.107
 Approx polarizability:     169.505      -4.513     153.555      -3.070       4.272     130.997

 ******    1 imaginary frequencies (negative Signs) ******

                      1                      2                      3
                      A                      A                      A
 Frequencies --   -422.4101                32.7243                48.2525
 Red. masses --      6.0499                 3.2956                 2.4704
 Frc consts  --      0.6360                 0.0021                 0.0034
 IR Inten    --    550.4628                 9.9945                 4.6429

                      4                      5                      6
                      A                      A                      A
 Frequencies --     61.3683                84.0812                93.0797
 Red. masses --      1.9620                 1.7312                 2.8044
 Frc consts  --      0.0044                 0.0072                 0.0143
 IR Inten    --      2.7928                11.2759                23.2695

                      7                      8                      9
                      A                      A                      A
 Frequencies --    119.6459               147.5342               151.7418
 Red. masses --      1.1814                 3.3562                 3.5278
 Frc consts  --      0.0100                 0.0430                 0.0479
 IR Inten    --      1.1874                 3.4239                14.6292

                     10                     11                     12
                      A                      A                      A
 Frequencies --    175.7754               186.1489               217.8409
 Red. masses --      1.5153                 3.4999                 7.9078
 Frc consts  --      0.0276                 0.0715                 0.2211
 IR Inten    --      2.2831                38.8143                10.3022

                     13                     14                     15
                      A                      A                      A
 Frequencies --    240.4194               264.5712               277.4969
 Red. masses --      4.2862                 4.4776                 3.4558
 Frc consts  --      0.1460                 0.1847                 0.1568
 IR Inten    --      1.8340                53.1746                 9.2056

                     16                     17                     18
                      A                      A                      A
 Frequencies --    325.6877               356.4867               372.0531
 Red. masses --      3.4079                 3.4396                 1.6582
 Frc consts  --      0.2130                 0.2575                 0.1352
 IR Inten    --     13.7992                 7.9717                88.0638

                     19                     20                     21
                      A                      A                      A
 Frequencies --    430.0209               499.0111               535.0405
 Red. masses --      2.4790                 5.0446                 5.0155
 Frc consts  --      0.2701                 0.7401                 0.8459
 IR Inten    --     28.7005                37.5250               152.9899

                     22                     23                     24
                      A                      A                      A
 Frequencies --    643.4359               698.2720               779.3500
 Red. masses --      2.9437                 2.2817                 7.7227
 Frc consts  --      0.7181                 0.6555                 2.7637
 IR Inten    --    196.4552               247.5616                30.6613

                     25                     26                     27
                      A                      A                      A
 Frequencies --    807.0707               899.1363              1003.8061
 Red. masses --      3.0582                 2.6412                 1.4157
 Frc consts  --      1.1737                 1.2581                 0.8405
 IR Inten    --    105.7830                40.3311               125.6603

                     28                     29                     30
                      A                      A                      A
 Frequencies --   1034.8461              1057.4357              1059.5940
 Red. masses --      1.7309                 1.4248                 1.6102
 Frc consts  --      1.0921                 0.9387                 1.0651
 IR Inten    --     45.2534                37.8153                10.7665

                     31                     32                     33
                      A                      A                      A
 Frequencies --   1065.7900              1084.4186              1155.0865
 Red. masses --      2.0322                 2.3980                 1.2888
 Frc consts  --      1.3601                 1.6615                 1.0132
 IR Inten    --     85.0239               157.3531                 1.1435

                     34                     35                     36
                      A                      A                      A
 Frequencies --   1183.8476              1217.2130              1242.0934
 Red. masses --      1.7191                 3.4786                 1.3626
 Frc consts  --      1.4195                 3.0366                 1.2386
 IR Inten    --     63.6606                 1.8020                56.3326

                     37                     38                     39
                      A                      A                      A
 Frequencies --   1322.1545              1336.2955              1410.7287
 Red. masses --      2.7511                 1.3221                 1.4089
 Frc consts  --      2.8334                 1.3909                 1.6520
 IR Inten    --    703.9364                22.7524                80.4701

                     40                     41                     42
                      A                      A                      A
 Frequencies --   1442.5097              1456.3950              1460.5245
 Red. masses --      1.3887                 1.2298                 1.2232
 Frc consts  --      1.7025                 1.5368                 1.5373
 IR Inten    --    216.1295                33.2716               153.1964

                     43                     44                     45
                      A                      A                      A
 Frequencies --   1467.3542              1474.2581              1494.4586
 Red. masses --      1.2542                 1.0505                 1.0428
 Frc consts  --      1.5910                 1.3453                 1.3722
 IR Inten    --    114.6945                16.4920                54.6895

                     46                     47                     48
                      A                      A                      A
 Frequencies --   1499.6617              1505.5184              1507.7760
 Red. masses --      1.0432                 1.3267                 1.1288
 Frc consts  --      1.3823                 1.7717                 1.5119
 IR Inten    --     48.6889               270.2302               136.9076

                     49                     50                     51
                      A                      A                      A
 Frequencies --   1558.7170              1630.9772              1641.8467
 Red. masses --      2.0957                 1.0898                 7.0263
 Frc consts  --      3.0000                 1.7080                11.1594
 IR Inten    --    545.9014                73.1808               748.9469

                     52                     53                     54
                      A                      A                      A
 Frequencies --   3032.2048              3046.6367              3075.4786
 Red. masses --      1.0457                 1.0370                 1.0334
 Frc consts  --      5.6645                 5.6712                 5.7589
 IR Inten    --     70.0492                87.5730                26.9442

                     55                     56                     57
                      A                      A                      A
 Frequencies --   3095.5520              3105.0113              3144.2981
 Red. masses --      1.0932                 1.1024                 1.0988
 Frc consts  --      6.1721                 6.2618                 6.4003
 IR Inten    --     46.7572                46.7216                25.9485

                     58                     59                     60
                      A                      A                      A
 Frequencies --   3155.4194              3159.5158              3180.0181
 Red. masses --      1.1020                 1.1041                 1.1067
 Frc consts  --      6.4644                 6.4936                 6.5936
 IR Inten    --     24.5419                 3.3631                 7.5254

                     61                     62                     63
                      A                      A                      A
 Frequencies --   3510.7905              3593.2775              3710.7340
 Red. masses --      1.0510                 1.0971                 1.0779
 Frc consts  --      7.6327                 8.3462                 8.7450
 IR Inten    --     64.0216                68.1288                59.4251

 - Thermochemistry -
 -------------------
 Temperature   298.150 Kelvin.  Pressure   1.00000 Atm.
 Atom     1 has atomic number  6 and mass  12.00000

 Molecular mass:   241.98215 amu.
 Principal axes and moments of inertia in atomic units:
                           1         2         3
     Eigenvalues --  1843.518504061.152634427.79156
           X            0.99949  -0.00913   0.03050
           Y            0.01097   0.99809  -0.06081
           Z           -0.02988   0.06112   0.99768
 This molecule is an asymmetric top.
 Rotational symmetry number  1.
 Warning -- assumption of classical behavior for rotation
           may cause significant error
 Rotational temperatures (Kelvin)      0.04698     0.02133     0.01956
 Rotational constants (GHZ):           0.97897     0.44439     0.40759
    1 imaginary frequencies ignored.
 Zero-point vibrational energy     481906.6 (Joules/Mol)
                                  115.17844 (Kcal/Mol)
 Warning -- explicit consideration of  20 degrees of freedom as
           vibrations may cause significant error
 Vibrational temperatures:     47.08    69.42    88.30   120.97   133.92
          (Kelvin)            172.14   212.27   218.32   252.90   267.83
                              313.42   345.91   380.66   399.26   468.59
                              512.90   535.30   618.70   717.97   769.80
                              925.76  1004.66  1121.31  1161.19  1293.66
                             1444.25  1488.91  1521.41  1524.52  1533.43
                             1560.24  1661.91  1703.29  1751.30  1787.10
                             1902.29  1922.63  2029.72  2075.45  2095.43
                             2101.37  2111.20  2121.13  2150.19  2157.68
                             2166.11  2169.35  2242.65  2346.61  2362.25
                             4362.67  4383.43  4424.93  4453.81  4467.42
                             4523.94  4539.94  4545.84  4575.34  5051.24
                             5169.92  5338.92

 Zero-point correction=                           0.183549 (Hartree/Particle)
 Thermal correction to Energy=                    0.198120
 Thermal correction to Enthalpy=                  0.199064
 Thermal correction to Gibbs Free Energy=         0.140007
 Sum of electronic and zero-point Energies=          -3454.818084
 Sum of electronic and thermal Energies=             -3454.803512
 Sum of electronic and thermal Enthalpies=           -3454.802568
 Sum of electronic and thermal Free Energies=        -3454.861625

                     E (Thermal)             CV                S
                      KCal/Mol        Cal/Mol-Kelvin    Cal/Mol-Kelvin
 Total                  124.322             48.501            124.297
 Electronic               0.000              0.000              0.000
 Translational            0.889              2.981             42.352
 Rotational               0.889              2.981             31.872
 Vibrational            122.545             42.539             50.072
 Vibration     1          0.594              1.983              5.657
 Vibration     2          0.595              1.978              4.888
 Vibration     3          0.597              1.973              4.413
 Vibration     4          0.601              1.960              3.793
 Vibration     5          0.602              1.954              3.594
 Vibration     6          0.609              1.933              3.106
 Vibration     7          0.617              1.905              2.704
 Vibration     8          0.619              1.901              2.650
 Vibration     9          0.628              1.872              2.373
 Vibration    10          0.632              1.859              2.266
 Vibration    11          0.646              1.814              1.977
 Vibration    12          0.657              1.779              1.800
 Vibration    13          0.671              1.738              1.631
 Vibration    14          0.678              1.715              1.549
 Vibration    15          0.710              1.624              1.281
 Vibration    16          0.732              1.562              1.137
 Vibration    17          0.744              1.530              1.071
 Vibration    18          0.791              1.405              0.859
 Vibration    19          0.854              1.252              0.661
 Vibration    20          0.890              1.173              0.576

 Optimization completed.
    -- Stationary point found.
 Normal termination of Gaussian 16 at Fri Jun  3 00:28:09 2022.
