 Gaussian 16, Revision A.03,
 Gaussian 16:  ES64L-G16RevA.03 25-Dec-2016

 ----------------------------------------------------------------------
 # wB97XD def2tzvp, opt=(ts, noeigen, calcfc, maxcycles=70, maxstep=1),
  freq=noraman, scrf=(iefpcm, solvent=water)
 ----------------------------------------------------------------------

 ------------------------
 0_iteration/TS-716-0.out
 ------------------------
 Symbolic Z-matrix:
 Charge =  0 Multiplicity = 1

 SCF Done:  E(RwB97XD) =  -3474.87948140     A.U. after   15 cycles
 SCF Done:  E(RwB97XD) =  -3474.87940265     A.U. after   10 cycles
 SCF Done:  E(RwB97XD) =  -3474.87932914     A.U. after   10 cycles
 SCF Done:  E(RwB97XD) =  -3474.87925949     A.U. after   10 cycles
 SCF Done:  E(RwB97XD) =  -3474.87919395     A.U. after   10 cycles
 SCF Done:  E(RwB97XD) =  -3474.87913282     A.U. after   10 cycles
 SCF Done:  E(RwB97XD) =  -3474.87907639     A.U. after   10 cycles
 SCF Done:  E(RwB97XD) =  -3474.87902492     A.U. after   10 cycles
 SCF Done:  E(RwB97XD) =  -3474.87897870     A.U. after   10 cycles
 SCF Done:  E(RwB97XD) =  -3474.87893808     A.U. after   10 cycles
 SCF Done:  E(RwB97XD) =  -3474.88255874     A.U. after    9 cycles
 SCF Done:  E(RwB97XD) =  -3474.88261102     A.U. after    9 cycles
 SCF Done:  E(RwB97XD) =  -3474.88264157     A.U. after   10 cycles
 SCF Done:  E(RwB97XD) =  -3474.88266115     A.U. after   10 cycles
 SCF Done:  E(RwB97XD) =  -3474.88267227     A.U. after   10 cycles
 SCF Done:  E(RwB97XD) =  -3474.88267556     A.U. after    9 cycles
 SCF Done:  E(RwB97XD) =  -3474.88267597     A.U. after    7 cycles
 SCF Done:  E(RwB97XD) =  -3474.88267627     A.U. after    7 cycles
 SCF Done:  E(RwB97XD) =  -3474.88267637     A.U. after    7 cycles
 Optimization completed.
    -- Stationary point found.
 Normal termination of Gaussian 16 at Sun Feb 21 19:41:08 2021.

 ---------------------------------------------------------------------
 #N Geom=AllCheck Guess=TCheck SCRF=Check GenChk RwB97XD/def2TZVP Freq
 ---------------------------------------------------------------------

 Structure from the checkpoint file:  "/beegfs/scratch/user/q/tla25/Gau-102235.chk"
 ------------------------
 0_iteration/TS-716-0.out
 ------------------------
 Charge =  0 Multiplicity = 1

                         Standard orientation:
 ---------------------------------------------------------------------
 Center     Atomic      Atomic             Coordinates (Angstroms)
 Number     Number       Type             X           Y           Z
 ---------------------------------------------------------------------
      1          6           0        0.722970   -0.216092    0.011777
      2          6           0        2.004005    0.382921   -0.261370
      3          8           0        2.192288    1.435178   -0.852510
      4          6           0       -0.491415    0.389555   -0.293831
      5          6           0       -2.398367    1.929210    1.423278
      6          1           0       -2.643024    2.216231    2.446760
      7          1           0       -2.302496    2.827559    0.817737
      8          1           0       -3.202656    1.312796    1.025578
      9          7           0       -1.147551    1.173799    1.369609
     10          1           0       -0.354699    1.746714    1.637633
     11          1           0       -1.170370    0.376264    1.995678
     12         35           0       -1.994756   -0.818628   -0.625129
     13          6           0       -0.586586    1.590918   -1.189834
     14          1           0        0.037284    2.396623   -0.813527
     15          1           0       -0.231174    1.327736   -2.185566
     16          1           0       -1.618867    1.924053   -1.266401
     17         17           0        0.703219   -1.682341    0.977193
     18          8           0        3.038202   -0.355620    0.189999
     19          6           0        4.336648    0.162453   -0.071658
     20          1           0        5.030969   -0.554281    0.359279
     21          1           0        4.512564    0.253284   -1.143665
     22          1           0        4.469605    1.137949    0.396357
 ---------------------------------------------------------------------

 SCF Done:  E(RwB97XD) =  -3474.88267637     A.U. after    1 cycles

 The electronic state is 1-A.
 Alpha  occ. eigenvalues -- -483.13164-101.69014 -62.68020 -56.47132 -56.46787
 Alpha  occ. eigenvalues --  -56.46766 -19.28637 -19.21842 -14.48858 -10.40886
 Alpha  occ. eigenvalues --  -10.40793 -10.32819 -10.32001 -10.31903 -10.29026
 Alpha  occ. eigenvalues --   -9.57548  -8.82131  -7.32189  -7.31330  -7.31316
 Alpha  occ. eigenvalues --   -6.64272  -6.63177  -6.63109  -2.74659  -2.74358
 Alpha  occ. eigenvalues --   -2.74306  -2.73418  -2.73418  -1.20302  -1.10608
 Alpha  occ. eigenvalues --   -1.04401  -0.97708  -0.91989  -0.85311  -0.83153
 Alpha  occ. eigenvalues --   -0.79810  -0.77964  -0.69628  -0.63690  -0.63280
 Alpha  occ. eigenvalues --   -0.59183  -0.57615  -0.57159  -0.55950  -0.55523
 Alpha  occ. eigenvalues --   -0.54141  -0.51085  -0.50332  -0.48696  -0.48207
 Alpha  occ. eigenvalues --   -0.47286  -0.46066  -0.44564  -0.43992  -0.41451
 Alpha  occ. eigenvalues --   -0.40589  -0.38488  -0.37552  -0.37008  -0.34958
 Alpha  occ. eigenvalues --   -0.28019
 Alpha virt. eigenvalues --    0.03168   0.05580   0.10005   0.12542   0.13492
 Alpha virt. eigenvalues --    0.14275   0.15045   0.15544   0.16780   0.17321
 Alpha virt. eigenvalues --    0.18768   0.19057   0.19556   0.19962   0.20912

 Mulliken charges:
               1
     1  C   -0.130404
     2  C    0.413579
     3  O   -0.496456
     4  C    0.055078
     5  C   -0.288639
     6  H    0.158915
     7  H    0.162977
     8  H    0.152102
     9  N   -0.340617
    10  H    0.287200
    11  H    0.284307
    12  Br  -0.103876
    13  C   -0.372735
    14  H    0.155414
    15  H    0.157334
    16  H    0.158526
    17  Cl  -0.157896
    18  O   -0.300053
    19  C   -0.192306
    20  H    0.140120
    21  H    0.128906
    22  H    0.128522
 Sum of Mulliken charges =  -0.00000

 Dipole moment (field-independent basis, Debye):
    X=             -3.7767    Y=              4.4519    Z=              3.9356  Tot=              7.0408
 Quadrupole moment (field-independent basis, Debye-Ang):
   XX=            -77.4528   YY=            -85.6534   ZZ=            -80.2427
   XY=             -8.0378   XZ=             -3.2849   YZ=              7.8166

  Exact polarizability: 215.777  -3.525 165.123  -7.453  -2.409 143.608
 Approx polarizability: 158.033   0.998 142.205  -3.954  -4.724 124.936

 ******    1 imaginary frequencies (negative Signs) ******

                      1                      2                      3
                      A                      A                      A
 Frequencies --   -352.4330                44.5149                54.5063
 Red. masses --      6.3417                 5.3498                 4.6963
 Frc consts  --      0.4641                 0.0062                 0.0082
 IR Inten    --    816.4606                 1.4919                 5.2762

                      4                      5                      6
                      A                      A                      A
 Frequencies --     67.7296               112.5844               135.4252
 Red. masses --      1.9319                 5.1011                 2.6532
 Frc consts  --      0.0052                 0.0381                 0.0287
 IR Inten    --      1.9262                 5.9032                 3.2304

                      7                      8                      9
                      A                      A                      A
 Frequencies --    149.4681               165.1856               174.9484
 Red. masses --      4.4580                 2.5686                 1.2712
 Frc consts  --      0.0587                 0.0413                 0.0229
 IR Inten    --      2.7612                12.0811                 1.5074

                     10                     11                     12
                      A                      A                      A
 Frequencies --    186.2691               219.0217               253.5919
 Red. masses --      2.7091                 2.6920                 2.2333
 Frc consts  --      0.0554                 0.0761                 0.0846
 IR Inten    --      1.8704                13.3194                10.1776

                     13                     14                     15
                      A                      A                      A
 Frequencies --    267.7784               273.0567               323.6861
 Red. masses --      3.2162                 1.9140                 2.6887
 Frc consts  --      0.1359                 0.0841                 0.1660
 IR Inten    --      9.2105                 4.2101                 2.2834

                     16                     17                     18
                      A                      A                      A
 Frequencies --    343.7773               358.0705               449.1016
 Red. masses --      3.0796                 3.8349                 8.3147
 Frc consts  --      0.2144                 0.2897                 0.9881
 IR Inten    --     17.0757                23.1074                23.6408

                     19                     20                     21
                      A                      A                      A
 Frequencies --    473.8137               495.0055               629.0371
 Red. masses --      6.0425                 5.1885                 2.4960
 Frc consts  --      0.7993                 0.7491                 0.5819
 IR Inten    --     73.1072                59.4808                51.7215

                     22                     23                     24
                      A                      A                      A
 Frequencies --    693.2713               782.3161               799.2810
 Red. masses --      1.7437                10.7716                 4.9150
 Frc consts  --      0.4938                 3.8841                 1.8500
 IR Inten    --     97.6532                52.0496                61.2723

                     25                     26                     27
                      A                      A                      A
 Frequencies --    980.6527              1002.2472              1022.3522
 Red. masses --      4.5151                 1.9210                 1.3459
 Frc consts  --      2.5583                 1.1369                 0.8288
 IR Inten    --     19.9349               152.5885               144.2891

                     28                     29                     30
                      A                      A                      A
 Frequencies --   1045.8251              1057.7850              1074.0514
 Red. masses --      1.2530                 1.7463                 3.0430
 Frc consts  --      0.8074                 1.1512                 2.0682
 IR Inten    --     26.3660               124.4421                44.5326

                     31                     32                     33
                      A                      A                      A
 Frequencies --   1104.6841              1146.5102              1183.5541
 Red. masses --      2.2468                 4.8510                 1.2819
 Frc consts  --      1.6155                 3.7570                 1.0580
 IR Inten    --    259.7365                57.4130                 1.7779

                     34                     35                     36
                      A                      A                      A
 Frequencies --   1218.5915              1230.5706              1302.2092
 Red. masses --      1.6004                 1.3827                 6.8115
 Frc consts  --      1.4002                 1.2337                 6.8054
 IR Inten    --    163.2635                28.5592              1058.4017

                     37                     38                     39
                      A                      A                      A
 Frequencies --   1345.7320              1413.4921              1434.9984
 Red. masses --      1.3065                 1.4450                 2.3118
 Frc consts  --      1.3940                 1.7010                 2.8048
 IR Inten    --      0.7357               313.3457               484.6756

                     40                     41                     42
                      A                      A                      A
 Frequencies --   1457.9542              1466.1761              1480.6738
 Red. masses --      1.1301                 1.1919                 1.1840
 Frc consts  --      1.4153                 1.5095                 1.5295
 IR Inten    --     26.9518                98.4321                96.7881

                     43                     44                     45
                      A                      A                      A
 Frequencies --   1481.7875              1483.1372              1494.8868
 Red. masses --      1.1427                 1.0511                 1.0476
 Frc consts  --      1.4783                 1.3622                 1.3793
 IR Inten    --     83.8280                15.6964                12.0475

                     46                     47                     48
                      A                      A                      A
 Frequencies --   1497.2162              1507.4115              1640.8174
 Red. masses --      1.0822                 1.0347                 1.0885
 Frc consts  --      1.4293                 1.3852                 1.7267
 IR Inten    --     17.0948                19.7154                53.2118

                     49                     50                     51
                      A                      A                      A
 Frequencies --   1700.6012              3064.1580              3069.0534
 Red. masses --     10.6333                 1.0307                 1.0352
 Frc consts  --     18.1186                 5.7019                 5.7449
 IR Inten    --    609.7786                62.6259                40.8460

                     52                     53                     54
                      A                      A                      A
 Frequencies --   3084.7208              3140.3880              3146.8821
 Red. masses --      1.0357                 1.1067                 1.1025
 Frc consts  --      5.8064                 6.4307                 6.4327
 IR Inten    --      7.9146                36.8126                11.5738

                     55                     56                     57
                      A                      A                      A
 Frequencies --   3162.6935              3173.4398              3173.6925
 Red. masses --      1.1023                 1.1057                 1.1055
 Frc consts  --      6.4960                 6.5606                 6.5604
 IR Inten    --      9.6062                11.4300                25.4503

                     58                     59                     60
                      A                      A                      A
 Frequencies --   3183.0147              3517.9156              3598.3108
 Red. masses --      1.1042                 1.0511                 1.0962
 Frc consts  --      6.5916                 7.6643                 8.3626
 IR Inten    --      2.6905                26.2673                47.7473

 - Thermochemistry -
 -------------------
 Temperature   298.150 Kelvin.  Pressure   1.00000 Atm.
 Atom     1 has atomic number  6 and mass  12.00000

 Molecular mass:   242.96617 amu.
 Principal axes and moments of inertia in atomic units:
                           1         2         3
     Eigenvalues --  1718.383034256.270154774.54367
           X            0.99877  -0.03969  -0.02976
           Y            0.04050   0.99881   0.02715
           Z            0.02865  -0.02832   0.99919
 This molecule is an asymmetric top.
 Rotational symmetry number  1.
 Warning -- assumption of classical behavior for rotation
           may cause significant error
 Rotational temperatures (Kelvin)      0.05040     0.02035     0.01814
 Rotational constants (GHZ):           1.05026     0.42402     0.37799
    1 imaginary frequencies ignored.
 Zero-point vibrational energy     451827.3 (Joules/Mol)
                                  107.98932 (Kcal/Mol)
 Warning -- explicit consideration of  19 degrees of freedom as
           vibrations may cause significant error
 Vibrational temperatures:     64.05    78.42    97.45   161.98   194.85
          (Kelvin)            215.05   237.67   251.71   268.00   315.12
                              364.86   385.27   392.87   465.71   494.62
                              515.18   646.16   681.71   712.20   905.04
                              997.46  1125.58  1149.99  1410.94  1442.01
                             1470.94  1504.71  1521.92  1545.32  1589.39
                             1649.57  1702.87  1753.28  1770.52  1873.59
                             1936.21  2033.70  2064.64  2097.67  2109.50
                             2130.36  2131.96  2133.90  2150.81  2154.16
                             2168.83  2360.77  2446.79  4408.64  4415.68
                             4438.23  4518.32  4527.66  4550.41  4565.87
                             4566.24  4579.65  5061.50  5177.17

 Zero-point correction=                           0.172092 (Hartree/Particle)
 Thermal correction to Energy=                    0.185793
 Thermal correction to Enthalpy=                  0.186737
 Thermal correction to Gibbs Free Energy=         0.130266
 Sum of electronic and zero-point Energies=          -3474.710584
 Sum of electronic and thermal Energies=             -3474.696884
 Sum of electronic and thermal Enthalpies=           -3474.695939
 Sum of electronic and thermal Free Energies=        -3474.752410

                     E (Thermal)             CV                S
                      KCal/Mol        Cal/Mol-Kelvin    Cal/Mol-Kelvin
 Total                  116.587             46.518            118.853
 Electronic               0.000              0.000              0.000
 Translational            0.889              2.981             42.364
 Rotational               0.889              2.981             31.924
 Vibrational            114.809             40.557             44.564
 Vibration     1          0.595              1.980              5.047
 Vibration     2          0.596              1.976              4.647
 Vibration     3          0.598              1.970              4.218
 Vibration     4          0.607              1.939              3.224
 Vibration     5          0.613              1.918              2.868
 Vibration     6          0.618              1.903              2.679
 Vibration     7          0.624              1.885              2.490
 Vibration     8          0.627              1.873              2.382
 Vibration     9          0.632              1.859              2.265
 Vibration    10          0.647              1.812              1.967
 Vibration    11          0.665              1.757              1.705
 Vibration    12          0.673              1.732              1.611
 Vibration    13          0.676              1.723              1.577
 Vibration    14          0.708              1.628              1.291
 Vibration    15          0.723              1.588              1.195
 Vibration    16          0.733              1.559              1.130
 Vibration    17          0.808              1.363              0.798
 Vibration    18          0.831              1.308              0.727
 Vibration    19          0.851              1.261              0.671

 Optimization completed.
    -- Stationary point found.
 Normal termination of Gaussian 16 at Sun Feb 21 20:03:13 2021.
