 Gaussian 16, Revision A.03,
 Gaussian 16:  ES64L-G16RevA.03 25-Dec-2016

 ----------------------------------------------------------------------
 # wB97XD def2tzvp, opt=(ts, noeigen, calcfc, maxcycles=70, maxstep=8),
  freq=noraman, scrf=(iefpcm, solvent=water)
 ----------------------------------------------------------------------

 ------------------------
 1_iteration/TS-748-1.out
 ------------------------
 Symbolic Z-matrix:
 Charge =  0 Multiplicity = 1

 SCF Done:  E(RwB97XD) =  -8123.16646306     A.U. after   15 cycles
 SCF Done:  E(RwB97XD) =  -8123.16824381     A.U. after   13 cycles
 SCF Done:  E(RwB97XD) =  -8123.16855758     A.U. after   13 cycles
 SCF Done:  E(RwB97XD) =  -8123.16860117     A.U. after   12 cycles
 SCF Done:  E(RwB97XD) =  -8123.16804746     A.U. after   13 cycles
 SCF Done:  E(RwB97XD) =  -8123.16854664     A.U. after   13 cycles
 SCF Done:  E(RwB97XD) =  -8123.16841559     A.U. after   12 cycles
 SCF Done:  E(RwB97XD) =  -8123.16860818     A.U. after   12 cycles
 SCF Done:  E(RwB97XD) =  -8123.16861225     A.U. after    9 cycles
 SCF Done:  E(RwB97XD) =  -8123.16861279     A.U. after    8 cycles
 SCF Done:  E(RwB97XD) =  -8123.16819518     A.U. after   12 cycles
 SCF Done:  E(RwB97XD) =  -8123.16859710     A.U. after   12 cycles
 SCF Done:  E(RwB97XD) =  -8123.16861140     A.U. after   11 cycles
 SCF Done:  E(RwB97XD) =  -8123.16861292     A.U. after   10 cycles
 SCF Done:  E(RwB97XD) =  -8123.16861290     A.U. after    6 cycles
 Optimization completed.
    -- Stationary point found.
 Normal termination of Gaussian 16 at Mon Feb 22 06:26:40 2021.

 ---------------------------------------------------------------------
 #N Geom=AllCheck Guess=TCheck SCRF=Check GenChk RwB97XD/def2TZVP Freq
 ---------------------------------------------------------------------

 Structure from the checkpoint file:  "/beegfs/scratch/user/q/tla25/Gau-96055.chk"
 ------------------------
 1_iteration/TS-748-1.out
 ------------------------
 Charge =  0 Multiplicity = 1

                         Standard orientation:
 ---------------------------------------------------------------------
 Center     Atomic      Atomic             Coordinates (Angstroms)
 Number     Number       Type             X           Y           Z
 ---------------------------------------------------------------------
      1          6           0       -0.376677    0.709477   -0.205079
      2          6           0       -1.826629    0.831889   -0.190990
      3          8           0       -2.461766    1.783215   -0.592960
      4          6           0        0.306697   -0.470262    0.015356
      5          6           0        0.238542    0.040976    2.812786
      6          1           0        1.294028    0.303306    2.850330
      7          1           0       -0.329703    0.896987    2.447168
      8          1           0       -0.107442   -0.209266    3.815674
      9          7           0        0.047439   -1.066722    1.890509
     10          1           0        0.651460   -1.856106    2.088860
     11          1           0       -0.916774   -1.379787    1.878049
     12         35           0        2.216720   -0.459847   -0.046092
     13         35           0       -0.344931   -2.116849   -0.800939
     14         35           0        0.520210    2.376074   -0.367369
     15          8           0       -2.418236   -0.233260    0.377818
     16          6           0       -3.844031   -0.253300    0.367237
     17          1           0       -4.221186   -0.198995   -0.653406
     18          1           0       -4.127044   -1.198173    0.822405
     19          1           0       -4.242750    0.578534    0.946652
 ---------------------------------------------------------------------

 SCF Done:  E(RwB97XD) =  -8123.16861290     A.U. after    1 cycles

 The electronic state is 1-A.
 Alpha  occ. eigenvalues -- -483.15032-483.14261-483.13170 -62.69869 -62.69097
 Alpha  occ. eigenvalues --  -62.67995 -56.49012 -56.48622 -56.48601 -56.48241
 Alpha  occ. eigenvalues --  -56.47847 -56.47835 -56.47126 -56.46750 -56.46745
 Alpha  occ. eigenvalues --  -19.30008 -19.23184 -14.48932 -10.44922 -10.42052
 Alpha  occ. eigenvalues --  -10.33439 -10.33090 -10.31976  -8.83980  -8.83200
 Alpha  occ. eigenvalues --   -8.82108  -6.66216  -6.65429  -6.64970  -6.64908
 Alpha  occ. eigenvalues --   -6.64304  -6.64182  -6.64144  -6.63096  -6.63084
 Alpha  occ. eigenvalues --   -2.76592  -2.76240  -2.76192  -2.75797  -2.75449
 Alpha  occ. eigenvalues --   -2.75419  -2.75184  -2.75184  -2.74686  -2.74411
 Alpha  occ. eigenvalues --   -2.74411  -2.74331  -2.74322  -2.73345  -2.73345
 Alpha  occ. eigenvalues --   -1.21635  -1.12071  -1.04552  -0.97655  -0.90968
 Alpha  occ. eigenvalues --   -0.88500  -0.84931  -0.79882  -0.79182  -0.70923
 Alpha  occ. eigenvalues --   -0.64944  -0.63732  -0.59472  -0.58446  -0.57551
 Alpha  occ. eigenvalues --   -0.57429  -0.54511  -0.52641  -0.52236  -0.49243
 Alpha  occ. eigenvalues --   -0.48414  -0.47448  -0.45876  -0.45168  -0.41133
 Alpha  occ. eigenvalues --   -0.40624  -0.39926  -0.39125  -0.37864  -0.37523
 Alpha  occ. eigenvalues --   -0.37179  -0.35091  -0.28962
 Alpha virt. eigenvalues --    0.00700   0.02698   0.04234   0.10196   0.11379
 Alpha virt. eigenvalues --    0.13470   0.14284   0.15198   0.16133   0.16736
 Alpha virt. eigenvalues --    0.18594   0.19514   0.19942   0.20624   0.20811

 Mulliken charges:
               1
     1  C   -0.348772
     2  C    0.430923
     3  O   -0.449935
     4  C    0.183188
     5  C   -0.290220
     6  H    0.158685
     7  H    0.154840
     8  H    0.162417
     9  N   -0.358305
    10  H    0.294177
    11  H    0.288456
    12  Br  -0.010552
    13  Br  -0.052933
    14  Br  -0.085125
    15  O   -0.302990
    16  C   -0.195146
    17  H    0.138470
    18  H    0.145583
    19  H    0.137240
 Sum of Mulliken charges =  -0.00000

 Dipole moment (field-independent basis, Debye):
    X=              0.1569    Y=             -6.1932    Z=              7.0255  Tot=              9.3668
 Quadrupole moment (field-independent basis, Debye-Ang):
   XX=            -96.5807   YY=           -108.9741   ZZ=            -91.3384
   XY=              9.1174   XZ=             -3.2338   YZ=             -1.9609

  Exact polarizability: 206.421  -3.557 217.181   9.022 -10.419 170.235
 Approx polarizability: 166.278  -1.059 177.538   6.574  -8.789 143.944

 ******    1 imaginary frequencies (negative Signs) ******

                      1                      2                      3
                      A                      A                      A
 Frequencies --   -371.4479                47.3113                66.7161
 Red. masses --      5.8947                 6.6875                 4.6385
 Frc consts  --      0.4792                 0.0088                 0.0122
 IR Inten    --    678.5799                 0.6125                 1.3807

                      4                      5                      6
                      A                      A                      A
 Frequencies --     71.0162                90.3254               113.3803
 Red. masses --      3.5876                 3.9140                 4.5031
 Frc consts  --      0.0107                 0.0188                 0.0341
 IR Inten    --      4.7206                 3.1839                 1.5433

                      7                      8                      9
                      A                      A                      A
 Frequencies --    140.4410               145.4413               149.4030
 Red. masses --      1.5812                 2.7193                 2.3234
 Frc consts  --      0.0184                 0.0339                 0.0306
 IR Inten    --      3.5402                 1.1410                 0.6160

                     10                     11                     12
                      A                      A                      A
 Frequencies --    160.4525               175.9016               189.0212
 Red. masses --      2.4843                 4.8503                 5.9181
 Frc consts  --      0.0377                 0.0884                 0.1246
 IR Inten    --      0.1433                 0.1973                 7.5661

                     13                     14                     15
                      A                      A                      A
 Frequencies --    227.1648               256.4298               273.6432
 Red. masses --      3.1781                 7.2733                 3.9044
 Frc consts  --      0.0966                 0.2818                 0.1723
 IR Inten    --      6.9790                17.1222                15.8109

                     16                     17                     18
                      A                      A                      A
 Frequencies --    279.2591               318.0269               406.6053
 Red. masses --     13.2119                 4.9708                 7.8791
 Frc consts  --      0.6071                 0.2962                 0.7675
 IR Inten    --      8.8692                18.3909                12.6151

                     19                     20                     21
                      A                      A                      A
 Frequencies --    476.4537               623.3662               712.4049
 Red. masses --      7.5789                 1.5963                 9.5123
 Frc consts  --      1.0137                 0.3655                 2.8444
 IR Inten    --     97.1607                 4.7397               196.9923

                     22                     23                     24
                      A                      A                      A
 Frequencies --    728.7070               785.8198               856.0670
 Red. masses --      3.8126                11.0283                 6.0242
 Frc consts  --      1.1928                 4.0124                 2.6012
 IR Inten    --     64.1465                56.2665                65.3886

                     25                     26                     27
                      A                      A                      A
 Frequencies --    938.7881               990.8564              1027.9646
 Red. masses --      6.5417                 1.0891                 1.1116
 Frc consts  --      3.3969                 0.6300                 0.6921
 IR Inten    --     16.2737                64.2095                94.2775

                     28                     29                     30
                      A                      A                      A
 Frequencies --   1084.4526              1112.7785              1181.5702
 Red. masses --      4.7534                 8.5990                 1.2825
 Frc consts  --      3.2936                 6.2736                 1.0549
 IR Inten    --     34.3356               117.0082                 2.0459

                     31                     32                     33
                      A                      A                      A
 Frequencies --   1204.2445              1218.9605              1281.8711
 Red. masses --      1.4276                 1.5471                 7.3733
 Frc consts  --      1.2198                 1.3544                 7.1384
 IR Inten    --     28.9620                61.2292               937.6498

                     34                     35                     36
                      A                      A                      A
 Frequencies --   1343.8205              1405.1277              1459.0864
 Red. masses --      1.3279                 6.8409                 1.2543
 Frc consts  --      1.4129                 7.9578                 1.5733
 IR Inten    --      0.7894               752.5565                24.9102

                     37                     38                     39
                      A                      A                      A
 Frequencies --   1478.8144              1481.9524              1489.5596
 Red. masses --      1.1882                 1.0474                 1.0431
 Frc consts  --      1.5310                 1.3553                 1.3636
 IR Inten    --     37.6818                14.3319                25.8806

                     40                     41                     42
                      A                      A                      A
 Frequencies --   1493.6460              1499.1451              1636.4876
 Red. masses --      1.0571                 1.0328                 1.0939
 Frc consts  --      1.3896                 1.3676                 1.7261
 IR Inten    --     22.7522                12.6171                73.6897

                     43                     44                     45
                      A                      A                      A
 Frequencies --   1734.0019              3066.4871              3070.7877
 Red. masses --     11.5976                 1.0330                 1.0304
 Frc consts  --     20.5454                 5.7231                 5.7247
 IR Inten    --    928.6318                28.2655                50.3663

                     46                     47                     48
                      A                      A                      A
 Frequencies --   3142.0732              3151.5766              3165.1779
 Red. masses --      1.1045                 1.1074                 1.1055
 Frc consts  --      6.4247                 6.4807                 6.5252
 IR Inten    --     10.3857                27.9870                11.1707

                     49                     50                     51
                      A                      A                      A
 Frequencies --   3184.0128              3522.5220              3612.9972
 Red. masses --      1.1062                 1.0498                 1.0976
 Frc consts  --      6.6072                 7.6751                 8.4415
 IR Inten    --     16.8760                62.7121                76.7461

 - Thermochemistry -
 -------------------
 Temperature   298.150 Kelvin.  Pressure   1.00000 Atm.
 Atom     1 has atomic number  6 and mass  12.00000

 Molecular mass:   350.81051 amu.
 Principal axes and moments of inertia in atomic units:
                           1         2         3
     Eigenvalues --  4056.694094157.962766402.39648
           X            0.17753   0.98409  -0.00737
           Y            0.98392  -0.17764  -0.01838
           Z            0.01940   0.00399   0.99980
 This molecule is an asymmetric top.
 Rotational symmetry number  1.
 Warning -- assumption of classical behavior for rotation
           may cause significant error
 Rotational temperatures (Kelvin)      0.02135     0.02083     0.01353
 Rotational constants (GHZ):           0.44488     0.43404     0.28189
    1 imaginary frequencies ignored.
 Zero-point vibrational energy     348544.7 (Joules/Mol)
                                   83.30418 (Kcal/Mol)
 Warning -- explicit consideration of  18 degrees of freedom as
           vibrations may cause significant error
 Vibrational temperatures:     68.07    95.99   102.18   129.96   163.13
          (Kelvin)            202.06   209.26   214.96   230.86   253.08
                              271.96   326.84   368.95   393.71   401.79
                              457.57   585.01   685.51   896.88  1024.99
                             1048.45  1130.62  1231.69  1350.71  1425.62
                             1479.01  1560.29  1601.04  1700.02  1732.64
                             1753.81  1844.33  1933.46  2021.67  2099.30
                             2127.68  2132.20  2143.14  2149.02  2156.94
                             2354.54  2494.84  4411.99  4418.18  4520.74
                             4534.42  4553.99  4581.08  5068.12  5198.30

 Zero-point correction=                           0.132754 (Hartree/Particle)
 Thermal correction to Energy=                    0.146867
 Thermal correction to Enthalpy=                  0.147811
 Thermal correction to Gibbs Free Energy=         0.089002
 Sum of electronic and zero-point Energies=          -8123.035859
 Sum of electronic and thermal Energies=             -8123.021746
 Sum of electronic and thermal Enthalpies=           -8123.020801
 Sum of electronic and thermal Free Energies=        -8123.079611

                     E (Thermal)             CV                S
                      KCal/Mol        Cal/Mol-Kelvin    Cal/Mol-Kelvin
 Total                   92.161             45.601            123.775
 Electronic               0.000              0.000              0.000
 Translational            0.889              2.981             43.459
 Rotational               0.889              2.981             33.046
 Vibrational             90.383             39.640             47.270
 Vibration     1          0.595              1.979              4.927
 Vibration     2          0.598              1.970              4.248
 Vibration     3          0.598              1.968              4.125
 Vibration     4          0.602              1.956              3.653
 Vibration     5          0.607              1.938              3.210
 Vibration     6          0.615              1.913              2.798
 Vibration     7          0.617              1.908              2.731
 Vibration     8          0.618              1.903              2.680
 Vibration     9          0.622              1.891              2.544
 Vibration    10          0.628              1.872              2.371
 Vibration    11          0.633              1.855              2.237
 Vibration    12          0.651              1.800              1.901
 Vibration    13          0.666              1.752              1.686
 Vibration    14          0.676              1.722              1.573
 Vibration    15          0.680              1.712              1.538
 Vibration    16          0.704              1.639              1.320
 Vibration    17          0.771              1.456              0.939
 Vibration    18          0.833              1.302              0.720

 Optimization completed.
    -- Stationary point found.
 Normal termination of Gaussian 16 at Mon Feb 22 06:50:45 2021.
