 Gaussian 16, Revision A.03,
 Gaussian 16:  ES64L-G16RevA.03 25-Dec-2016

 ----------------------------------------------------------------------
 # wB97XD def2tzvp, opt=(ts, noeigen, calcfc, maxcycles=70, maxstep=8),
  freq=noraman, scrf=(iefpcm, solvent=water)
 ----------------------------------------------------------------------

 ------------------------
 1_iteration/TS-756-1.out
 ------------------------
 Symbolic Z-matrix:
 Charge =  0 Multiplicity = 1

 SCF Done:  E(RwB97XD) =  -6009.16067204     A.U. after   15 cycles
 SCF Done:  E(RwB97XD) =  -6009.16251106     A.U. after   13 cycles
 SCF Done:  E(RwB97XD) =  -6009.16340029     A.U. after   13 cycles
 SCF Done:  E(RwB97XD) =  -6009.16351524     A.U. after   13 cycles
 SCF Done:  E(RwB97XD) =  -6009.16336988     A.U. after   13 cycles
 SCF Done:  E(RwB97XD) =  -6009.16366148     A.U. after   12 cycles
 SCF Done:  E(RwB97XD) =  -6009.16367352     A.U. after   10 cycles
 SCF Done:  E(RwB97XD) =  -6009.16367478     A.U. after   10 cycles
 SCF Done:  E(RwB97XD) =  -6009.16367510     A.U. after    8 cycles
 SCF Done:  E(RwB97XD) =  -6009.16367509     A.U. after    7 cycles
 SCF Done:  E(RwB97XD) =  -6009.16367510     A.U. after    7 cycles
 SCF Done:  E(RwB97XD) =  -6009.16367518     A.U. after    7 cycles
 SCF Done:  E(RwB97XD) =  -6009.16367512     A.U. after    7 cycles
 Optimization completed.
    -- Stationary point found.
 Normal termination of Gaussian 16 at Mon Feb 22 04:57:06 2021.

 ---------------------------------------------------------------------
 #N Geom=AllCheck Guess=TCheck SCRF=Check GenChk RwB97XD/def2TZVP Freq
 ---------------------------------------------------------------------

 Structure from the checkpoint file:  "/beegfs/scratch/user/q/tla25/Gau-8530.chk"
 ------------------------
 1_iteration/TS-756-1.out
 ------------------------
 Charge =  0 Multiplicity = 1

                         Standard orientation:
 ---------------------------------------------------------------------
 Center     Atomic      Atomic             Coordinates (Angstroms)
 Number     Number       Type             X           Y           Z
 ---------------------------------------------------------------------
      1          6           0       -0.482768    0.893793   -0.373451
      2          6           0       -1.930286    0.778635   -0.331319
      3          8           0       -2.714670    1.568542   -0.812534
      4          6           0        0.397199   -0.109839   -0.011902
      5          6           0        0.268156    0.768212    2.681715
      6          1           0       -0.421191    1.469657    2.210031
      7          1           0       -0.043540    0.608302    3.713695
      8          1           0        1.271286    1.189352    2.668449
      9          7           0        0.252951   -0.472172    1.922340
     10          1           0        0.975598   -1.122026    2.210233
     11          1           0       -0.648783   -0.932869    1.978191
     12         35           0        2.270226    0.246536   -0.137964
     13         35           0        0.050149   -1.940591   -0.581317
     14         17           0        0.083109    2.499247   -0.752925
     15          8           0       -2.333259   -0.301994    0.360552
     16          6           0       -3.736123   -0.554536    0.390549
     17          1           0       -4.126129   -0.675195   -0.619559
     18          1           0       -3.855834   -1.477046    0.951579
     19          1           0       -4.261680    0.259773    0.887863
 ---------------------------------------------------------------------

 SCF Done:  E(RwB97XD) =  -6009.16367512     A.U. after    1 cycles

 The electronic state is 1-A.
 Alpha  occ. eigenvalues -- -483.15005-483.14273-101.69794 -62.69842 -62.69111
 Alpha  occ. eigenvalues --  -56.48986 -56.48595 -56.48574 -56.48254 -56.47860
 Alpha  occ. eigenvalues --  -56.47848 -19.29952 -19.23089 -14.49151 -10.44875
 Alpha  occ. eigenvalues --  -10.41908 -10.33426 -10.33416 -10.32052  -9.58308
 Alpha  occ. eigenvalues --   -8.83953  -8.83214  -7.32983  -7.32070  -7.32062
 Alpha  occ. eigenvalues --   -6.66190  -6.65443  -6.64944  -6.64881  -6.64196
 Alpha  occ. eigenvalues --   -6.64158  -2.76566  -2.76214  -2.76165  -2.75812
 Alpha  occ. eigenvalues --   -2.75464  -2.75433  -2.75157  -2.75157  -2.74426
 Alpha  occ. eigenvalues --   -2.74425  -1.21558  -1.12008  -1.04780  -0.99115
 Alpha  occ. eigenvalues --   -0.93858  -0.88529  -0.85687  -0.80154  -0.79295
 Alpha  occ. eigenvalues --   -0.71103  -0.65012  -0.63912  -0.59819  -0.58671
 Alpha  occ. eigenvalues --   -0.57600  -0.57519  -0.54768  -0.53373  -0.52336
 Alpha  occ. eigenvalues --   -0.49593  -0.48542  -0.47944  -0.46769  -0.45225
 Alpha  occ. eigenvalues --   -0.42978  -0.41411  -0.40703  -0.39134  -0.38415
 Alpha  occ. eigenvalues --   -0.37731  -0.37299  -0.35751  -0.28905
 Alpha virt. eigenvalues --    0.01074   0.03048   0.04787   0.10272   0.13001
 Alpha virt. eigenvalues --    0.13524   0.14504   0.15684   0.16257   0.17253
 Alpha virt. eigenvalues --    0.18756   0.19852   0.20092   0.20586   0.20872

 Mulliken charges:
               1
     1  C   -0.290003
     2  C    0.412094
     3  O   -0.452547
     4  C    0.178212
     5  C   -0.290394
     6  H    0.156095
     7  H    0.162492
     8  H    0.159218
     9  N   -0.353331
    10  H    0.295315
    11  H    0.289349
    12  Br  -0.013797
    13  Br  -0.051100
    14  Cl  -0.122557
    15  O   -0.304407
    16  C   -0.195175
    17  H    0.138113
    18  H    0.145543
    19  H    0.136881
 Sum of Mulliken charges =  -0.00000

 Dipole moment (field-independent basis, Debye):
    X=              1.2863    Y=             -5.1421    Z=              7.8017  Tot=              9.4320
 Quadrupole moment (field-independent basis, Debye-Ang):
   XX=            -94.2502   YY=           -103.6605   ZZ=            -85.8913
   XY=             10.5850   XZ=             -3.9621   YZ=              2.4012

  Exact polarizability: 200.840  -4.983 193.545  11.568 -10.912 163.500
 Approx polarizability: 160.087  -2.649 162.604   8.231 -10.256 138.927

 ******    1 imaginary frequencies (negative Signs) ******

                      1                      2                      3
                      A                      A                      A
 Frequencies --   -371.1412                49.8666                66.6080
 Red. masses --      5.9456                 5.3825                 5.9363
 Frc consts  --      0.4825                 0.0079                 0.0155
 IR Inten    --    684.3341                 0.7519                 3.3238

                      4                      5                      6
                      A                      A                      A
 Frequencies --     78.9670                95.7103               115.6090
 Red. masses --      3.2959                 4.7691                 4.3406
 Frc consts  --      0.0121                 0.0257                 0.0342
 IR Inten    --      1.7194                 3.3774                 1.4624

                      7                      8                      9
                      A                      A                      A
 Frequencies --    144.7339               148.0779               168.3104
 Red. masses --      1.2958                 1.3095                 7.4164
 Frc consts  --      0.0160                 0.0169                 0.1238
 IR Inten    --      2.2879                 1.7086                 1.5946

                     10                     11                     12
                      A                      A                      A
 Frequencies --    174.2092               175.4459               207.5710
 Red. masses --      4.1748                 3.6829                11.9242
 Frc consts  --      0.0746                 0.0668                 0.3027
 IR Inten    --      2.2073                 1.2447                 7.8071

                     13                     14                     15
                      A                      A                      A
 Frequencies --    238.4083               266.2091               280.4413
 Red. masses --      3.1448                 7.0825                 4.6523
 Frc consts  --      0.1053                 0.2957                 0.2156
 IR Inten    --      5.6165                22.4869                 6.4208

                     16                     17                     18
                      A                      A                      A
 Frequencies --    319.1629               331.1532               423.8963
 Red. masses --      5.2022                12.3445                 7.9968
 Frc consts  --      0.3122                 0.7976                 0.8466
 IR Inten    --     13.5666                22.1468                15.6328

                     19                     20                     21
                      A                      A                      A
 Frequencies --    499.3409               633.9063               735.3130
 Red. masses --      7.7751                 1.6457                 4.0539
 Frc consts  --      1.1422                 0.3896                 1.2914
 IR Inten    --     82.0269                 1.3592               120.6563

                     22                     23                     24
                      A                      A                      A
 Frequencies --    742.2955               786.6722               865.1515
 Red. masses --      6.8223                11.3525                 5.6984
 Frc consts  --      2.2148                 4.1393                 2.5130
 IR Inten    --    167.9361                59.7746                67.8137

                     25                     26                     27
                      A                      A                      A
 Frequencies --    953.2380               995.2684              1035.4962
 Red. masses --      6.7752                 1.0923                 1.1165
 Frc consts  --      3.6272                 0.6375                 0.7053
 IR Inten    --     25.9270                50.9018               102.0181

                     28                     29                     30
                      A                      A                      A
 Frequencies --   1082.8006              1121.9716              1182.5233
 Red. masses --      4.8373                 8.4646                 1.2817
 Frc consts  --      3.3416                 6.2780                 1.0560
 IR Inten    --     37.3893               142.6214                 2.0791

                     31                     32                     33
                      A                      A                      A
 Frequencies --   1207.5983              1218.9996              1291.5961
 Red. masses --      1.4199                 1.5597                 7.1663
 Frc consts  --      1.2200                 1.3655                 7.0437
 IR Inten    --     29.5366                75.0098               929.8808

                     34                     35                     36
                      A                      A                      A
 Frequencies --   1342.7310              1409.8377              1460.1578
 Red. masses --      1.3269                 6.5496                 1.2618
 Frc consts  --      1.4095                 7.6701                 1.5850
 IR Inten    --      0.8958               668.4507                27.2465

                     37                     38                     39
                      A                      A                      A
 Frequencies --   1479.2959              1482.4647              1489.0180
 Red. masses --      1.1870                 1.0511                 1.0429
 Frc consts  --      1.5304                 1.3610                 1.3623
 IR Inten    --     37.7524                14.9835                23.4853

                     40                     41                     42
                      A                      A                      A
 Frequencies --   1494.6982              1499.7014              1640.4767
 Red. masses --      1.0594                 1.0331                 1.0937
 Frc consts  --      1.3945                 1.3689                 1.7341
 IR Inten    --     22.6397                12.1288                78.8756

                     43                     44                     45
                      A                      A                      A
 Frequencies --   1734.5579              3066.3870              3070.8139
 Red. masses --     11.5319                 1.0331                 1.0303
 Frc consts  --     20.4422                 5.7235                 5.7245
 IR Inten    --    992.7656                28.0229                49.8615

                     46                     47                     48
                      A                      A                      A
 Frequencies --   3141.9715              3151.5603              3166.3123
 Red. masses --      1.1044                 1.1074                 1.1055
 Frc consts  --      6.4234                 6.4804                 6.5303
 IR Inten    --      9.6424                28.2139                10.8985

                     49                     50                     51
                      A                      A                      A
 Frequencies --   3183.1443              3519.6921              3609.4054
 Red. masses --      1.1063                 1.0499                 1.0978
 Frc consts  --      6.6041                 7.6630                 8.4264
 IR Inten    --     16.7181                60.9208                76.1441

 - Thermochemistry -
 -------------------
 Temperature   298.150 Kelvin.  Pressure   1.00000 Atm.
 Atom     1 has atomic number  6 and mass  12.00000

 Molecular mass:   306.86103 amu.
 Principal axes and moments of inertia in atomic units:
                           1         2         3
     Eigenvalues --  2997.950444000.077315291.16070
           X            0.99997   0.00746  -0.00123
           Y           -0.00747   0.99992  -0.00981
           Z            0.00116   0.00982   0.99995
 This molecule is an asymmetric top.
 Rotational symmetry number  1.
 Warning -- assumption of classical behavior for rotation
           may cause significant error
 Rotational temperatures (Kelvin)      0.02889     0.02165     0.01637
 Rotational constants (GHZ):           0.60199     0.45118     0.34109
    1 imaginary frequencies ignored.
 Zero-point vibrational energy     350378.9 (Joules/Mol)
                                   83.74257 (Kcal/Mol)
 Warning -- explicit consideration of  18 degrees of freedom as
           vibrations may cause significant error
 Vibrational temperatures:     71.75    95.83   113.62   137.71   166.34
          (Kelvin)            208.24   213.05   242.16   250.65   252.43
                              298.65   343.02   383.02   403.49   459.20
                              476.46   609.89   718.44   912.05  1057.95
                             1068.00  1131.85  1244.76  1371.50  1431.97
                             1489.85  1557.91  1614.27  1701.39  1737.46
                             1753.87  1858.32  1931.89  2028.44  2100.84
                             2128.38  2132.94  2142.36  2150.54  2157.74
                             2360.28  2495.64  4411.85  4418.22  4520.60
                             4534.39  4555.62  4579.83  5064.05  5193.13

 Zero-point correction=                           0.133452 (Hartree/Particle)
 Thermal correction to Energy=                    0.147269
 Thermal correction to Enthalpy=                  0.148214
 Thermal correction to Gibbs Free Energy=         0.090691
 Sum of electronic and zero-point Energies=          -6009.030223
 Sum of electronic and thermal Energies=             -6009.016406
 Sum of electronic and thermal Enthalpies=           -6009.015461
 Sum of electronic and thermal Free Energies=        -6009.072984

                     E (Thermal)             CV                S
                      KCal/Mol        Cal/Mol-Kelvin    Cal/Mol-Kelvin
 Total                   92.413             45.132            121.067
 Electronic               0.000              0.000              0.000
 Translational            0.889              2.981             43.060
 Rotational               0.889              2.981             32.517
 Vibrational             90.636             39.170             45.490
 Vibration     1          0.595              1.978              4.823
 Vibration     2          0.598              1.970              4.251
 Vibration     3          0.600              1.963              3.916
 Vibration     4          0.603              1.952              3.540
 Vibration     5          0.608              1.936              3.172
 Vibration     6          0.616              1.908              2.740
 Vibration     7          0.617              1.905              2.697
 Vibration     8          0.625              1.881              2.454
 Vibration     9          0.627              1.874              2.390
 Vibration    10          0.627              1.873              2.376
 Vibration    11          0.641              1.829              2.065
 Vibration    12          0.656              1.782              1.815
 Vibration    13          0.672              1.735              1.621
 Vibration    14          0.680              1.710              1.531
 Vibration    15          0.705              1.637              1.314
 Vibration    16          0.714              1.613              1.254
 Vibration    17          0.786              1.418              0.879
 Vibration    18          0.855              1.251              0.660

 Optimization completed.
    -- Stationary point found.
 Normal termination of Gaussian 16 at Mon Feb 22 05:19:13 2021.
