 Gaussian 16, Revision A.03,
 Gaussian 16:  ES64L-G16RevA.03 25-Dec-2016

 ----------------------------------------------------------------------
 # wB97XD def2tzvp, opt=(ts, noeigen, calcfc, maxcycles=70, maxstep=1),
  freq=noraman, scrf=(iefpcm, solvent=water)
 ----------------------------------------------------------------------

 ------------------------
 0_iteration/TS-735-0.out
 ------------------------
 Symbolic Z-matrix:
 Charge =  0 Multiplicity = 1

 SCF Done:  E(RwB97XD) =  -5721.43213865     A.U. after   15 cycles
 SCF Done:  E(RwB97XD) =  -5721.43224001     A.U. after   11 cycles
 SCF Done:  E(RwB97XD) =  -5721.43232924     A.U. after   11 cycles
 SCF Done:  E(RwB97XD) =  -5721.43241356     A.U. after   11 cycles
 SCF Done:  E(RwB97XD) =  -5721.43249209     A.U. after   11 cycles
 SCF Done:  E(RwB97XD) =  -5721.43257193     A.U. after   11 cycles
 SCF Done:  E(RwB97XD) =  -5721.43265530     A.U. after   11 cycles
 SCF Done:  E(RwB97XD) =  -5721.43272761     A.U. after   11 cycles
 SCF Done:  E(RwB97XD) =  -5721.43279506     A.U. after   11 cycles
 SCF Done:  E(RwB97XD) =  -5721.43285437     A.U. after   11 cycles
 SCF Done:  E(RwB97XD) =  -5721.43313095     A.U. after   10 cycles
 SCF Done:  E(RwB97XD) =  -5721.43313812     A.U. after   10 cycles
 SCF Done:  E(RwB97XD) =  -5721.43313664     A.U. after   10 cycles
 SCF Done:  E(RwB97XD) =  -5721.43312990     A.U. after   10 cycles
 SCF Done:  E(RwB97XD) =  -5721.43313814     A.U. after   10 cycles
 SCF Done:  E(RwB97XD) =  -5721.43313665     A.U. after   10 cycles
 SCF Done:  E(RwB97XD) =  -5721.43313842     A.U. after    9 cycles
 SCF Done:  E(RwB97XD) =  -5721.43313783     A.U. after    9 cycles
 SCF Done:  E(RwB97XD) =  -5721.43313842     A.U. after    9 cycles
 Optimization completed.
    -- Stationary point found.
 Normal termination of Gaussian 16 at Mon Feb 22 04:46:33 2021.

 ---------------------------------------------------------------------
 #N Geom=AllCheck Guess=TCheck SCRF=Check GenChk RwB97XD/def2TZVP Freq
 ---------------------------------------------------------------------

 Structure from the checkpoint file:  "/beegfs/scratch/user/q/tla25/Gau-103665.chk"
 ------------------------
 0_iteration/TS-735-0.out
 ------------------------
 Charge =  0 Multiplicity = 1

                         Standard orientation:
 ---------------------------------------------------------------------
 Center     Atomic      Atomic             Coordinates (Angstroms)
 Number     Number       Type             X           Y           Z
 ---------------------------------------------------------------------
      1          6           0       -0.764611    1.301367   -0.104391
      2          6           0        0.680562    1.428105   -0.149801
      3          8           0        1.189383    2.545237   -0.266044
      4          6           0       -1.618418    0.232943    0.071317
      5          6           0       -0.637172   -0.390825    2.596507
      6          1           0       -0.826236   -0.469355    3.665800
      7          1           0       -0.129471   -1.289900    2.254378
      8          1           0       -0.014114    0.481867    2.405863
      9          7           0       -1.889477   -0.231032    1.862969
     10          1           0       -2.478171   -1.056511    1.925739
     11          1           0       -2.416643    0.560035    2.219739
     12         35           0       -3.471126    0.625419   -0.363432
     13         35           0       -1.162222   -1.554208   -0.598021
     14          1           0       -1.247552    2.268072   -0.137229
     15          7           0        1.457044    0.296839   -0.058169
     16          6           0        2.847934    0.161548   -0.081205
     17          6           0        3.351569   -1.141331    0.001680
     18          6           0        4.713867   -1.375593   -0.007082
     19          6           0        5.608694   -0.317153   -0.097738
     20          6           0        5.112066    0.973912   -0.178888
     21          6           0        3.746524    1.225564   -0.171903
     22          1           0        0.962418   -0.577210   -0.001971
     23          1           0        2.662725   -1.975713    0.073904
     24          1           0        5.077383   -2.393547    0.057913
     25          1           0        6.675521   -0.498574   -0.104312
     26          1           0        5.795524    1.811374   -0.249524
     27          1           0        3.371682    2.233299   -0.235657
 ---------------------------------------------------------------------

 SCF Done:  E(RwB97XD) =  -5721.43313842     A.U. after    1 cycles

 The electronic state is 1-A.
 Alpha  occ. eigenvalues -- -483.14843-483.14427 -62.69683 -62.69278 -56.48805
 Alpha  occ. eigenvalues --  -56.48443 -56.48431 -56.48409 -56.48029 -56.48021
 Alpha  occ. eigenvalues --  -19.20623 -14.51047 -14.46397 -10.44904 -10.39145
 Alpha  occ. eigenvalues --  -10.33878 -10.32691 -10.29059 -10.28890 -10.28867
 Alpha  occ. eigenvalues --  -10.28254 -10.28175 -10.26832  -8.83783  -8.83391
 Alpha  occ. eigenvalues --   -6.65947  -6.65592  -6.64799  -6.64762  -6.64381
 Alpha  occ. eigenvalues --   -6.64357  -2.76326  -2.76006  -2.75977  -2.75967
 Alpha  occ. eigenvalues --   -2.75624  -2.75605  -2.75050  -2.75048  -2.74626
 Alpha  occ. eigenvalues --   -2.74626  -1.13676  -1.06389  -1.04094  -0.96299
 Alpha  occ. eigenvalues --   -0.95240  -0.88459  -0.86238  -0.85107  -0.83032
 Alpha  occ. eigenvalues --   -0.80232  -0.73881  -0.71603  -0.68939  -0.65533
 Alpha  occ. eigenvalues --   -0.65102  -0.62893  -0.59726  -0.58227  -0.57916
 Alpha  occ. eigenvalues --   -0.55692  -0.53740  -0.53232  -0.52201  -0.51902
 Alpha  occ. eigenvalues --   -0.51215  -0.49840  -0.49133  -0.48128  -0.46486
 Alpha  occ. eigenvalues --   -0.45628  -0.44586  -0.42903  -0.40599  -0.39828
 Alpha  occ. eigenvalues --   -0.38970  -0.38485  -0.37264  -0.34169  -0.33769
 Alpha  occ. eigenvalues --   -0.30781  -0.28111
 Alpha virt. eigenvalues --    0.01539   0.03646   0.05344   0.05355   0.07757
 Alpha virt. eigenvalues --    0.10092   0.12311   0.14046   0.14608   0.15887
 Alpha virt. eigenvalues --    0.16318   0.16950   0.17526   0.18013   0.18712

 Mulliken charges:
               1
     1  C   -0.506389
     2  C    0.406640
     3  O   -0.531152
     4  C    0.133790
     5  C   -0.330721
     6  H    0.175506
     7  H    0.167644
     8  H    0.167847
     9  N   -0.264321
    10  H    0.303727
    11  H    0.293397
    12  Br  -0.056615
    13  Br  -0.075686
    14  H    0.145762
    15  N   -0.240749
    16  C    0.298888
    17  C   -0.301933
    18  C   -0.104897
    19  C   -0.196186
    20  C   -0.107571
    21  C   -0.304421
    22  H    0.199925
    23  H    0.143966
    24  H    0.143001
    25  H    0.140346
    26  H    0.141008
    27  H    0.159193
 Sum of Mulliken charges =  -0.00000

 Dipole moment (field-independent basis, Debye):
    X=             -5.1415    Y=             -6.6195    Z=              7.0798  Tot=             10.9716
 Quadrupole moment (field-independent basis, Debye-Ang):
   XX=           -107.6000   YY=           -121.4930   ZZ=           -104.3398
   XY=             -6.4674   XZ=            -10.4902   YZ=             -0.2076

  Exact polarizability: 341.836   2.213 264.009  -6.273  -8.144 182.591
 Approx polarizability: 247.427   2.323 226.540  -4.169  -6.041 157.780

 ******    1 imaginary frequencies (negative Signs) ******

                      1                      2                      3
                      A                      A                      A
 Frequencies --   -382.2856                24.0304                26.8322
 Red. masses --      6.0727                 3.9836                 6.5256
 Frc consts  --      0.5229                 0.0014                 0.0028
 IR Inten    --    759.4312                 0.7302                 1.9014

                      4                      5                      6
                      A                      A                      A
 Frequencies --     59.2842                65.1742                88.8320
 Red. masses --      8.4213                 5.7675                 3.2413
 Frc consts  --      0.0174                 0.0144                 0.0151
 IR Inten    --      5.5814                 2.9360                 0.1695

                      7                      8                      9
                      A                      A                      A
 Frequencies --    113.8646               142.9947               167.2604
 Red. masses --      4.6893                 6.9213                15.2723
 Frc consts  --      0.0358                 0.0834                 0.2517
 IR Inten    --      8.9640                 1.9690                 5.8124

                     10                     11                     12
                      A                      A                      A
 Frequencies --    176.4613               188.7597               232.3780
 Red. masses --      5.4710                 3.1508                 1.6191
 Frc consts  --      0.1004                 0.0661                 0.0515
 IR Inten    --      2.5487                11.2651                 4.9162

                     13                     14                     15
                      A                      A                      A
 Frequencies --    247.6633               277.2072               296.1279
 Red. masses --      3.7907                 2.7193                 3.3415
 Frc consts  --      0.1370                 0.1231                 0.1726
 IR Inten    --      3.9807                11.4249                 8.1497

                     16                     17                     18
                      A                      A                      A
 Frequencies --    328.8587               355.3059               425.1326
 Red. masses --      9.2939                 6.1519                 2.9875
 Frc consts  --      0.5922                 0.4576                 0.3181
 IR Inten    --     10.1476                 4.6703                 0.0757

                     19                     20                     21
                      A                      A                      A
 Frequencies --    456.1867               483.2717               528.4535
 Red. masses --      2.9839                 5.8993                 2.7530
 Frc consts  --      0.3659                 0.8118                 0.4530
 IR Inten    --     45.7655                20.7231                38.2376

                     22                     23                     24
                      A                      A                      A
 Frequencies --    572.0303               578.0179               635.2681
 Red. masses --      1.3023                 3.5556                 5.7258
 Frc consts  --      0.2511                 0.6999                 1.3615
 IR Inten    --    137.0416                61.7139                 2.5835

                     25                     26                     27
                      A                      A                      A
 Frequencies --    647.7208               695.1484               720.0645
 Red. masses --      1.5545                 4.4195                 1.8987
 Frc consts  --      0.3843                 1.2583                 0.5800
 IR Inten    --     39.6214                23.0203                61.9851

                     28                     29                     30
                      A                      A                      A
 Frequencies --    760.5203               784.0397               788.9037
 Red. masses --      2.2607                 1.8119                 7.6665
 Frc consts  --      0.7704                 0.6562                 2.8112
 IR Inten    --     91.7927                69.2580               116.2603

                     31                     32                     33
                      A                      A                      A
 Frequencies --    798.0707               862.6461               890.8011
 Red. masses --      2.8308                 1.2619                 5.8932
 Frc consts  --      1.0623                 0.5533                 2.7553
 IR Inten    --    160.8263                 0.0104                12.4970

                     34                     35                     36
                      A                      A                      A
 Frequencies --    933.5727               988.7119              1002.2274
 Red. masses --      1.4577                 3.9120                 1.3479
 Frc consts  --      0.7485                 2.2531                 0.7977
 IR Inten    --     13.4415                24.9149                 0.0574

                     37                     38                     39
                      A                      A                      A
 Frequencies --   1018.2997              1019.6884              1023.2468
 Red. masses --      1.2826                 3.2127                 1.4432
 Frc consts  --      0.7836                 1.9681                 0.8903
 IR Inten    --      0.8806                 1.8719                32.3634

                     40                     41                     42
                      A                      A                      A
 Frequencies --   1062.9781              1065.1102              1079.3772
 Red. masses --      1.9655                 1.6333                 2.1999
 Frc consts  --      1.3085                 1.0917                 1.5101
 IR Inten    --     20.1674                 9.9325               120.1051

                     43                     44                     45
                      A                      A                      A
 Frequencies --   1120.0809              1182.5317              1208.2867
 Red. masses --      1.5179                 1.1217                 1.1401
 Frc consts  --      1.1220                 0.9241                 0.9807
 IR Inten    --     11.2421                 4.7579                25.0105

                     46                     47                     48
                      A                      A                      A
 Frequencies --   1250.7019              1256.1664              1273.1629
 Red. masses --      1.3576                 2.0183                 2.6505
 Frc consts  --      1.2512                 1.8764                 2.5313
 IR Inten    --     48.1390               370.1338               768.5712

                     49                     50                     51
                      A                      A                      A
 Frequencies --   1289.3070              1345.8403              1351.4127
 Red. masses --      2.3874                 1.4372                 2.6348
 Frc consts  --      2.3383                 1.5337                 2.8352
 IR Inten    --    151.9853                72.0708               519.4809

                     52                     53                     54
                      A                      A                      A
 Frequencies --   1361.2804              1442.5001              1466.1604
 Red. masses --      1.6756                 2.0832                 1.5691
 Frc consts  --      1.8295                 2.5539                 1.9873
 IR Inten    --      0.4403               611.6898               290.1683

                     55                     56                     57
                      A                      A                      A
 Frequencies --   1481.9849              1497.1515              1504.6928
 Red. masses --      2.1745                 1.0403                 1.0334
 Frc consts  --      2.8138                 1.3739                 1.3785
 IR Inten    --    199.6429                37.1896                20.2025

                     58                     59                     60
                      A                      A                      A
 Frequencies --   1545.8301              1578.1310              1634.9021
 Red. masses --      2.4499                 2.1321                 1.0877
 Frc consts  --      3.4492                 3.1286                 1.7129
 IR Inten    --    235.5442               596.7585                73.2260

                     61                     62                     63
                      A                      A                      A
 Frequencies --   1657.7057              1671.5926              1682.0297
 Red. masses --      7.1835                 3.6342                 5.5365
 Frc consts  --     11.6307                 5.9830                 9.2289
 IR Inten    --    343.3543               168.1516               638.1987

                     64                     65                     66
                      A                      A                      A
 Frequencies --   3079.4229              3162.3776              3177.2885
 Red. masses --      1.0323                 1.1052                 1.1064
 Frc consts  --      5.7674                 6.5121                 6.5810
 IR Inten    --     19.4388                 4.3823                 9.0306

                     67                     68                     69
                      A                      A                      A
 Frequencies --   3184.4356              3196.7905              3206.1365
 Red. masses --      1.0886                 1.0881                 1.0930
 Frc consts  --      6.5042                 6.5514                 6.6198
 IR Inten    --     14.5319                 3.3110                28.8547

                     70                     71                     72
                      A                      A                      A
 Frequencies --   3213.0432              3222.0093              3272.2096
 Red. masses --      1.0868                 1.0979                 1.0925
 Frc consts  --      6.6107                 6.7150                 6.8924
 IR Inten    --      1.7039                23.1172                 6.2867

                     73                     74                     75
                      A                      A                      A
 Frequencies --   3500.8965              3586.9661              3626.3935
 Red. masses --      1.0506                 1.0973                 1.0767
 Frc consts  --      7.5863                 8.3184                 8.3422
 IR Inten    --     75.4590                64.1220               166.5630

 - Thermochemistry -
 -------------------
 Temperature   298.150 Kelvin.  Pressure   1.00000 Atm.
 Atom     1 has atomic number  6 and mass  12.00000

 Molecular mass:   333.93164 amu.
 Principal axes and moments of inertia in atomic units:
                           1         2         3
     Eigenvalues --  2404.61879********************
           X            0.99993  -0.00043  -0.01183
           Y           -0.00008   0.99908  -0.04293
           Z            0.01184   0.04293   0.99901
 This molecule is an asymmetric top.
 Rotational symmetry number  1.
 Warning -- assumption of classical behavior for rotation
           may cause significant error
 Rotational temperatures (Kelvin)      0.03602     0.00837     0.00766
 Rotational constants (GHZ):           0.75053     0.17441     0.15957
    1 imaginary frequencies ignored.
 Zero-point vibrational energy     549324.9 (Joules/Mol)
                                  131.29179 (Kcal/Mol)
 Warning -- explicit consideration of  22 degrees of freedom as
           vibrations may cause significant error
 Vibrational temperatures:     34.57    38.61    85.30    93.77   127.81
          (Kelvin)            163.83   205.74   240.65   253.89   271.58
                              334.34   356.33   398.84   426.06   473.15
                              511.21   611.67   656.35   695.32   760.33
                              823.02   831.64   914.01   931.93  1000.16
                             1036.01  1094.22  1128.06  1135.06  1148.25
                             1241.16  1281.66  1343.20  1422.54  1441.98
                             1465.11  1467.10  1472.22  1529.39  1532.46
                             1552.98  1611.55  1701.40  1738.46  1799.48
                             1807.34  1831.80  1855.03  1936.36  1944.38
                             1958.58  2075.44  2109.48  2132.25  2154.07
                             2164.92  2224.10  2270.58  2352.26  2385.07
                             2405.05  2420.07  4430.60  4549.96  4571.41
                             4581.69  4599.47  4612.92  4622.85  4635.75
                             4707.98  5037.01  5160.84  5217.57

 Zero-point correction=                           0.209227 (Hartree/Particle)
 Thermal correction to Energy=                    0.224753
 Thermal correction to Enthalpy=                  0.225697
 Thermal correction to Gibbs Free Energy=         0.163053
 Sum of electronic and zero-point Energies=          -5721.223912
 Sum of electronic and thermal Energies=             -5721.208386
 Sum of electronic and thermal Enthalpies=           -5721.207441
 Sum of electronic and thermal Free Energies=        -5721.270086

                     E (Thermal)             CV                S
                      KCal/Mol        Cal/Mol-Kelvin    Cal/Mol-Kelvin
 Total                  141.035             55.755            131.846
 Electronic               0.000              0.000              0.000
 Translational            0.889              2.981             43.312
 Rotational               0.889              2.981             33.997
 Vibrational            139.257             49.794             54.537
 Vibration     1          0.593              1.985              6.270
 Vibration     2          0.593              1.984              6.051
 Vibration     3          0.597              1.974              4.481
 Vibration     4          0.597              1.971              4.294
 Vibration     5          0.602              1.957              3.686
 Vibration     6          0.607              1.938              3.202
 Vibration     7          0.616              1.910              2.763
 Vibration     8          0.624              1.883              2.466
 Vibration     9          0.628              1.871              2.366
 Vibration    10          0.633              1.855              2.240
 Vibration    11          0.653              1.791              1.860
 Vibration    12          0.661              1.767              1.747
 Vibration    13          0.678              1.716              1.551
 Vibration    14          0.690              1.681              1.439
 Vibration    15          0.712              1.618              1.266
 Vibration    16          0.731              1.564              1.143
 Vibration    17          0.787              1.416              0.875
 Vibration    18          0.814              1.347              0.777
 Vibration    19          0.839              1.287              0.701
 Vibration    20          0.883              1.187              0.591
 Vibration    21          0.928              1.092              0.500
 Vibration    22          0.935              1.079              0.489

 Optimization completed.
    -- Stationary point found.
 Normal termination of Gaussian 16 at Mon Feb 22 05:40:37 2021.
