 Gaussian 16, Revision A.03,
 Gaussian 16:  ES64L-G16RevA.03 25-Dec-2016

 ----------------------------------------------------------------------
 # wB97XD def2tzvp, opt=(ts, noeigen, calcfc, maxcycles=70, maxstep=1),
  freq=noraman, scrf=(iefpcm, solvent=water)
 ----------------------------------------------------------------------

 ------------------------
 0_iteration/TS-709-0.out
 ------------------------
 Symbolic Z-matrix:
 Charge =  0 Multiplicity = 1

 SCF Done:  E(RwB97XD) =  -5569.02366679     A.U. after   15 cycles
 SCF Done:  E(RwB97XD) =  -5569.02361134     A.U. after   11 cycles
 SCF Done:  E(RwB97XD) =  -5569.02355932     A.U. after   11 cycles
 SCF Done:  E(RwB97XD) =  -5569.02351156     A.U. after   10 cycles
 SCF Done:  E(RwB97XD) =  -5569.02346828     A.U. after   10 cycles
 SCF Done:  E(RwB97XD) =  -5569.02342939     A.U. after   10 cycles
 SCF Done:  E(RwB97XD) =  -5569.02339492     A.U. after   10 cycles
 SCF Done:  E(RwB97XD) =  -5569.02336508     A.U. after   10 cycles
 SCF Done:  E(RwB97XD) =  -5569.02333998     A.U. after   10 cycles
 SCF Done:  E(RwB97XD) =  -5569.02331968     A.U. after   10 cycles
 SCF Done:  E(RwB97XD) =  -5569.02409245     A.U. after    9 cycles
 SCF Done:  E(RwB97XD) =  -5569.02410582     A.U. after    9 cycles
 SCF Done:  E(RwB97XD) =  -5569.02411451     A.U. after    9 cycles
 SCF Done:  E(RwB97XD) =  -5569.02412039     A.U. after    9 cycles
 SCF Done:  E(RwB97XD) =  -5569.02412511     A.U. after    9 cycles
 SCF Done:  E(RwB97XD) =  -5569.02412906     A.U. after    9 cycles
 SCF Done:  E(RwB97XD) =  -5569.02413168     A.U. after    9 cycles
 SCF Done:  E(RwB97XD) =  -5569.02413280     A.U. after    9 cycles
 SCF Done:  E(RwB97XD) =  -5569.02413284     A.U. after    7 cycles
 Optimization completed.
    -- Stationary point found.
 Normal termination of Gaussian 16 at Sun Feb 21 22:34:41 2021.

 ---------------------------------------------------------------------
 #N Geom=AllCheck Guess=TCheck SCRF=Check GenChk RwB97XD/def2TZVP Freq
 ---------------------------------------------------------------------

 Structure from the checkpoint file:  "/beegfs/scratch/user/q/tla25/Gau-76965.chk"
 ------------------------
 0_iteration/TS-709-0.out
 ------------------------
 Charge =  0 Multiplicity = 1

                         Standard orientation:
 ---------------------------------------------------------------------
 Center     Atomic      Atomic             Coordinates (Angstroms)
 Number     Number       Type             X           Y           Z
 ---------------------------------------------------------------------
      1          6           0        0.487052    0.057487   -0.201965
      2          6           0        1.798167    0.640649   -0.474583
      3          8           0        1.943354    1.803220   -0.873322
      4          6           0       -0.704035    0.765473   -0.181746
      5          6           0       -0.191945    1.611840    2.437308
      6          1           0        0.755488    1.160827    2.136072
      7          1           0       -0.158856    2.679613    2.235576
      8          1           0       -0.339778    1.450954    3.504406
      9          7           0       -1.255896    0.999068    1.652225
     10          1           0       -1.453652    0.057466    1.971783
     11          1           0       -2.120146    1.527773    1.686379
     12         35           0       -2.336500   -0.204970   -0.743244
     13          6           0       -0.798538    2.188917   -0.660079
     14          1           0       -0.047931    2.803355   -0.172350
     15          1           0       -0.609082    2.225320   -1.731629
     16          1           0       -1.793452    2.585241   -0.466665
     17         35           0        0.434104   -1.763031    0.411019
     18          7           0        2.892117   -0.142862   -0.299345
     19          6           0        4.217880    0.345172   -0.592811
     20          1           0        2.785602   -1.084945    0.026477
     21          1           0        4.316589    0.628190   -1.642936
     22          1           0        4.465331    1.216489    0.016519
     23          1           0        4.931885   -0.446671   -0.376120
 ---------------------------------------------------------------------

 SCF Done:  E(RwB97XD) =  -5569.02413284     A.U. after    1 cycles

 The electronic state is 1-A.
 Alpha  occ. eigenvalues -- -483.12845-483.12700 -62.67676 -62.67561 -56.46776
 Alpha  occ. eigenvalues --  -56.46666 -56.46447 -56.46439 -56.46328 -56.46313
 Alpha  occ. eigenvalues --  -19.19906 -14.49100 -14.44507 -10.40377 -10.38399
 Alpha  occ. eigenvalues --  -10.31903 -10.31166 -10.30634 -10.28730  -8.81786
 Alpha  occ. eigenvalues --   -8.81672  -6.63884  -6.63788  -6.62834  -6.62808
 Alpha  occ. eigenvalues --   -6.62722  -6.62672  -2.74282  -2.74175  -2.73979
 Alpha  occ. eigenvalues --   -2.73956  -2.73883  -2.73844  -2.73108  -2.73106
 Alpha  occ. eigenvalues --   -2.72981  -2.72980  -1.12975  -1.04661  -1.01315
 Alpha  occ. eigenvalues --   -0.95005  -0.89239  -0.84433  -0.81073  -0.79202
 Alpha  occ. eigenvalues --   -0.77680  -0.68909  -0.65534  -0.63645  -0.58804
 Alpha  occ. eigenvalues --   -0.57485  -0.55778  -0.55136  -0.53633  -0.52796
 Alpha  occ. eigenvalues --   -0.50555  -0.49957  -0.48583  -0.47382  -0.46626
 Alpha  occ. eigenvalues --   -0.45502  -0.45036  -0.43760  -0.39843  -0.39049
 Alpha  occ. eigenvalues --   -0.37171  -0.36068  -0.33417  -0.33272  -0.27653
 Alpha virt. eigenvalues --    0.02863   0.06454   0.09614   0.10086   0.12568
 Alpha virt. eigenvalues --    0.14016   0.14962   0.15095   0.15898   0.16863
 Alpha virt. eigenvalues --    0.18053   0.19530   0.20070   0.20982   0.21102

 Mulliken charges:
               1
     1  C   -0.255381
     2  C    0.377480
     3  O   -0.544459
     4  C    0.109918
     5  C   -0.302975
     6  H    0.156365
     7  H    0.162848
     8  H    0.162440
     9  N   -0.326131
    10  H    0.286479
    11  H    0.293972
    12  Br  -0.130918
    13  C   -0.349109
    14  H    0.152338
    15  H    0.150000
    16  H    0.147414
    17  Br  -0.164217
    18  N   -0.320471
    19  C   -0.245299
    20  H    0.249513
    21  H    0.125340
    22  H    0.125450
    23  H    0.139403
 Sum of Mulliken charges =  -0.00000

 Dipole moment (field-independent basis, Debye):
    X=             -2.2509    Y=              0.9207    Z=              6.4034  Tot=              6.8496
 Quadrupole moment (field-independent basis, Debye-Ang):
   XX=            -85.1337   YY=            -93.5804   ZZ=            -85.2929
   XY=            -13.3224   XZ=             -3.7519   YZ=              7.9287

  Exact polarizability: 226.257  -2.051 187.009  -4.768  -0.383 162.089
 Approx polarizability: 170.219   0.334 159.507  -3.031  -2.934 137.317

 ******    1 imaginary frequencies (negative Signs) ******

                      1                      2                      3
                      A                      A                      A
 Frequencies --   -370.7650                31.5844                51.0624
 Red. masses --      5.5876                 4.2362                 5.3674
 Frc consts  --      0.4526                 0.0025                 0.0082
 IR Inten    --    634.7702                21.4779                 7.3639

                      4                      5                      6
                      A                      A                      A
 Frequencies --     72.1818                82.7302               124.7657
 Red. masses --      1.6573                 2.5850                 1.9540
 Frc consts  --      0.0051                 0.0104                 0.0179
 IR Inten    --      4.6607                 4.3991                 7.7289

                      7                      8                      9
                      A                      A                      A
 Frequencies --    135.1909               136.5615               149.8893
 Red. masses --      3.2324                 5.6514                 4.4146
 Frc consts  --      0.0348                 0.0621                 0.0584
 IR Inten    --      7.0083                 1.8156                 6.8911

                     10                     11                     12
                      A                      A                      A
 Frequencies --    183.9653               199.1402               258.8869
 Red. masses --      1.6172                 2.2190                 6.8142
 Frc consts  --      0.0322                 0.0518                 0.2691
 IR Inten    --      6.9443                14.3693                20.9642

                     13                     14                     15
                      A                      A                      A
 Frequencies --    279.3733               290.4547               300.3357
 Red. masses --      1.4848                 2.8246                 4.0348
 Frc consts  --      0.0683                 0.1404                 0.2144
 IR Inten    --      6.2961                 7.2159                10.6851

                     16                     17                     18
                      A                      A                      A
 Frequencies --    310.3511               350.5234               367.2956
 Red. masses --      2.2733                 2.2705                 1.3574
 Frc consts  --      0.1290                 0.1644                 0.1079
 IR Inten    --      4.4530                10.7140                62.2403

                     19                     20                     21
                      A                      A                      A
 Frequencies --    394.0278               433.0729               515.3613
 Red. masses --      5.9634                 4.0512                 4.4948
 Frc consts  --      0.5455                 0.4477                 0.7034
 IR Inten    --     19.5064                57.3849                84.5480

                     22                     23                     24
                      A                      A                      A
 Frequencies --    617.2622               695.7805               771.5274
 Red. masses --      2.6218                 1.6716                 8.1380
 Frc consts  --      0.5886                 0.4768                 2.8541
 IR Inten    --     95.6254               127.2523                25.8092

                     25                     26                     27
                      A                      A                      A
 Frequencies --    792.8424               963.7565              1002.6195
 Red. masses --      4.3894                 4.4736                 1.2472
 Frc consts  --      1.6257                 2.4481                 0.7387
 IR Inten    --     30.9571                46.0411                14.5763

                     28                     29                     30
                      A                      A                      A
 Frequencies --   1021.5949              1039.4376              1064.0591
 Red. masses --      1.8303                 1.1806                 1.5085
 Frc consts  --      1.1254                 0.7515                 1.0063
 IR Inten    --     78.6260                24.8990               116.3166

                     31                     32                     33
                      A                      A                      A
 Frequencies --   1081.1287              1105.9865              1157.6870
 Red. masses --      3.5785                 2.0318                 1.2906
 Frc consts  --      2.4643                 1.4643                 1.0191
 IR Inten    --      2.2203               114.4299                 0.7061

                     34                     35                     36
                      A                      A                      A
 Frequencies --   1170.0395              1187.2844              1220.7104
 Red. masses --      4.5259                 1.7787                 1.3950
 Frc consts  --      3.6505                 1.4773                 1.2247
 IR Inten    --     20.0891                41.3235                32.4014

                     37                     38                     39
                      A                      A                      A
 Frequencies --   1291.0796              1340.0180              1417.4221
 Red. masses --      2.3371                 1.3213                 1.5094
 Frc consts  --      2.2953                 1.3979                 1.7867
 IR Inten    --    456.8456                 5.6019               376.6863

                     40                     41                     42
                      A                      A                      A
 Frequencies --   1434.8920              1457.1117              1462.1796
 Red. masses --      2.2131                 1.1892                 1.1388
 Frc consts  --      2.6846                 1.4876                 1.4345
 IR Inten    --    507.4458                28.2985                 5.9703

                     43                     44                     45
                      A                      A                      A
 Frequencies --   1469.9662              1474.3896              1488.0243
 Red. masses --      1.0993                 1.0404                 1.2288
 Frc consts  --      1.3995                 1.3326                 1.6031
 IR Inten    --      2.4957                12.3629                90.6833

                     46                     47                     48
                      A                      A                      A
 Frequencies --   1495.2131              1506.8396              1509.9165
 Red. masses --      1.0647                 1.0826                 1.0321
 Frc consts  --      1.4025                 1.4483                 1.3863
 IR Inten    --     59.8773                27.0289                14.4929

                     49                     50                     51
                      A                      A                      A
 Frequencies --   1551.9421              1643.2173              1649.5102
 Red. masses --      1.9174                 1.0892                 7.9082
 Frc consts  --      2.7210                 1.7328                12.6777
 IR Inten    --    716.3424                65.4050               486.6583

                     52                     53                     54
                      A                      A                      A
 Frequencies --   3048.8094              3066.8632              3085.7818
 Red. masses --      1.0359                 1.0346                 1.0364
 Frc consts  --      5.6732                 5.7331                 5.8142
 IR Inten    --     84.3952                34.1154                15.2479

                     55                     56                     57
                      A                      A                      A
 Frequencies --   3104.9081              3141.8269              3159.0781
 Red. masses --      1.1042                 1.1034                 1.1012
 Frc consts  --      6.2721                 6.4171                 6.4749
 IR Inten    --     45.7928                 9.1229                24.1749

                     58                     59                     60
                      A                      A                      A
 Frequencies --   3162.1085              3174.2188              3190.1705
 Red. masses --      1.1034                 1.1050                 1.1014
 Frc consts  --      6.5001                 6.5598                 6.6042
 IR Inten    --     12.1525                12.8036                 2.9291

                     61                     62                     63
                      A                      A                      A
 Frequencies --   3522.5935              3605.5959              3687.9216
 Red. masses --      1.0508                 1.0966                 1.0779
 Frc consts  --      7.6824                 8.3997                 8.6372
 IR Inten    --     52.2824                59.0183                87.6803

 - Thermochemistry -
 -------------------
 Temperature   298.150 Kelvin.  Pressure   1.00000 Atm.
 Atom     1 has atomic number  6 and mass  12.00000

 Molecular mass:   285.93164 amu.
 Principal axes and moments of inertia in atomic units:
                           1         2         3
     Eigenvalues --  2413.085604358.120035162.47364
           X            0.99927   0.00231  -0.03803
           Y            0.00040   0.99746   0.07122
           Z            0.03810  -0.07118   0.99674
 This molecule is an asymmetric top.
 Rotational symmetry number  1.
 Warning -- assumption of classical behavior for rotation
           may cause significant error
 Rotational temperatures (Kelvin)      0.03589     0.01987     0.01678
 Rotational constants (GHZ):           0.74790     0.41411     0.34959
    1 imaginary frequencies ignored.
 Zero-point vibrational energy     482693.6 (Joules/Mol)
                                  115.36654 (Kcal/Mol)
 Warning -- explicit consideration of  21 degrees of freedom as
           vibrations may cause significant error
 Vibrational temperatures:     45.44    73.47   103.85   119.03   179.51
          (Kelvin)            194.51   196.48   215.66   264.69   286.52
                              372.48   401.96   417.90   432.12   446.53
                              504.33   528.46   566.92   623.10   741.49
                              888.10  1001.07  1110.06  1140.72  1386.63
                             1442.55  1469.85  1495.52  1530.94  1555.50
                             1591.27  1665.65  1683.43  1708.24  1756.33
                             1857.58  1927.99  2039.35  2064.49  2096.46
                             2103.75  2114.95  2121.32  2140.94  2151.28
                             2168.01  2172.43  2232.90  2364.22  2373.28
                             4386.56  4412.53  4439.75  4467.27  4520.39
                             4545.21  4549.57  4566.99  4589.94  5068.23
                             5187.65  5306.10

 Zero-point correction=                           0.183848 (Hartree/Particle)
 Thermal correction to Energy=                    0.198266
 Thermal correction to Enthalpy=                  0.199211
 Thermal correction to Gibbs Free Energy=         0.140401
 Sum of electronic and zero-point Energies=          -5568.840285
 Sum of electronic and thermal Energies=             -5568.825866
 Sum of electronic and thermal Enthalpies=           -5568.824922
 Sum of electronic and thermal Free Energies=        -5568.883731

                     E (Thermal)             CV                S
                      KCal/Mol        Cal/Mol-Kelvin    Cal/Mol-Kelvin
 Total                  124.414             48.599            123.774
 Electronic               0.000              0.000              0.000
 Translational            0.889              2.981             42.850
 Rotational               0.889              2.981             32.362
 Vibrational            122.637             42.637             48.562
 Vibration     1          0.594              1.983              5.727
 Vibration     2          0.595              1.977              4.776
 Vibration     3          0.598              1.967              4.093
 Vibration     4          0.600              1.961              3.825
 Vibration     5          0.610              1.928              3.025
 Vibration     6          0.613              1.918              2.871
 Vibration     7          0.614              1.917              2.851
 Vibration     8          0.618              1.903              2.674
 Vibration     9          0.631              1.862              2.288
 Vibration    10          0.637              1.841              2.141
 Vibration    11          0.668              1.748              1.669
 Vibration    12          0.680              1.712              1.538
 Vibration    13          0.686              1.691              1.471
 Vibration    14          0.693              1.673              1.415
 Vibration    15          0.699              1.654              1.360
 Vibration    16          0.727              1.574              1.164
 Vibration    17          0.740              1.540              1.091
 Vibration    18          0.761              1.483              0.985
 Vibration    19          0.794              1.398              0.849
 Vibration    20          0.870              1.216              0.621
 Vibration    21          0.977              0.995              0.421

 Optimization completed.
    -- Stationary point found.
 Normal termination of Gaussian 16 at Sun Feb 21 23:02:15 2021.
