 Gaussian 16, Revision A.03,
 Gaussian 16:  ES64L-G16RevA.03 25-Dec-2016

 ----------------------------------------------------------------------
 # wB97XD def2tzvp, opt=(ts, noeigen, calcfc, maxcycles=70, maxstep=3),
  freq=noraman, scrf=(iefpcm, solvent=water)
 ----------------------------------------------------------------------

 ------------------------
 0_iteration/TS-754-0.out
 ------------------------
 Symbolic Z-matrix:
 Charge =  0 Multiplicity = 1

 SCF Done:  E(RwB97XD) =  -5933.90830464     A.U. after   16 cycles
 SCF Done:  E(RwB97XD) =  -5933.90791361     A.U. after   12 cycles
 SCF Done:  E(RwB97XD) =  -5933.90757783     A.U. after   12 cycles
 SCF Done:  E(RwB97XD) =  -5933.90729085     A.U. after   12 cycles
 SCF Done:  E(RwB97XD) =  -5933.90708237     A.U. after   13 cycles
 SCF Done:  E(RwB97XD) =  -5933.90701090     A.U. after   13 cycles
 SCF Done:  E(RwB97XD) =  -5933.90732334     A.U. after   13 cycles
 SCF Done:  E(RwB97XD) =  -5933.90787655     A.U. after   14 cycles
 SCF Done:  E(RwB97XD) =  -5933.90835297     A.U. after   13 cycles
 SCF Done:  E(RwB97XD) =  -5933.90893617     A.U. after   13 cycles
 SCF Done:  E(RwB97XD) =  -5933.92191983     A.U. after   12 cycles
 SCF Done:  E(RwB97XD) =  -5933.92192553     A.U. after   12 cycles
 SCF Done:  E(RwB97XD) =  -5933.92192499     A.U. after    8 cycles
 SCF Done:  E(RwB97XD) =  -5933.92192459     A.U. after    9 cycles
 SCF Done:  E(RwB97XD) =  -5933.92186707     A.U. after   12 cycles
 SCF Done:  E(RwB97XD) =  -5933.92192426     A.U. after   12 cycles
 SCF Done:  E(RwB97XD) =  -5933.92192446     A.U. after    7 cycles
 SCF Done:  E(RwB97XD) =  -5933.92192513     A.U. after    9 cycles
 SCF Done:  E(RwB97XD) =  -5933.92192515     A.U. after    8 cycles
 Optimization completed.
    -- Stationary point found.
 Normal termination of Gaussian 16 at Sat Apr 10 09:04:24 2021.

 ---------------------------------------------------------------------
 #N Geom=AllCheck Guess=TCheck SCRF=Check GenChk RwB97XD/def2TZVP Freq
 ---------------------------------------------------------------------

 Structure from the checkpoint file:  "/beegfs/scratch/user/q/tla25/Gau-140968.chk"
 ------------------------
 0_iteration/TS-754-0.out
 ------------------------
 Charge =  0 Multiplicity = 1

                         Standard orientation:
 ---------------------------------------------------------------------
 Center     Atomic      Atomic             Coordinates (Angstroms)
 Number     Number       Type             X           Y           Z
 ---------------------------------------------------------------------
      1          6           0        0.995042   -0.532628   -0.273332
      2          6           0        2.337774    0.015103   -0.217251
      3          8           0        3.302150   -0.648992   -0.584324
      4          6           0       -0.213085    0.086766    0.043725
      5          6           0       -0.026398   -1.003756    2.614954
      6          1           0       -0.053570   -0.885173    3.697214
      7          1           0       -0.661708   -1.837385    2.323644
      8          1           0        0.997562   -1.203759    2.301395
      9          7           0       -0.487271    0.207847    1.946563
     10          1           0       -1.471797    0.389754    2.112727
     11          1           0        0.034646    1.020302    2.256965
     12         35           0       -1.843329   -0.841491   -0.402394
     13         35           0       -0.461691    1.967049   -0.365272
     14         17           0        0.970317   -2.247491   -0.651166
     15          6           0        2.610568    1.402840    0.324490
     16          1           0        2.504234    2.141618   -0.470833
     17          1           0        1.958359    1.700034    1.142097
     18          1           0        3.642857    1.414493    0.668063
 ---------------------------------------------------------------------

 SCF Done:  E(RwB97XD) =  -5933.92192515     A.U. after    1 cycles

 The electronic state is 1-A.
 Alpha  occ. eigenvalues -- -483.14939-483.14917-101.69092 -62.69779 -62.69762
 Alpha  occ. eigenvalues --  -56.48925 -56.48905 -56.48531 -56.48510 -56.48509
 Alpha  occ. eigenvalues --  -56.48498 -19.21947 -14.50573 -10.45552 -10.37407
 Alpha  occ. eigenvalues --  -10.33023 -10.32502 -10.28175  -9.57622  -8.83890
 Alpha  occ. eigenvalues --   -8.83871  -7.32281  -7.31396  -7.31379  -6.66132
 Alpha  occ. eigenvalues --   -6.66102  -6.64878  -6.64852  -6.64813  -6.64812
 Alpha  occ. eigenvalues --   -2.76503  -2.76473  -2.76155  -2.76121  -2.76103
 Alpha  occ. eigenvalues --   -2.76091  -2.75089  -2.75088  -2.75081  -2.75080
 Alpha  occ. eigenvalues --   -1.13222  -1.05966  -0.98733  -0.93655  -0.88770
 Alpha  occ. eigenvalues --   -0.85208  -0.80863  -0.79961  -0.71040  -0.64942
 Alpha  occ. eigenvalues --   -0.60820  -0.58789  -0.57537  -0.55586  -0.55264
 Alpha  occ. eigenvalues --   -0.52721  -0.50095  -0.49557  -0.48917  -0.48014
 Alpha  occ. eigenvalues --   -0.46640  -0.45213  -0.41882  -0.41236  -0.39961
 Alpha  occ. eigenvalues --   -0.38533  -0.38399  -0.36256  -0.33456  -0.28903
 Alpha virt. eigenvalues --    0.01290   0.02422   0.03788   0.09631   0.12666
 Alpha virt. eigenvalues --    0.13874   0.14404   0.14940   0.16006   0.18318
 Alpha virt. eigenvalues --    0.18585   0.19605   0.20701   0.21377   0.22743

 Mulliken charges:
               1
     1  C   -0.169996
     2  C    0.203742
     3  O   -0.462714
     4  C    0.093639
     5  C   -0.293211
     6  H    0.169875
     7  H    0.163977
     8  H    0.163186
     9  N   -0.312661
    10  H    0.301144
    11  H    0.288472
    12  Br  -0.020818
    13  Br  -0.025980
    14  Cl  -0.145028
    15  C   -0.361805
    16  H    0.157314
    17  H    0.112064
    18  H    0.138798
 Sum of Mulliken charges =  -0.00000

 Dipole moment (field-independent basis, Debye):
    X=             -6.0364    Y=              4.4112    Z=              8.1638  Tot=             11.0700
 Quadrupole moment (field-independent basis, Debye-Ang):
   XX=           -108.2612   YY=            -92.3854   ZZ=            -78.2295
   XY=             10.0511   XZ=              3.1288   YZ=             -1.8709

  Exact polarizability: 208.850  -4.692 186.097 -14.304   5.850 153.373
 Approx polarizability: 166.269  -4.640 156.766 -10.148   5.970 132.478

 ******    1 imaginary frequencies (negative Signs) ******

                      1                      2                      3
                      A                      A                      A
 Frequencies --   -370.5892                42.8042                56.6398
 Red. masses --      5.9306                 3.1918                 5.0674
 Frc consts  --      0.4799                 0.0034                 0.0096
 IR Inten    --    829.2966                 0.8484                 0.6669

                      4                      5                      6
                      A                      A                      A
 Frequencies --     66.8101               122.9132               152.6310
 Red. masses --      5.6920                 4.8236                 3.3421
 Frc consts  --      0.0150                 0.0429                 0.0459
 IR Inten    --     10.8002                 2.7375                 2.4137

                      7                      8                      9
                      A                      A                      A
 Frequencies --    162.4005               184.0049               209.4361
 Red. masses --      2.4407                 4.0639                 5.6314
 Frc consts  --      0.0379                 0.0811                 0.1455
 IR Inten    --      0.5154                 4.3067                 3.8884

                     10                     11                     12
                      A                      A                      A
 Frequencies --    217.7085               244.0837               272.4218
 Red. masses --      2.7954                 2.0924                 2.0486
 Frc consts  --      0.0781                 0.0734                 0.0896
 IR Inten    --      1.7359                 3.6432                 5.0961

                     13                     14                     15
                      A                      A                      A
 Frequencies --    279.0807               289.4428               334.9653
 Red. masses --      3.6061                 4.2129                10.8934
 Frc consts  --      0.1655                 0.2079                 0.7201
 IR Inten    --     19.4537                 4.3656                 5.3992

                     16                     17                     18
                      A                      A                      A
 Frequencies --    414.1128               497.2210               590.7512
 Red. masses --      3.9911                 5.9872                 3.8142
 Frc consts  --      0.4033                 0.8721                 0.7843
 IR Inten    --      6.6879                85.9107                42.4931

                     19                     20                     21
                      A                      A                      A
 Frequencies --    633.6090               662.5645               742.5430
 Red. masses --      2.7075                 1.6563                10.2318
 Frc consts  --      0.6404                 0.4284                 3.3239
 IR Inten    --     26.6675                27.8846               229.3068

                     22                     23                     24
                      A                      A                      A
 Frequencies --    815.2807               927.0521              1000.2249
 Red. masses --      3.5551                 4.8224                 1.0799
 Frc consts  --      1.3923                 2.4418                 0.6365
 IR Inten    --    123.7292                12.9620                 7.6402

                     25                     26                     27
                      A                      A                      A
 Frequencies --   1024.4409              1042.9844              1051.7112
 Red. masses --      1.5474                 1.7029                 1.2828
 Frc consts  --      0.9568                 1.0914                 0.8360
 IR Inten    --    131.3000                 6.6101               122.4690

                     28                     29                     30
                      A                      A                      A
 Frequencies --   1075.2536              1230.8651              1289.5331
 Red. masses --      5.0861                 1.3951                 4.6136
 Frc consts  --      3.4647                 1.2453                 4.5202
 IR Inten    --     59.5257                27.3987               438.4387

                     31                     32                     33
                      A                      A                      A
 Frequencies --   1338.2040              1361.5923              1393.8781
 Red. masses --      1.3534                 7.8686                 1.2823
 Frc consts  --      1.4280                 8.5949                 1.4679
 IR Inten    --     18.0518              1145.5581                63.5283

                     34                     35                     36
                      A                      A                      A
 Frequencies --   1459.8757              1466.4137              1490.3092
 Red. masses --      1.1928                 1.0754                 1.0411
 Frc consts  --      1.4978                 1.3625                 1.3623
 IR Inten    --     10.1967                 4.9625                22.1932

                     37                     38                     39
                      A                      A                      A
 Frequencies --   1495.5986              1499.5041              1640.5365
 Red. masses --      1.0578                 1.0343                 1.0910
 Frc consts  --      1.3941                 1.3702                 1.7300
 IR Inten    --     14.1921                28.2217                86.9172

                     40                     41                     42
                      A                      A                      A
 Frequencies --   1673.3370              3075.7506              3077.7954
 Red. masses --     10.4992                 1.0325                 1.0373
 Frc consts  --     17.3209                 5.7549                 5.7895
 IR Inten    --    657.4547                19.8233                 6.4222

                     43                     44                     45
                      A                      A                      A
 Frequencies --   3154.8014              3157.2781              3173.9839
 Red. masses --      1.0991                 1.1053                 1.1063
 Frc consts  --      6.4453                 6.4915                 6.5668
 IR Inten    --     11.3735                 5.9302                 7.0231

                     46                     47                     48
                      A                      A                      A
 Frequencies --   3175.4876              3511.7029              3595.7404
 Red. masses --      1.1034                 1.0508                 1.0969
 Frc consts  --      6.5557                 7.6350                 8.3563
 IR Inten    --     32.0299                70.1725                63.2453

 - Thermochemistry -
 -------------------
 Temperature   298.150 Kelvin.  Pressure   1.00000 Atm.
 Atom     1 has atomic number  6 and mass  12.00000

 Molecular mass:   290.86611 amu.
 Principal axes and moments of inertia in atomic units:
                           1         2         3
     Eigenvalues --  2912.989633204.195624574.61026
           X            0.99360   0.11253  -0.01000
           Y           -0.11263   0.99359  -0.00979
           Z            0.00883   0.01085   0.99990
 This molecule is an asymmetric top.
 Rotational symmetry number  1.
 Warning -- assumption of classical behavior for rotation
           may cause significant error
 Rotational temperatures (Kelvin)      0.02973     0.02703     0.01893
 Rotational constants (GHZ):           0.61955     0.56324     0.39451
    1 imaginary frequencies ignored.
 Zero-point vibrational energy     337199.1 (Joules/Mol)
                                   80.59251 (Kcal/Mol)
 Warning -- explicit consideration of  17 degrees of freedom as
           vibrations may cause significant error
 Vibrational temperatures:     61.59    81.49    96.12   176.84   219.60
          (Kelvin)            233.66   264.74   301.33   313.23   351.18
                              391.95   401.53   416.44   481.94   595.82
                              715.39   849.96   911.62   953.28  1068.35
                             1173.01  1333.82  1439.10  1473.94  1500.62
                             1513.18  1547.05  1770.94  1855.35  1925.38
                             1959.03  2005.48  2100.44  2109.84  2144.22
                             2151.83  2157.45  2360.37  2407.56  4425.32
                             4428.26  4539.06  4542.62  4566.65  4568.82
                             5052.56  5173.47

 Zero-point correction=                           0.128432 (Hartree/Particle)
 Thermal correction to Energy=                    0.140985
 Thermal correction to Enthalpy=                  0.141929
 Thermal correction to Gibbs Free Energy=         0.087252
 Sum of electronic and zero-point Energies=          -5933.793493
 Sum of electronic and thermal Energies=             -5933.780941
 Sum of electronic and thermal Enthalpies=           -5933.779996
 Sum of electronic and thermal Free Energies=        -5933.834674

                     E (Thermal)             CV                S
                      KCal/Mol        Cal/Mol-Kelvin    Cal/Mol-Kelvin
 Total                   88.469             41.936            115.078
 Electronic               0.000              0.000              0.000
 Translational            0.889              2.981             42.901
 Rotational               0.889              2.981             32.124
 Vibrational             86.692             35.974             40.054
 Vibration     1          0.595              1.980              5.125
 Vibration     2          0.596              1.975              4.571
 Vibration     3          0.598              1.970              4.245
 Vibration     4          0.610              1.930              3.054
 Vibration     5          0.619              1.900              2.639
 Vibration     6          0.623              1.889              2.522
 Vibration     7          0.631              1.862              2.287
 Vibration     8          0.642              1.826              2.049
 Vibration     9          0.646              1.814              1.978
 Vibration    10          0.659              1.773              1.773
 Vibration    11          0.675              1.724              1.581
 Vibration    12          0.679              1.712              1.539
 Vibration    13          0.686              1.693              1.477
 Vibration    14          0.716              1.606              1.236
 Vibration    15          0.778              1.440              0.912
 Vibration    16          0.853              1.256              0.665
 Vibration    17          0.948              1.051              0.466

 Optimization completed.
    -- Stationary point found.
 Normal termination of Gaussian 16 at Sat Apr 10 09:11:30 2021.
