 Gaussian 16, Revision A.03,
 Gaussian 16:  ES64L-G16RevA.03 25-Dec-2016

 ----------------------------------------------------------------------
 # wB97XD def2tzvp, opt=(ts, noeigen, calcfc, maxcycles=70, maxstep=8),
  freq=noraman, scrf=(iefpcm, solvent=water)
 ----------------------------------------------------------------------

 ------------------------
 1_iteration/TS-751-1.out
 ------------------------
 Symbolic Z-matrix:
 Charge =  0 Multiplicity = 1

 SCF Done:  E(RwB97XD) =  -8295.03647639     A.U. after   15 cycles
 SCF Done:  E(RwB97XD) =  -8295.03648124     A.U. after   10 cycles
 SCF Done:  E(RwB97XD) =  -8295.03648172     A.U. after    9 cycles
 SCF Done:  E(RwB97XD) =  -8295.03648187     A.U. after    9 cycles
 SCF Done:  E(RwB97XD) =  -8295.03648187     A.U. after    7 cycles
 Optimization completed.
    -- Stationary point found.
 Normal termination of Gaussian 16 at Mon Feb 22 10:24:01 2021.

 ---------------------------------------------------------------------
 #N Geom=AllCheck Guess=TCheck SCRF=Check GenChk RwB97XD/def2TZVP Freq
 ---------------------------------------------------------------------

 Structure from the checkpoint file:  "/beegfs/scratch/user/q/tla25/Gau-50267.chk"
 ------------------------
 1_iteration/TS-751-1.out
 ------------------------
 Charge =  0 Multiplicity = 1

                         Standard orientation:
 ---------------------------------------------------------------------
 Center     Atomic      Atomic             Coordinates (Angstroms)
 Number     Number       Type             X           Y           Z
 ---------------------------------------------------------------------
      1          6           0        0.605991    0.708531   -0.305543
      2          6           0       -0.836306    0.997017   -0.338936
      3          8           0       -1.264910    2.121628   -0.558679
      4          6           0        1.219535   -0.473896    0.071099
      5          6           0        0.958561    0.277996    2.750919
      6          1           0        0.590188    0.090162    3.758495
      7          1           0        2.007227    0.564062    2.794188
      8          1           0        0.382675    1.088173    2.304729
      9          7           0        0.816626   -0.907102    1.914574
     10          1           0        1.425403   -1.665144    2.204960
     11          1           0       -0.138763   -1.247836    1.922653
     12         35           0        3.130749   -0.561640    0.142151
     13         35           0        0.591655   -2.194195   -0.680865
     14         35           0        1.653164    2.285618   -0.534081
     15          7           0       -1.690770   -0.044661   -0.049921
     16          6           0       -3.094637    0.013959   -0.005683
     17          6           0       -3.798056    1.143859    0.406520
     18          6           0       -5.182934    1.104905    0.472543
     19          6           0       -5.883226   -0.046347    0.143766
     20          6           0       -5.180103   -1.174300   -0.254835
     21          6           0       -3.798215   -1.145279   -0.332642
     22          1           0       -1.326176   -0.975986   -0.163434
     23          1           0       -3.264373    2.043037    0.669658
     24          1           0       -5.718188    1.990261    0.792649
     25          1           0       -6.963774   -0.065786    0.200179
     26          1           0       -5.707939   -2.083746   -0.512699
     27          1           0       -3.256516   -2.028955   -0.649933
 ---------------------------------------------------------------------

 SCF Done:  E(RwB97XD) =  -8295.03648187     A.U. after    1 cycles

 The electronic state is 1-A.
 Alpha  occ. eigenvalues -- -483.15314-483.15148-483.12768 -62.70149 -62.69982
 Alpha  occ. eigenvalues --  -62.67594 -56.49298 -56.49112 -56.48900 -56.48878
 Alpha  occ. eigenvalues --  -56.48740 -56.48726 -56.46725 -56.46351 -56.46340
 Alpha  occ. eigenvalues --  -19.21775 -14.50541 -14.46976 -10.45645 -10.40417
 Alpha  occ. eigenvalues --  -10.33938 -10.33051 -10.32510 -10.29230 -10.29137
 Alpha  occ. eigenvalues --  -10.29107 -10.28707 -10.28578  -8.84258  -8.84076
 Alpha  occ. eigenvalues --   -8.81707  -6.66510  -6.66258  -6.65241  -6.65176
 Alpha  occ. eigenvalues --   -6.65084  -6.65041  -6.63901  -6.62704  -6.62675
 Alpha  occ. eigenvalues --   -2.76882  -2.76630  -2.76526  -2.76475  -2.76310
 Alpha  occ. eigenvalues --   -2.76274  -2.75449  -2.75449  -2.75327  -2.75325
 Alpha  occ. eigenvalues --   -2.74283  -2.73936  -2.73914  -2.72945  -2.72945
 Alpha  occ. eigenvalues --   -1.15164  -1.05988  -1.04629  -0.97777  -0.95704
 Alpha  occ. eigenvalues --   -0.90714  -0.88863  -0.85572  -0.85338  -0.81569
 Alpha  occ. eigenvalues --   -0.79962  -0.74250  -0.71902  -0.68902  -0.65856
 Alpha  occ. eigenvalues --   -0.64691  -0.62923  -0.59868  -0.58508  -0.58127
 Alpha  occ. eigenvalues --   -0.55836  -0.54319  -0.53710  -0.52428  -0.52162
 Alpha  occ. eigenvalues --   -0.51672  -0.50711  -0.48977  -0.48266  -0.47004
 Alpha  occ. eigenvalues --   -0.46046  -0.44909  -0.43337  -0.41556  -0.40877
 Alpha  occ. eigenvalues --   -0.39870  -0.39209  -0.38725  -0.37934  -0.36859
 Alpha  occ. eigenvalues --   -0.34442  -0.33550  -0.31192  -0.28364
 Alpha virt. eigenvalues --    0.00156   0.02354   0.02793   0.05204   0.06579
 Alpha virt. eigenvalues --    0.09896   0.11706   0.13165   0.13746   0.14548
 Alpha virt. eigenvalues --    0.15192   0.15829   0.16724   0.17773   0.18167

 Mulliken charges:
               1
     1  C   -0.248126
     2  C    0.346472
     3  O   -0.478582
     4  C    0.070191
     5  C   -0.292436
     6  H    0.170307
     7  H    0.164174
     8  H    0.162388
     9  N   -0.316369
    10  H    0.303171
    11  H    0.289659
    12  Br   0.000226
    13  Br  -0.061795
    14  Br  -0.097485
    15  N   -0.281052
    16  C    0.294699
    17  C   -0.299417
    18  C   -0.093754
    19  C   -0.187666
    20  C   -0.104003
    21  C   -0.287374
    22  H    0.217487
    23  H    0.150810
    24  H    0.143677
    25  H    0.142397
    26  H    0.144652
    27  H    0.147749
 Sum of Mulliken charges =  -0.00000

 Dipole moment (field-independent basis, Debye):
    X=              1.2555    Y=             -7.8885    Z=              7.3339  Tot=             10.8439
 Quadrupole moment (field-independent basis, Debye-Ang):
   XX=           -126.6274   YY=           -135.7201   ZZ=           -121.5764
   XY=              3.6117   XZ=              4.1113   YZ=              2.0456

  Exact polarizability: 347.744   1.193 307.015   3.987   5.490 211.810
 Approx polarizability: 260.927   1.995 257.158   1.662   4.333 183.527

 ******    1 imaginary frequencies (negative Signs) ******

                      1                      2                      3
                      A                      A                      A
 Frequencies --   -380.8615                19.2771                25.4520
 Red. masses --      5.6745                 5.6732                 4.3366
 Frc consts  --      0.4850                 0.0012                 0.0017
 IR Inten    --    636.8636                 2.0470                 0.4157

                      4                      5                      6
                      A                      A                      A
 Frequencies --     54.9269                60.0246                63.5573
 Red. masses --      7.8522                 3.5439                 5.1703
 Frc consts  --      0.0140                 0.0075                 0.0123
 IR Inten    --      7.5349                 0.4483                 0.1374

                      7                      8                      9
                      A                      A                      A
 Frequencies --     83.1046               118.5499               137.8508
 Red. masses --      9.0851                 4.6121                 3.0431
 Frc consts  --      0.0370                 0.0382                 0.0341
 IR Inten    --      6.1020                 4.9643                 5.8332

                     10                     11                     12
                      A                      A                      A
 Frequencies --    148.4182               159.4300               172.7772
 Red. masses --     19.6148                 1.8729                 7.8535
 Frc consts  --      0.2546                 0.0280                 0.1381
 IR Inten    --      0.9148                 0.9369                 3.9890

                     13                     14                     15
                      A                      A                      A
 Frequencies --    190.1160               215.1037               232.6658
 Red. masses --      5.1049                 5.4835                 4.4128
 Frc consts  --      0.1087                 0.1495                 0.1407
 IR Inten    --      5.7240                 9.8119                 5.3312

                     16                     17                     18
                      A                      A                      A
 Frequencies --    255.7040               271.7966               300.9862
 Red. masses --      6.5629                 5.3661                 4.4191
 Frc consts  --      0.2528                 0.2336                 0.2359
 IR Inten    --     13.4884                12.2749                 4.1411

                     19                     20                     21
                      A                      A                      A
 Frequencies --    350.1866               382.5484               423.6098
 Red. masses --     12.7661                 5.9540                 2.9493
 Frc consts  --      0.9224                 0.5134                 0.3118
 IR Inten    --     10.9447                 6.9183                 0.6259

                     22                     23                     24
                      A                      A                      A
 Frequencies --    498.5902               522.9471               551.2439
 Red. masses --      6.7880                 2.5586                 1.6092
 Frc consts  --      0.9942                 0.4123                 0.2881
 IR Inten    --     47.6012               100.0378                85.2902

                     25                     26                     27
                      A                      A                      A
 Frequencies --    575.5073               633.1653               647.7267
 Red. masses --      3.5816                 4.4454                 1.9531
 Frc consts  --      0.6989                 1.0500                 0.4828
 IR Inten    --     53.6409                 5.6487                21.3601

                     28                     29                     30
                      A                      A                      A
 Frequencies --    679.8680               718.7359               746.9633
 Red. masses --      7.6273                 1.8892                 3.5335
 Frc consts  --      2.0772                 0.5750                 1.1616
 IR Inten    --    231.1737                58.3024                63.8967

                     31                     32                     33
                      A                      A                      A
 Frequencies --    772.2996               786.6483               833.6646
 Red. masses --      9.4850                 1.9053                 4.9846
 Frc consts  --      3.3332                 0.6947                 2.0411
 IR Inten    --     50.1655                93.6310                26.1427

                     34                     35                     36
                      A                      A                      A
 Frequencies --    861.6655               907.3416               941.3224
 Red. masses --      1.2582                 4.3687                 1.5983
 Frc consts  --      0.5504                 2.1191                 0.8344
 IR Inten    --      1.3652                28.7013                 6.2082

                     37                     38                     39
                      A                      A                      A
 Frequencies --   1004.2550              1006.9480              1020.3272
 Red. masses --      1.3585                 1.0921                 3.1275
 Frc consts  --      0.8072                 0.6524                 1.9183
 IR Inten    --      0.1493                18.2503                 2.7736

                     40                     41                     42
                      A                      A                      A
 Frequencies --   1021.7331              1028.2622              1050.9117
 Red. masses --      1.6187                 5.0304                 1.1928
 Frc consts  --      0.9956                 3.1337                 0.7761
 IR Inten    --      0.0931                 4.6187                68.9913

                     43                     44                     45
                      A                      A                      A
 Frequencies --   1065.9473              1077.4520              1124.0760
 Red. masses --      2.0604                 4.9656                 1.5439
 Frc consts  --      1.3793                 3.3964                 1.1494
 IR Inten    --     14.0435                55.7910                14.7160

                     46                     47                     48
                      A                      A                      A
 Frequencies --   1183.4908              1212.7025              1227.2548
 Red. masses --      1.1274                 1.1335                 1.5276
 Frc consts  --      0.9304                 0.9822                 1.3556
 IR Inten    --      5.4216                27.2476               107.6013

                     49                     50                     51
                      A                      A                      A
 Frequencies --   1243.4635              1280.2807              1337.9168
 Red. masses --      3.0621                 3.2022                 3.6099
 Frc consts  --      2.7896                 3.0925                 3.8072
 IR Inten    --    830.9440               108.0719               376.0987

                     52                     53                     54
                      A                      A                      A
 Frequencies --   1343.5482              1365.4559              1389.5838
 Red. masses --      1.4634                 1.4840                 6.3551
 Frc consts  --      1.5564                 1.6302                 7.2301
 IR Inten    --     57.4947                23.4410               656.5937

                     55                     56                     57
                      A                      A                      A
 Frequencies --   1458.6013              1483.0297              1491.4999
 Red. masses --      1.2106                 2.1057                 1.0450
 Frc consts  --      1.5175                 2.7287                 1.3697
 IR Inten    --     11.2491               164.7946                27.9357

                     58                     59                     60
                      A                      A                      A
 Frequencies --   1498.2787              1548.2703              1577.9287
 Red. masses --      1.0335                 2.4005                 1.8636
 Frc consts  --      1.3670                 3.3904                 2.7339
 IR Inten    --     14.9867               216.4338               471.0145

                     61                     62                     63
                      A                      A                      A
 Frequencies --   1633.8999              1666.1300              1674.1075
 Red. masses --      1.0941                 5.5128                 4.7667
 Frc consts  --      1.7210                 9.0165                 7.8711
 IR Inten    --     82.4841               113.5003                43.2430

                     64                     65                     66
                      A                      A                      A
 Frequencies --   1697.0580              3075.6108              3156.4089
 Red. masses --      7.5958                 1.0326                 1.1050
 Frc consts  --     12.8889                 5.7550                 6.4864
 IR Inten    --    688.9284                20.4406                 5.9122

                     67                     68                     69
                      A                      A                      A
 Frequencies --   3173.8985              3190.0244              3199.0349
 Red. masses --      1.1061                 1.0881                 1.0883
 Frc consts  --      6.5648                 6.5237                 6.5621
 IR Inten    --      7.9017                10.9724                 1.8581

                     70                     71                     72
                      A                      A                      A
 Frequencies --   3208.7831              3222.7154              3260.9920
 Red. masses --      1.0932                 1.0980                 1.0930
 Frc consts  --      6.6316                 6.7188                 6.8479
 IR Inten    --     27.3229                22.3852                 1.1769

                     73                     74                     75
                      A                      A                      A
 Frequencies --   3515.1301              3599.9410              3609.6226
 Red. masses --      1.0504                 1.0969                 1.0764
 Frc consts  --      7.6471                 8.3756                 8.2632
 IR Inten    --     69.0959                82.8795               213.5721

 - Thermochemistry -
 -------------------
 Temperature   298.150 Kelvin.  Pressure   1.00000 Atm.
 Atom     1 has atomic number  6 and mass  12.00000

 Molecular mass:   411.84215 amu.
 Principal axes and moments of inertia in atomic units:
                           1         2         3
     Eigenvalues --  4508.47510********************
           X            0.99998  -0.00293   0.00485
           Y            0.00292   0.99999   0.00286
           Z           -0.00486  -0.00285   0.99998
 This molecule is an asymmetric top.
 Rotational symmetry number  1.
 Warning -- assumption of classical behavior for rotation
           may cause significant error
 Rotational temperatures (Kelvin)      0.01921     0.00798     0.00639
 Rotational constants (GHZ):           0.40030     0.16618     0.13315
    1 imaginary frequencies ignored.
 Zero-point vibrational energy     521980.7 (Joules/Mol)
                                  124.75637 (Kcal/Mol)
 Warning -- explicit consideration of  24 degrees of freedom as
           vibrations may cause significant error
 Vibrational temperatures:     27.74    36.62    79.03    86.36    91.44
          (Kelvin)            119.57   170.57   198.34   213.54   229.38
                              248.59   273.53   309.49   334.75   367.90
                              391.05   433.05   503.84   550.40   609.48
                              717.36   752.40   793.12   828.03   910.98
                              931.93   978.18  1034.10  1074.71  1111.17
                             1131.81  1199.46  1239.74  1305.46  1354.35
                             1444.90  1448.77  1468.02  1470.05  1479.44
                             1512.03  1533.66  1550.21  1617.29  1702.78
                             1744.81  1765.75  1789.07  1842.04  1924.96
                             1933.07  1964.59  1999.30  2098.60  2133.75
                             2145.94  2155.69  2227.62  2270.29  2350.82
                             2397.19  2408.67  2441.69  4425.12  4541.37
                             4566.53  4589.73  4602.70  4616.72  4636.77
                             4691.84  5057.49  5179.51  5193.44

 Zero-point correction=                           0.198812 (Hartree/Particle)
 Thermal correction to Energy=                    0.216067
 Thermal correction to Enthalpy=                  0.217011
 Thermal correction to Gibbs Free Energy=         0.149344
 Sum of electronic and zero-point Energies=          -8294.837670
 Sum of electronic and thermal Energies=             -8294.820415
 Sum of electronic and thermal Enthalpies=           -8294.819470
 Sum of electronic and thermal Free Energies=        -8294.887137

                     E (Thermal)             CV                S
                      KCal/Mol        Cal/Mol-Kelvin    Cal/Mol-Kelvin
 Total                  135.584             59.902            142.417
 Electronic               0.000              0.000              0.000
 Translational            0.889              2.981             43.937
 Rotational               0.889              2.981             34.850
 Vibrational            133.807             53.940             63.630
 Vibration     1          0.593              1.986              6.707
 Vibration     2          0.593              1.985              6.156
 Vibration     3          0.596              1.976              4.632
 Vibration     4          0.597              1.973              4.456
 Vibration     5          0.597              1.972              4.344
 Vibration     6          0.600              1.961              3.816
 Vibration     7          0.609              1.934              3.124
 Vibration     8          0.614              1.916              2.833
 Vibration     9          0.618              1.904              2.692
 Vibration    10          0.621              1.892              2.557
 Vibration    11          0.626              1.876              2.405
 Vibration    12          0.633              1.853              2.227
 Vibration    13          0.645              1.818              2.000
 Vibration    14          0.653              1.791              1.858
 Vibration    15          0.666              1.753              1.691
 Vibration    16          0.675              1.725              1.585
 Vibration    17          0.693              1.672              1.411
 Vibration    18          0.727              1.575              1.165
 Vibration    19          0.752              1.507              1.029
 Vibration    20          0.786              1.419              0.880
 Vibration    21          0.854              1.253              0.662
 Vibration    22          0.878              1.199              0.603
 Vibration    23          0.907              1.137              0.542
 Vibration    24          0.932              1.084              0.494

 Optimization completed.
    -- Stationary point found.
 Normal termination of Gaussian 16 at Mon Feb 22 11:30:23 2021.
