 Gaussian 16, Revision A.03,
 Gaussian 16:  ES64L-G16RevA.03 25-Dec-2016

 ----------------------------------------------------------------------
 # wB97XD def2tzvp, opt=(ts, noeigen, calcfc, maxcycles=70, maxstep=8),
  freq=noraman, scrf=(iefpcm, solvent=water)
 ----------------------------------------------------------------------

 ------------------------
 1_iteration/TS-776-1.out
 ------------------------
 Symbolic Z-matrix:
 Charge =  0 Multiplicity = 1

 SCF Done:  E(RwB97XD) =  -3552.04353640     A.U. after   17 cycles
 SCF Done:  E(RwB97XD) =  -3552.04640474     A.U. after   15 cycles
 SCF Done:  E(RwB97XD) =  -3552.04993401     A.U. after   15 cycles
 SCF Done:  E(RwB97XD) =  -3552.05295332     A.U. after   14 cycles
 SCF Done:  E(RwB97XD) =  -3552.05585443     A.U. after   15 cycles
 SCF Done:  E(RwB97XD) =  -3552.05803526     A.U. after   14 cycles
 SCF Done:  E(RwB97XD) =  -3552.05925055     A.U. after   13 cycles
 SCF Done:  E(RwB97XD) =  -3552.05968731     A.U. after   13 cycles
 SCF Done:  E(RwB97XD) =  -3552.05965653     A.U. after   12 cycles
 SCF Done:  E(RwB97XD) =  -3552.05961400     A.U. after   12 cycles
 SCF Done:  E(RwB97XD) =  -3552.05991209     A.U. after   12 cycles
 SCF Done:  E(RwB97XD) =  -3552.05995207     A.U. after   11 cycles
 SCF Done:  E(RwB97XD) =  -3552.05980948     A.U. after   12 cycles
 SCF Done:  E(RwB97XD) =  -3552.05995180     A.U. after   12 cycles
 SCF Done:  E(RwB97XD) =  -3552.05995391     A.U. after   10 cycles
 SCF Done:  E(RwB97XD) =  -3552.05995336     A.U. after    8 cycles
 SCF Done:  E(RwB97XD) =  -3552.05995372     A.U. after    8 cycles
 SCF Done:  E(RwB97XD) =  -3552.05995357     A.U. after    8 cycles
 SCF Done:  E(RwB97XD) =  -3552.05995375     A.U. after    8 cycles
 Optimization completed.
    -- Stationary point found.
 Normal termination of Gaussian 16 at Mon Feb 22 10:25:43 2021.

 ---------------------------------------------------------------------
 #N Geom=AllCheck Guess=TCheck SCRF=Check GenChk RwB97XD/def2TZVP Freq
 ---------------------------------------------------------------------

 Structure from the checkpoint file:  "/beegfs/scratch/user/q/tla25/Gau-64210.chk"
 ------------------------
 1_iteration/TS-776-1.out
 ------------------------
 Charge =  0 Multiplicity = 1

                         Standard orientation:
 ---------------------------------------------------------------------
 Center     Atomic      Atomic             Coordinates (Angstroms)
 Number     Number       Type             X           Y           Z
 ---------------------------------------------------------------------
      1          6           0       -0.097323   -0.283067   -0.058815
      2          6           0        0.990834    0.616170   -0.321303
      3          8           0        0.828002    1.795762   -0.644565
      4          6           0       -1.405532    0.049450   -0.314735
      5          6           0       -1.497528    1.358478    2.267868
      6          1           0       -1.351221    2.274115    2.842098
      7          1           0       -2.270972    0.757456    2.741677
      8          1           0       -0.560588    0.794395    2.267129
      9          7           0       -1.864910    1.629592    0.891748
     10          1           0       -2.827586    1.920458    0.778511
     11          1           0       -1.248571    2.309548    0.459468
     12         35           0       -2.724304   -1.217576    0.242175
     13         17           0       -1.878194    0.867281   -1.795397
     14          1           0        0.084258   -1.171744    0.524951
     15          6           0        2.384820    0.092831   -0.128659
     16          6           0        2.692482   -1.259510   -0.254626
     17          6           0        3.997002   -1.700698   -0.091422
     18          6           0        5.004171   -0.795617    0.211029
     19          6           0        4.705110    0.554614    0.339707
     20          6           0        3.404249    0.995606    0.163613
     21          1           0        1.915712   -1.971760   -0.502484
     22          1           0        4.227437   -2.752531   -0.202931
     23          1           0        6.021665   -1.141122    0.343872
     24          1           0        5.488428    1.263320    0.576986
     25          1           0        3.161999    2.046449    0.254719
 ---------------------------------------------------------------------

 SCF Done:  E(RwB97XD) =  -3552.05995375     A.U. after    1 cycles

 The electronic state is 1-A.
 Alpha  occ. eigenvalues -- -483.14587-101.71123 -62.69430 -56.48561 -56.48186
 Alpha  occ. eigenvalues --  -56.48173 -19.22355 -14.47456 -10.44293 -10.36992
 Alpha  occ. eigenvalues --  -10.31391 -10.29958 -10.29664 -10.29540 -10.29385
 Alpha  occ. eigenvalues --  -10.29335 -10.29290 -10.27472  -9.59694  -8.83543
 Alpha  occ. eigenvalues --   -7.34373  -7.33458  -7.33421  -6.65744  -6.64542
 Alpha  occ. eigenvalues --   -6.64504  -2.76127  -2.75780  -2.75751  -2.74779
 Alpha  occ. eigenvalues --   -2.74779  -1.13164  -1.03630  -0.99187  -0.97012
 Alpha  occ. eigenvalues --   -0.90672  -0.87656  -0.85566  -0.84467  -0.78466
 Alpha  occ. eigenvalues --   -0.74458  -0.70924  -0.68213  -0.63499  -0.62645
 Alpha  occ. eigenvalues --   -0.61204  -0.57427  -0.56779  -0.56035  -0.54951
 Alpha  occ. eigenvalues --   -0.54086  -0.52652  -0.51490  -0.51293  -0.48877
 Alpha  occ. eigenvalues --   -0.48371  -0.47652  -0.46941  -0.45546  -0.44312
 Alpha  occ. eigenvalues --   -0.42903  -0.41975  -0.40164  -0.37965  -0.37149
 Alpha  occ. eigenvalues --   -0.34319  -0.34223  -0.33390  -0.30100
 Alpha virt. eigenvalues --   -0.00375   0.03545   0.04963   0.06063   0.09304
 Alpha virt. eigenvalues --    0.11116   0.13405   0.13846   0.15400   0.16392
 Alpha virt. eigenvalues --    0.16466   0.17165   0.18332   0.18751   0.19755

 Mulliken charges:
               1
     1  C   -0.551046
     2  C    0.326290
     3  O   -0.493609
     4  C    0.251348
     5  C   -0.278881
     6  H    0.153440
     7  H    0.154118
     8  H    0.143421
     9  N   -0.386194
    10  H    0.286979
    11  H    0.277628
    12  Br  -0.040783
    13  Cl  -0.048049
    14  H    0.187695
    15  C    0.146232
    16  C   -0.237999
    17  C   -0.143109
    18  C   -0.134455
    19  C   -0.126051
    20  C   -0.228020
    21  H    0.159229
    22  H    0.145575
    23  H    0.147815
    24  H    0.145193
    25  H    0.143234
 Sum of Mulliken charges =  -0.00000

 Dipole moment (field-independent basis, Debye):
    X=             -1.8683    Y=             -0.0037    Z=              4.6003  Tot=              4.9652
 Quadrupole moment (field-independent basis, Debye-Ang):
   XX=            -86.2750   YY=            -95.8629   ZZ=           -102.3289
   XY=            -10.8145   XZ=             -3.1438   YZ=              7.2062

  Exact polarizability: 306.767  -4.051 231.254  -0.569   3.431 173.523
 Approx polarizability: 220.840  -1.345 201.838   1.982  -1.018 150.010

 ******    1 imaginary frequencies (negative Signs) ******

                      1                      2                      3
                      A                      A                      A
 Frequencies --   -377.3904                35.7241                39.1015
 Red. masses --      5.4023                 4.0670                 5.2298
 Frc consts  --      0.4533                 0.0031                 0.0047
 IR Inten    --    781.8611                 0.0757                 3.8756

                      4                      5                      6
                      A                      A                      A
 Frequencies --     68.3280                85.8109               110.7763
 Red. masses --      6.6306                 2.9528                 2.7352
 Frc consts  --      0.0182                 0.0128                 0.0198
 IR Inten    --      8.3557                 0.9382                30.0976

                      7                      8                      9
                      A                      A                      A
 Frequencies --    141.3524               160.0658               166.7759
 Red. masses --      4.0176                 3.4602                 3.6490
 Frc consts  --      0.0473                 0.0522                 0.0598
 IR Inten    --      1.8604                 2.8350                 1.5654

                     10                     11                     12
                      A                      A                      A
 Frequencies --    195.4671               200.3391               247.7213
 Red. masses --      1.6880                10.5937                10.4776
 Frc consts  --      0.0380                 0.2505                 0.3788
 IR Inten    --      2.1347                 0.7347                 6.7374

                     13                     14                     15
                      A                      A                      A
 Frequencies --    276.8585               300.7562               340.7664
 Red. masses --      4.3899                 5.6711                 9.2479
 Frc consts  --      0.1983                 0.3022                 0.6327
 IR Inten    --      1.2900                41.9110                15.9130

                     16                     17                     18
                      A                      A                      A
 Frequencies --    410.8253               420.6783               466.4881
 Red. masses --      5.0654                 2.9489                 3.7786
 Frc consts  --      0.5037                 0.3075                 0.4845
 IR Inten    --      1.8195                 0.4897                61.4272

                     19                     20                     21
                      A                      A                      A
 Frequencies --    497.3337               566.0196               635.1447
 Red. masses --      4.8007                 2.4049                 6.2863
 Frc consts  --      0.6996                 0.4540                 1.4941
 IR Inten    --     25.4359                 2.0746                 0.2470

                     22                     23                     24
                      A                      A                      A
 Frequencies --    651.2722               685.5047               712.7130
 Red. masses --      2.6911                 1.6589                 3.5667
 Frc consts  --      0.6725                 0.4593                 1.0675
 IR Inten    --    139.8589                57.8784                35.1012

                     25                     26                     27
                      A                      A                      A
 Frequencies --    721.6127               753.1384               773.5012
 Red. masses --      1.5332                 2.5235                 4.4441
 Frc consts  --      0.4704                 0.8433                 1.5666
 IR Inten    --     51.6343               132.6545               177.6961

                     28                     29                     30
                      A                      A                      A
 Frequencies --    833.8753               880.9169               930.8712
 Red. masses --      3.1211                 1.2495                 4.7719
 Frc consts  --      1.2787                 0.5713                 2.4362
 IR Inten    --     18.3081                 0.5393                93.3917

                     31                     32                     33
                      A                      A                      A
 Frequencies --    970.7508               973.3213              1018.1071
 Red. masses --      1.1412                 1.4585                 1.3840
 Frc consts  --      0.6336                 0.8141                 0.8452
 IR Inten    --    105.8133                 7.4410                 1.5937

                     34                     35                     36
                      A                      A                      A
 Frequencies --   1024.6909              1026.0612              1035.0432
 Red. masses --      1.1519                 5.5321                 1.3204
 Frc consts  --      0.7126                 3.4315                 0.8334
 IR Inten    --     49.4068                 3.5098                 0.6940

                     37                     38                     39
                      A                      A                      A
 Frequencies --   1056.7547              1094.8600              1096.8291
 Red. masses --      2.4478                 2.9710                 3.1434
 Frc consts  --      1.6106                 2.0983                 2.2281
 IR Inten    --     27.3755                61.0347                21.3924

                     40                     41                     42
                      A                      A                      A
 Frequencies --   1115.6211              1183.8005              1186.3834
 Red. masses --      1.7032                 1.1354                 1.4254
 Frc consts  --      1.2489                 0.9375                 1.1820
 IR Inten    --      4.2951                 2.6375                14.9077

                     43                     44                     45
                      A                      A                      A
 Frequencies --   1203.7508              1244.6364              1307.5499
 Red. masses --      1.1329                 1.8179                 3.2139
 Frc consts  --      0.9672                 1.6592                 3.2375
 IR Inten    --     26.0839               444.8411                25.1861

                     46                     47                     48
                      A                      A                      A
 Frequencies --   1336.7876              1342.5008              1355.4989
 Red. masses --      3.4136                 1.5158                 1.5148
 Frc consts  --      3.5941                 1.6096                 1.6398
 IR Inten    --     10.8888                 1.0528                12.9648

                     49                     50                     51
                      A                      A                      A
 Frequencies --   1450.3976              1467.5170              1487.7131
 Red. masses --      1.8025                 1.7339                 1.0479
 Frc consts  --      2.2341                 2.2001                 1.3664
 IR Inten    --   1012.8036               662.1394                16.2922

                     52                     53                     54
                      A                      A                      A
 Frequencies --   1494.4984              1503.5998              1539.9168
 Red. masses --      2.3413                 1.0329                 2.3067
 Frc consts  --      3.0810                 1.3759                 3.2228
 IR Inten    --    228.7971                 4.2665                14.8541

                     55                     56                     57
                      A                      A                      A
 Frequencies --   1636.0855              1646.4033              1670.9877
 Red. masses --      1.5199                 2.6459                 5.8793
 Frc consts  --      2.3970                 4.2257                 9.6722
 IR Inten    --    249.3383                18.5403                67.7861

                     58                     59                     60
                      A                      A                      A
 Frequencies --   1678.3810              3049.1880              3118.3494
 Red. masses --      6.9971                 1.0363                 1.1012
 Frc consts  --     11.6132                 5.6768                 6.3093
 IR Inten    --    181.2481                35.8301                16.3202

                     61                     62                     63
                      A                      A                      A
 Frequencies --   3160.7233              3196.0336              3203.6559
 Red. masses --      1.1038                 1.0860                 1.0885
 Frc consts  --      6.4969                 6.5357                 6.5821
 IR Inten    --     14.9659                 0.5672                 3.8496

                     64                     65                     66
                      A                      A                      A
 Frequencies --   3211.2006              3218.9016              3224.6182
 Red. masses --      1.0920                 1.0947                 1.0983
 Frc consts  --      6.6347                 6.6827                 6.7287
 IR Inten    --     16.0197                24.5120                18.1598

                     67                     68                     69
                      A                      A                      A
 Frequencies --   3243.5769              3518.9587              3617.9515
 Red. masses --      1.0896                 1.0512                 1.0965
 Frc consts  --      6.7538                 7.6697                 8.4564
 IR Inten    --      1.6561                37.5377                92.9914

 - Thermochemistry -
 -------------------
 Temperature   298.150 Kelvin.  Pressure   1.00000 Atm.
 Atom     1 has atomic number  6 and mass  12.00000

 Molecular mass:   274.97125 amu.
 Principal axes and moments of inertia in atomic units:
                           1         2         3
     Eigenvalues --  2125.857227919.508068455.81672
           X            0.99955  -0.02908  -0.00679
           Y            0.02972   0.99108   0.12990
           Z            0.00295  -0.13005   0.99150
 This molecule is an asymmetric top.
 Rotational symmetry number  1.
 Warning -- assumption of classical behavior for rotation
           may cause significant error
 Rotational temperatures (Kelvin)      0.04074     0.01094     0.01024
 Rotational constants (GHZ):           0.84895     0.22789     0.21343
    1 imaginary frequencies ignored.
 Zero-point vibrational energy     503755.5 (Joules/Mol)
                                  120.40046 (Kcal/Mol)
 Warning -- explicit consideration of  19 degrees of freedom as
           vibrations may cause significant error
 Vibrational temperatures:     51.40    56.26    98.31   123.46   159.38
          (Kelvin)            203.37   230.30   239.95   281.23   288.24
                              356.42   398.34   432.72   490.29   591.09
                              605.26   671.17   715.55   814.38   913.83
                              937.04   986.29  1025.44  1038.24  1083.60
                             1112.90  1199.76  1267.44  1339.32  1396.69
                             1400.39  1464.83  1474.30  1476.27  1489.20
                             1520.43  1575.26  1578.09  1605.13  1703.22
                             1706.94  1731.93  1790.75  1881.27  1923.34
                             1931.56  1950.26  2086.80  2111.43  2140.49
                             2150.25  2163.34  2215.60  2353.96  2368.81
                             2404.18  2414.82  4387.10  4486.61  4547.58
                             4598.38  4609.35  4620.20  4631.28  4639.51
                             4666.78  5063.00  5205.43

 Zero-point correction=                           0.191870 (Hartree/Particle)
 Thermal correction to Energy=                    0.206127
 Thermal correction to Enthalpy=                  0.207071
 Thermal correction to Gibbs Free Energy=         0.148357
 Sum of electronic and zero-point Energies=          -3551.868083
 Sum of electronic and thermal Energies=             -3551.853826
 Sum of electronic and thermal Enthalpies=           -3551.852882
 Sum of electronic and thermal Free Energies=        -3551.911597

                     E (Thermal)             CV                S
                      KCal/Mol        Cal/Mol-Kelvin    Cal/Mol-Kelvin
 Total                  129.347             51.160            123.575
 Electronic               0.000              0.000              0.000
 Translational            0.889              2.981             42.733
 Rotational               0.889              2.981             33.320
 Vibrational            127.569             45.198             47.522
 Vibration     1          0.594              1.982              5.483
 Vibration     2          0.594              1.981              5.304
 Vibration     3          0.598              1.969              4.201
 Vibration     4          0.601              1.959              3.753
 Vibration     5          0.607              1.941              3.255
 Vibration     6          0.615              1.912              2.785
 Vibration     7          0.622              1.891              2.549
 Vibration     8          0.624              1.883              2.472
 Vibration     9          0.636              1.846              2.175
 Vibration    10          0.638              1.839              2.130
 Vibration    11          0.661              1.767              1.747
 Vibration    12          0.678              1.716              1.553
 Vibration    13          0.693              1.672              1.413
 Vibration    14          0.720              1.594              1.209
 Vibration    15          0.775              1.447              0.924
 Vibration    16          0.783              1.425              0.890
 Vibration    17          0.824              1.324              0.747
 Vibration    18          0.853              1.256              0.665
 Vibration    19          0.922              1.105              0.512

 Optimization completed.
    -- Stationary point found.
 Normal termination of Gaussian 16 at Mon Feb 22 11:06:03 2021.
