 Gaussian 16, Revision A.03,
 Gaussian 16:  ES64L-G16RevA.03 25-Dec-2016

 ----------------------------------------------------------------------
 # wB97XD def2tzvp, opt=(ts, noeigen, calcfc, maxcycles=70, maxstep=8),
  freq=noraman, scrf=(iefpcm, solvent=water)
 ----------------------------------------------------------------------

 ------------------------
 1_iteration/TS-723-1.out
 ------------------------
 Symbolic Z-matrix:
 Charge =  0 Multiplicity = 1

 SCF Done:  E(RwB97XD) =  -5721.44374117     A.U. after   15 cycles
 SCF Done:  E(RwB97XD) =  -5721.44433627     A.U. after   12 cycles
 SCF Done:  E(RwB97XD) =  -5721.44441873     A.U. after   12 cycles
 SCF Done:  E(RwB97XD) =  -5721.44448159     A.U. after   12 cycles
 SCF Done:  E(RwB97XD) =  -5721.44448444     A.U. after   10 cycles
 SCF Done:  E(RwB97XD) =  -5721.44443767     A.U. after   12 cycles
 SCF Done:  E(RwB97XD) =  -5721.44445549     A.U. after   12 cycles
 SCF Done:  E(RwB97XD) =  -5721.44448341     A.U. after   12 cycles
 SCF Done:  E(RwB97XD) =  -5721.44448491     A.U. after   10 cycles
 SCF Done:  E(RwB97XD) =  -5721.44448488     A.U. after    8 cycles
 Optimization completed.
    -- Stationary point found.
 Normal termination of Gaussian 16 at Sun Mar 28 16:00:02 2021.

 ---------------------------------------------------------------------
 #N Geom=AllCheck Guess=TCheck SCRF=Check GenChk RwB97XD/def2TZVP Freq
 ---------------------------------------------------------------------

 Structure from the checkpoint file:  "/beegfs/scratch/user/q/tla25/Gau-2825.chk"
 ------------------------
 1_iteration/TS-723-1.out
 ------------------------
 Charge =  0 Multiplicity = 1

                         Standard orientation:
 ---------------------------------------------------------------------
 Center     Atomic      Atomic             Coordinates (Angstroms)
 Number     Number       Type             X           Y           Z
 ---------------------------------------------------------------------
      1          6           0        0.246764    0.758107   -0.077246
      2          6           0       -0.056092    2.190261   -0.067528
      3          8           0       -1.143182    2.647501    0.311471
      4          6           0       -0.798778   -0.127405    0.034746
      5          6           0       -0.846196    0.155149    2.893728
      6          1           0       -1.230188    0.702384    3.755638
      7          1           0       -0.676699   -0.882878    3.172367
      8          1           0        0.103668    0.603131    2.594505
      9          7           0       -1.749090    0.221579    1.762639
     10          1           0       -2.573165   -0.357244    1.862487
     11          1           0       -2.004830    1.179737    1.534800
     12         35           0       -0.398127   -1.988202    0.210837
     13         35           0       -2.424612    0.088727   -1.050415
     14          6           0        1.669345    0.317967   -0.151935
     15          6           0        2.556145    0.535055    0.902201
     16          6           0        3.886317    0.154765    0.806385
     17          6           0        4.355737   -0.450523   -0.350673
     18          6           0        3.488830   -0.662821   -1.413074
     19          6           0        2.161229   -0.274797   -1.314988
     20          1           0        2.200579    1.010795    1.808130
     21          1           0        4.556372    0.328865    1.638932
     22          1           0        5.393226   -0.750748   -0.425636
     23          1           0        3.847859   -1.126475   -2.323390
     24          1           0        1.488463   -0.434474   -2.148868
     25          7           0        0.927069    3.027777   -0.476060
     26          1           0        1.827028    2.691120   -0.764337
     27          1           0        0.783347    4.017381   -0.386904
 ---------------------------------------------------------------------

 SCF Done:  E(RwB97XD) =  -5721.44448488     A.U. after    1 cycles

 The electronic state is 1-A.
 Alpha  occ. eigenvalues -- -483.14283-483.13166 -62.69113 -62.68004 -56.48246
 Alpha  occ. eigenvalues --  -56.47872 -56.47855 -56.47132 -56.46762 -56.46751
 Alpha  occ. eigenvalues --  -19.21094 -14.47366 -14.44556 -10.43353 -10.38968
 Alpha  occ. eigenvalues --  -10.31374 -10.30561 -10.29148 -10.29111 -10.29073
 Alpha  occ. eigenvalues --  -10.29050 -10.28993 -10.28206  -8.83215  -8.82105
 Alpha  occ. eigenvalues --   -6.65415  -6.64282  -6.64219  -6.64171  -6.63115
 Alpha  occ. eigenvalues --   -6.63078  -2.75798  -2.75456  -2.75419  -2.74658
 Alpha  occ. eigenvalues --   -2.74451  -2.74451  -2.74334  -2.74305  -2.73361
 Alpha  occ. eigenvalues --   -2.73361  -1.13644  -1.03208  -1.00386  -0.97345
 Alpha  occ. eigenvalues --   -0.95169  -0.87984  -0.87338  -0.85194  -0.82212
 Alpha  occ. eigenvalues --   -0.78393  -0.72290  -0.70514  -0.70109  -0.64941
 Alpha  occ. eigenvalues --   -0.62947  -0.62294  -0.60074  -0.57347  -0.56783
 Alpha  occ. eigenvalues --   -0.55474  -0.53940  -0.53369  -0.52042  -0.51612
 Alpha  occ. eigenvalues --   -0.50911  -0.49691  -0.47592  -0.47456  -0.46759
 Alpha  occ. eigenvalues --   -0.45529  -0.43216  -0.42873  -0.40039  -0.38472
 Alpha  occ. eigenvalues --   -0.36723  -0.36576  -0.35798  -0.35051  -0.33716
 Alpha  occ. eigenvalues --   -0.32894  -0.28309
 Alpha virt. eigenvalues --    0.01286   0.03974   0.05156   0.05416   0.07598
 Alpha virt. eigenvalues --    0.11006   0.12844   0.13357   0.14468   0.16009
 Alpha virt. eigenvalues --    0.16202   0.16554   0.17407   0.17753   0.18879

 Mulliken charges:
               1
     1  C   -0.339947
     2  C    0.367590
     3  O   -0.540491
     4  C    0.192570
     5  C   -0.267114
     6  H    0.154586
     7  H    0.154107
     8  H    0.119929
     9  N   -0.349018
    10  H    0.282876
    11  H    0.278748
    12  Br  -0.034164
    13  Br  -0.096964
    14  C    0.094164
    15  C   -0.207898
    16  C   -0.147049
    17  C   -0.131031
    18  C   -0.143773
    19  C   -0.214160
    20  H    0.156621
    21  H    0.142029
    22  H    0.144987
    23  H    0.142123
    24  H    0.144094
    25  N   -0.457075
    26  H    0.284875
    27  H    0.269384
 Sum of Mulliken charges =  -0.00000

 Dipole moment (field-independent basis, Debye):
    X=              2.7093    Y=             -0.5863    Z=              3.5937  Tot=              4.5386
 Quadrupole moment (field-independent basis, Debye-Ang):
   XX=           -103.4423   YY=           -115.0924   ZZ=           -101.4829
   XY=              9.0529   XZ=             -8.2743   YZ=             -0.1386

  Exact polarizability: 296.013  -1.712 232.099  -4.259   6.101 240.324
 Approx polarizability: 230.732  -5.381 192.144  -1.676   6.949 201.740

 ******    1 imaginary frequencies (negative Signs) ******

                      1                      2                      3
                      A                      A                      A
 Frequencies --   -397.9118                33.1398                55.2165
 Red. masses --      5.8534                 4.1217                 5.7600
 Frc consts  --      0.5461                 0.0027                 0.0103
 IR Inten    --    637.5462                 0.1703                 2.9624

                      4                      5                      6
                      A                      A                      A
 Frequencies --     62.1682                74.6977                92.8493
 Red. masses --      3.5723                 3.6413                 3.9871
 Frc consts  --      0.0081                 0.0120                 0.0203
 IR Inten    --      3.5764                 3.1923                 7.8637

                      7                      8                      9
                      A                      A                      A
 Frequencies --    118.3441               127.8964               139.3809
 Red. masses --      3.4155                 4.5139                 2.1734
 Frc consts  --      0.0282                 0.0435                 0.0249
 IR Inten    --     26.1391                 3.7123                 1.9897

                     10                     11                     12
                      A                      A                      A
 Frequencies --    158.8922               166.7241               173.5388
 Red. masses --      5.9062                 3.7716                 1.2515
 Frc consts  --      0.0879                 0.0618                 0.0222
 IR Inten    --      9.8159                 2.1843               286.4264

                     13                     14                     15
                      A                      A                      A
 Frequencies --    207.8601               215.1093               247.4720
 Red. masses --      4.5334                 4.1939                 5.1748
 Frc consts  --      0.1154                 0.1143                 0.1867
 IR Inten    --      0.2556                15.9697                10.0823

                     16                     17                     18
                      A                      A                      A
 Frequencies --    263.6764               304.7704               356.5717
 Red. masses --      5.1700                 4.8576                 5.4937
 Frc consts  --      0.2118                 0.2658                 0.4115
 IR Inten    --     28.7399                 2.5746                19.2328

                     19                     20                     21
                      A                      A                      A
 Frequencies --    408.6139               423.8793               496.3222
 Red. masses --      4.6100                 2.8590                 2.6410
 Frc consts  --      0.4535                 0.3027                 0.3833
 IR Inten    --     19.0804                 0.1626                53.1347

                     22                     23                     24
                      A                      A                      A
 Frequencies --    518.8766               576.2089               599.2286
 Red. masses --      3.2315                 1.6103                 2.3417
 Frc consts  --      0.5126                 0.3150                 0.4954
 IR Inten    --     28.6541                34.5671                33.6789

                     25                     26                     27
                      A                      A                      A
 Frequencies --    629.3678               640.1010               673.5812
 Red. masses --      3.4202                 4.1614                 2.4322
 Frc consts  --      0.7982                 1.0046                 0.6502
 IR Inten    --     55.7523                 9.4096               156.1325

                     28                     29                     30
                      A                      A                      A
 Frequencies --    726.2480               739.5425               794.1547
 Red. masses --      1.7040                 4.3660                 2.6904
 Frc consts  --      0.5295                 1.4069                 0.9997
 IR Inten    --     89.6492               130.1603                20.9159

                     31                     32                     33
                      A                      A                      A
 Frequencies --    808.5678               845.1528               878.0963
 Red. masses --      6.7808                 4.3587                 1.2475
 Frc consts  --      2.6119                 1.8343                 0.5667
 IR Inten    --     84.7249                47.8941                 0.5464

                     34                     35                     36
                      A                      A                      A
 Frequencies --    958.8821               969.6851              1015.3602
 Red. masses --      1.4557                 1.1076                 1.3917
 Frc consts  --      0.7886                 0.6136                 0.8454
 IR Inten    --      3.4064               124.9056                 0.8164

                     37                     38                     39
                      A                      A                      A
 Frequencies --   1025.5885              1028.8322              1031.9179
 Red. masses --      3.5332                 3.3026                 1.4417
 Frc consts  --      2.1896                 2.0597                 0.9045
 IR Inten    --     11.6630                 7.8574                 3.9500

                     40                     41                     42
                      A                      A                      A
 Frequencies --   1046.9722              1069.8226              1096.2773
 Red. masses --      1.3559                 1.8543                 3.9505
 Frc consts  --      0.8757                 1.2504                 2.7973
 IR Inten    --     85.4703                23.7020                32.7870

                     43                     44                     45
                      A                      A                      A
 Frequencies --   1099.6718              1112.3589              1182.7615
 Red. masses --      2.0834                 1.5601                 1.4251
 Frc consts  --      1.4844                 1.1373                 1.1746
 IR Inten    --     12.1292                12.2605                23.4675

                     46                     47                     48
                      A                      A                      A
 Frequencies --   1183.6623              1210.3623              1271.4361
 Red. masses --      1.1349                 1.1213                 4.6185
 Frc consts  --      0.9369                 0.9679                 4.3989
 IR Inten    --      0.5362                 0.2469                61.5106

                     49                     50                     51
                      A                      A                      A
 Frequencies --   1308.6213              1346.8304              1358.7085
 Red. masses --      4.5803                 1.3184                 1.4622
 Frc consts  --      4.6214                 1.4091                 1.5905
 IR Inten    --      3.6100                 5.3213                20.9060

                     52                     53                     54
                      A                      A                      A
 Frequencies --   1377.3150              1435.3878              1460.4481
 Red. masses --      4.4616                 2.3379                 1.7660
 Frc consts  --      4.9866                 2.8380                 2.2193
 IR Inten    --   1041.5359               264.7695               139.1648

                     55                     56                     57
                      A                      A                      A
 Frequencies --   1484.7577              1487.8083              1499.2313
 Red. masses --      1.0433                 2.1836                 1.0436
 Frc consts  --      1.3550                 2.8478                 1.3820
 IR Inten    --     20.4713                12.5559                 8.0880

                     58                     59                     60
                      A                      A                      A
 Frequencies --   1544.2732              1611.6996              1628.6384
 Red. masses --      2.4308                 1.4317                 1.1769
 Frc consts  --      3.4155                 2.1912                 1.8392
 IR Inten    --     46.7384               267.3709               277.9397

                     61                     62                     63
                      A                      A                      A
 Frequencies --   1644.9093              1668.9213              1673.7755
 Red. masses --      5.4418                 4.4701                 4.7294
 Frc consts  --      8.6751                 7.3357                 7.8065
 IR Inten    --      3.4551               340.4048               175.0696

                     64                     65                     66
                      A                      A                      A
 Frequencies --   3059.3450              3127.4514              3162.3915
 Red. masses --      1.0336                 1.1031                 1.1044
 Frc consts  --      5.6999                 6.3571                 6.5072
 IR Inten    --     50.7905                10.9606                15.7201

                     67                     68                     69
                      A                      A                      A
 Frequencies --   3192.3886              3196.1312              3205.0232
 Red. masses --      1.0859                 1.0882                 1.0916
 Frc consts  --      6.5202                 6.5493                 6.6065
 IR Inten    --      5.2233                 0.6032                14.5202

                     70                     71                     72
                      A                      A                      A
 Frequencies --   3211.8991              3222.1159              3463.3166
 Red. masses --      1.0953                 1.0989                 1.0578
 Frc consts  --      6.6574                 6.7221                 7.4755
 IR Inten    --     41.5510                17.9763                85.1842

                     73                     74                     75
                      A                      A                      A
 Frequencies --   3602.6248              3629.8410              3758.7449
 Red. masses --      1.0919                 1.0452                 1.1057
 Frc consts  --      8.3493                 8.1139                 9.2043
 IR Inten    --    114.5161               105.0842               102.4027

 - Thermochemistry -
 -------------------
 Temperature   298.150 Kelvin.  Pressure   1.00000 Atm.
 Atom     1 has atomic number  6 and mass  12.00000

 Molecular mass:   333.93164 amu.
 Principal axes and moments of inertia in atomic units:
                           1         2         3
     Eigenvalues --  3626.615176187.797707281.13970
           X            0.99928   0.00015  -0.03797
           Y            0.00122   0.99935   0.03601
           Z            0.03795  -0.03603   0.99863
 This molecule is an asymmetric top.
 Rotational symmetry number  1.
 Warning -- assumption of classical behavior for rotation
           may cause significant error
 Rotational temperatures (Kelvin)      0.02388     0.01400     0.01190
 Rotational constants (GHZ):           0.49764     0.29166     0.24787
    1 imaginary frequencies ignored.
 Zero-point vibrational energy     545631.4 (Joules/Mol)
                                  130.40902 (Kcal/Mol)
 Warning -- explicit consideration of  23 degrees of freedom as
           vibrations may cause significant error
 Vibrational temperatures:     47.68    79.44    89.45   107.47   133.59
          (Kelvin)            170.27   184.01   200.54   228.61   239.88
                              249.68   299.06   309.49   356.06   379.37
                              438.50   513.03   587.90   609.87   714.10
                              746.55   829.04   862.16   905.52   920.96
                              969.13  1044.91  1064.04  1142.61  1163.35
                             1215.99  1263.38  1379.62  1395.16  1460.88
                             1475.59  1480.26  1484.70  1506.36  1539.24
                             1577.30  1582.18  1600.44  1701.73  1703.03
                             1741.44  1829.31  1882.81  1937.79  1954.88
                             1981.65  2065.20  2101.26  2136.24  2140.62
                             2157.06  2221.86  2318.88  2343.25  2366.66
                             2401.21  2408.19  4401.72  4499.70  4549.98
                             4593.14  4598.52  4611.31  4621.21  4635.91
                             4982.94  5183.37  5222.53  5408.00

 Zero-point correction=                           0.207820 (Hartree/Particle)
 Thermal correction to Energy=                    0.224138
 Thermal correction to Enthalpy=                  0.225082
 Thermal correction to Gibbs Free Energy=         0.161870
 Sum of electronic and zero-point Energies=          -5721.236665
 Sum of electronic and thermal Energies=             -5721.220347
 Sum of electronic and thermal Enthalpies=           -5721.219403
 Sum of electronic and thermal Free Energies=        -5721.282615

                     E (Thermal)             CV                S
                      KCal/Mol        Cal/Mol-Kelvin    Cal/Mol-Kelvin
 Total                  140.648             57.516            133.040
 Electronic               0.000              0.000              0.000
 Translational            0.889              2.981             43.312
 Rotational               0.889              2.981             33.457
 Vibrational            138.871             51.554             56.271
 Vibration     1          0.594              1.983              5.632
 Vibration     2          0.596              1.975              4.621
 Vibration     3          0.597              1.972              4.387
 Vibration     4          0.599              1.966              4.026
 Vibration     5          0.602              1.954              3.599
 Vibration     6          0.609              1.934              3.127
 Vibration     7          0.611              1.925              2.977
 Vibration     8          0.615              1.914              2.812
 Vibration     9          0.621              1.893              2.563
 Vibration    10          0.624              1.883              2.472
 Vibration    11          0.627              1.875              2.397
 Vibration    12          0.641              1.829              2.062
 Vibration    13          0.645              1.818              2.000
 Vibration    14          0.661              1.767              1.749
 Vibration    15          0.670              1.739              1.637
 Vibration    16          0.696              1.665              1.391
 Vibration    17          0.732              1.562              1.137
 Vibration    18          0.773              1.452              0.932
 Vibration    19          0.786              1.418              0.879
 Vibration    20          0.852              1.258              0.667
 Vibration    21          0.874              1.208              0.613
 Vibration    22          0.933              1.083              0.492
 Vibration    23          0.957              1.033              0.451

 Optimization completed.
    -- Stationary point found.
 Normal termination of Gaussian 16 at Sun Mar 28 16:57:07 2021.
