 Gaussian 16, Revision A.03,
 Gaussian 16:  ES64L-G16RevA.03 25-Dec-2016

 ----------------------------------------------------------------------
 # wB97XD def2tzvp, opt=(ts, noeigen, calcfc, maxcycles=70, maxstep=8),
  freq=noraman, scrf=(iefpcm, solvent=water)
 ----------------------------------------------------------------------

 ------------------------
 1_iteration/TS-740-1.out
 ------------------------
 Symbolic Z-matrix:
 Charge =  0 Multiplicity = 1

 SCF Done:  E(RwB97XD) =  -5588.86983433     A.U. after   15 cycles
 SCF Done:  E(RwB97XD) =  -5588.87210490     A.U. after   13 cycles
 SCF Done:  E(RwB97XD) =  -5588.87377830     A.U. after   13 cycles
 SCF Done:  E(RwB97XD) =  -5588.87501091     A.U. after   13 cycles
 SCF Done:  E(RwB97XD) =  -5588.87510584     A.U. after   12 cycles
 SCF Done:  E(RwB97XD) =  -5588.87498527     A.U. after   13 cycles
 SCF Done:  E(RwB97XD) =  -5588.87477844     A.U. after   13 cycles
 SCF Done:  E(RwB97XD) =  -5588.87519289     A.U. after   13 cycles
 SCF Done:  E(RwB97XD) =  -5588.87527203     A.U. after   12 cycles
 SCF Done:  E(RwB97XD) =  -5588.87529950     A.U. after   12 cycles
 SCF Done:  E(RwB97XD) =  -5588.87548794     A.U. after   12 cycles
 SCF Done:  E(RwB97XD) =  -5588.87583347     A.U. after   12 cycles
 SCF Done:  E(RwB97XD) =  -5588.87602940     A.U. after   12 cycles
 SCF Done:  E(RwB97XD) =  -5588.87611117     A.U. after   11 cycles
 SCF Done:  E(RwB97XD) =  -5588.87611877     A.U. after   10 cycles
 SCF Done:  E(RwB97XD) =  -5588.87612084     A.U. after    9 cycles
 SCF Done:  E(RwB97XD) =  -5588.87612162     A.U. after    8 cycles
 SCF Done:  E(RwB97XD) =  -5588.87612172     A.U. after    7 cycles
 SCF Done:  E(RwB97XD) =  -5588.87612176     A.U. after    6 cycles
 Optimization completed.
    -- Stationary point found.
 Normal termination of Gaussian 16 at Mon Feb 22 06:30:09 2021.

 ---------------------------------------------------------------------
 #N Geom=AllCheck Guess=TCheck SCRF=Check GenChk RwB97XD/def2TZVP Freq
 ---------------------------------------------------------------------

 Structure from the checkpoint file:  "/beegfs/scratch/user/q/tla25/Gau-70841.chk"
 ------------------------
 1_iteration/TS-740-1.out
 ------------------------
 Charge =  0 Multiplicity = 1

                         Standard orientation:
 ---------------------------------------------------------------------
 Center     Atomic      Atomic             Coordinates (Angstroms)
 Number     Number       Type             X           Y           Z
 ---------------------------------------------------------------------
      1          6           0        0.471498   -0.995062   -0.592022
      2          6           0        1.907390   -0.838355   -0.516140
      3          8           0        2.727434   -1.505806   -1.123504
      4          6           0       -0.380014   -0.049977   -0.054612
      5          6           0       -0.215914   -1.295205    2.454461
      6          1           0        0.165781   -1.292080    3.474953
      7          1           0       -1.231237   -1.685664    2.448231
      8          1           0        0.418885   -1.935060    1.838913
      9          7           0       -0.204622    0.039353    1.878088
     10          1           0       -0.913042    0.650040    2.268276
     11          1           0        0.705937    0.477021    1.968049
     12         35           0       -2.263066   -0.403327   -0.207596
     13         35           0       -0.089990    1.879486   -0.349174
     14          6           0       -0.031675   -2.280000   -1.208480
     15          1           0       -0.667237   -2.102968   -2.078967
     16          1           0        0.825884   -2.863897   -1.536146
     17          1           0       -0.601735   -2.887802   -0.502248
     18          8           0        2.303009    0.112662    0.362411
     19          6           0        3.699156    0.373616    0.439686
     20          1           0        4.088615    0.687901   -0.528563
     21          1           0        3.810016    1.176630    1.163721
     22          1           0        4.241247   -0.510089    0.775500
 ---------------------------------------------------------------------

 SCF Done:  E(RwB97XD) =  -5588.87612176     A.U. after    1 cycles

 The electronic state is 1-A.
 Alpha  occ. eigenvalues -- -483.14302-483.13269 -62.69143 -62.68113 -56.48274
 Alpha  occ. eigenvalues --  -56.47902 -56.47884 -56.47240 -56.46869 -56.46858
 Alpha  occ. eigenvalues --  -19.28998 -19.21967 -14.49058 -10.43684 -10.40388
 Alpha  occ. eigenvalues --  -10.32977 -10.31860 -10.27839 -10.27391  -8.83253
 Alpha  occ. eigenvalues --   -8.82216  -6.65447  -6.64395  -6.64263  -6.64209
 Alpha  occ. eigenvalues --   -6.63224  -6.63187  -2.75829  -2.75494  -2.75452
 Alpha  occ. eigenvalues --   -2.74769  -2.74494  -2.74494  -2.74446  -2.74416
 Alpha  occ. eigenvalues --   -2.73469  -2.73469  -1.20357  -1.10673  -1.04600
 Alpha  occ. eigenvalues --   -0.95995  -0.87846  -0.87417  -0.82076  -0.79139
 Alpha  occ. eigenvalues --   -0.76514  -0.69460  -0.64444  -0.63287  -0.58938
 Alpha  occ. eigenvalues --   -0.57690  -0.57080  -0.56544  -0.54211  -0.52080
 Alpha  occ. eigenvalues --   -0.51303  -0.49600  -0.48313  -0.47126  -0.46432
 Alpha  occ. eigenvalues --   -0.45761  -0.44873  -0.44134  -0.40187  -0.38512
 Alpha  occ. eigenvalues --   -0.38362  -0.37245  -0.36278  -0.35329  -0.27962
 Alpha virt. eigenvalues --    0.01997   0.04177   0.06807   0.10281   0.13185
 Alpha virt. eigenvalues --    0.13579   0.15739   0.15785   0.16329   0.16828
 Alpha virt. eigenvalues --    0.18403   0.19846   0.20127   0.20728   0.21080

 Mulliken charges:
               1
     1  C   -0.351395
     2  C    0.431625
     3  O   -0.488136
     4  C    0.205803
     5  C   -0.295853
     6  H    0.162637
     7  H    0.159182
     8  H    0.156070
     9  N   -0.331878
    10  H    0.293033
    11  H    0.287995
    12  Br  -0.044551
    13  Br  -0.099978
    14  C   -0.372349
    15  H    0.130671
    16  H    0.137218
    17  H    0.130021
    18  O   -0.318469
    19  C   -0.196862
    20  H    0.133128
    21  H    0.140681
    22  H    0.131408
 Sum of Mulliken charges =  -0.00000

 Dipole moment (field-independent basis, Debye):
    X=             -1.7923    Y=              1.4301    Z=              7.6480  Tot=              7.9843
 Quadrupole moment (field-independent basis, Debye-Ang):
   XX=            -93.5602   YY=            -94.6190   ZZ=            -82.6462
   XY=              9.9836   XZ=              6.2707   YZ=             -3.7176

  Exact polarizability: 208.058  -5.545 186.502 -12.702   9.300 170.005
 Approx polarizability: 163.106  -3.945 153.257  -9.543   8.716 142.843

 ******    1 imaginary frequencies (negative Signs) ******

                      1                      2                      3
                      A                      A                      A
 Frequencies --   -388.2134                58.4239                69.9376
 Red. masses --      5.8183                 3.5583                 6.0033
 Frc consts  --      0.5166                 0.0072                 0.0173
 IR Inten    --    645.2329                 1.3607                 2.9141

                      4                      5                      6
                      A                      A                      A
 Frequencies --     88.2173               110.0903               126.9701
 Red. masses --      2.7470                 4.2084                 2.7649
 Frc consts  --      0.0126                 0.0301                 0.0263
 IR Inten    --      3.1310                 7.5426                 7.5264

                      7                      8                      9
                      A                      A                      A
 Frequencies --    146.1308               154.9316               161.5351
 Red. masses --      1.2606                 1.5180                 1.6841
 Frc consts  --      0.0159                 0.0215                 0.0259
 IR Inten    --      0.7129                 1.8425                 3.1469

                     10                     11                     12
                      A                      A                      A
 Frequencies --    176.2382               185.8908               192.2435
 Red. masses --      3.5242                 3.6249                 2.1042
 Frc consts  --      0.0645                 0.0738                 0.0458
 IR Inten    --      0.9973                 4.0178                 0.3932

                     13                     14                     15
                      A                      A                      A
 Frequencies --    234.6237               243.7579               279.6902
 Red. masses --      3.5175                 3.4341                 4.8695
 Frc consts  --      0.1141                 0.1202                 0.2244
 IR Inten    --     17.6549                 6.9854                20.2150

                     16                     17                     18
                      A                      A                      A
 Frequencies --    312.6754               338.9520               379.5854
 Red. masses --      3.6510                 3.8756                 5.2095
 Frc consts  --      0.2103                 0.2623                 0.4422
 IR Inten    --     16.9784                12.5257                35.1180

                     19                     20                     21
                      A                      A                      A
 Frequencies --    454.8830               558.0578               629.9699
 Red. masses --      5.9752                 4.1939                 1.9071
 Frc consts  --      0.7285                 0.7695                 0.4459
 IR Inten    --     71.1861                60.5427                 3.0351

                     22                     23                     24
                      A                      A                      A
 Frequencies --    718.3123               761.1749               794.2425
 Red. masses --      3.0546                 4.8016                 8.7228
 Frc consts  --      0.9286                 1.6391                 3.2420
 IR Inten    --     90.3811               144.9436                70.8218

                     25                     26                     27
                      A                      A                      A
 Frequencies --    874.6874               983.8061              1011.1132
 Red. masses --      4.3958                 1.4695                 1.8094
 Frc consts  --      1.9815                 0.8380                 1.0899
 IR Inten    --     45.9108               130.1676               130.1805

                     28                     29                     30
                      A                      A                      A
 Frequencies --   1038.4968              1049.2862              1069.9824
 Red. masses --      1.1571                 2.0087                 1.3668
 Frc consts  --      0.7352                 1.3031                 0.9220
 IR Inten    --    100.7330                73.5026                 6.3122

                     31                     32                     33
                      A                      A                      A
 Frequencies --   1085.3787              1171.9906              1181.3821
 Red. masses --      4.7668                 5.5669                 1.2907
 Frc consts  --      3.3086                 4.5051                 1.0613
 IR Inten    --     38.9299               294.6254                 5.2713

                     34                     35                     36
                      A                      A                      A
 Frequencies --   1207.4186              1217.8693              1324.9809
 Red. masses --      1.4125                 1.6154                 4.4051
 Frc consts  --      1.2133                 1.4116                 4.5565
 IR Inten    --     20.8321               136.7490               708.4093

                     37                     38                     39
                      A                      A                      A
 Frequencies --   1342.9943              1400.7455              1435.7320
 Red. masses --      1.3758                 1.4609                 2.4770
 Frc consts  --      1.4620                 1.6889                 3.0083
 IR Inten    --     40.0315                46.9329               574.2921

                     40                     41                     42
                      A                      A                      A
 Frequencies --   1463.8019              1480.1262              1482.0047
 Red. masses --      1.3309                 1.2249                 1.0666
 Frc consts  --      1.6802                 1.5810                 1.3802
 IR Inten    --     73.0651                40.5028                12.2739

                     43                     44                     45
                      A                      A                      A
 Frequencies --   1488.2383              1491.5176              1494.1450
 Red. masses --      1.0529                 1.0583                 1.0522
 Frc consts  --      1.3740                 1.3871                 1.3840
 IR Inten    --     50.3036                24.6717                59.1705

                     46                     47                     48
                      A                      A                      A
 Frequencies --   1496.2615              1503.7062              1629.9536
 Red. masses --      1.0664                 1.0453                 1.0975
 Frc consts  --      1.4066                 1.3925                 1.7179
 IR Inten    --     55.2775                18.5078                88.8173

                     49                     50                     51
                      A                      A                      A
 Frequencies --   1705.5683              3044.2201              3064.1256
 Red. masses --     10.6146                 1.0387                 1.0337
 Frc consts  --     18.1925                 5.6714                 5.7184
 IR Inten    --   1072.7958                69.0261                34.7593

                     52                     53                     54
                      A                      A                      A
 Frequencies --   3065.9896              3098.7488              3140.0388
 Red. masses --      1.0306                 1.1027                 1.1034
 Frc consts  --      5.7078                 6.2385                 6.4097
 IR Inten    --     55.1091                35.6260                 8.2663

                     55                     56                     57
                      A                      A                      A
 Frequencies --   3143.9132              3153.5022              3167.7051
 Red. masses --      1.1070                 1.0978                 1.1054
 Frc consts  --      6.4468                 6.4323                 6.5351
 IR Inten    --     33.8618                 8.7707                11.3104

                     58                     59                     60
                      A                      A                      A
 Frequencies --   3175.1311              3515.6892              3607.7423
 Red. masses --      1.1058                 1.0501                 1.0981
 Frc consts  --      6.5683                 7.6472                 8.4208
 IR Inten    --     20.7653                55.1405                88.5928

 - Thermochemistry -
 -------------------
 Temperature   298.150 Kelvin.  Pressure   1.00000 Atm.
 Atom     1 has atomic number  6 and mass  12.00000

 Molecular mass:   286.91565 amu.
 Principal axes and moments of inertia in atomic units:
                           1         2         3
     Eigenvalues --  2451.478483914.465704770.22425
           X            0.99998  -0.00636   0.00098
           Y            0.00634   0.99976   0.02095
           Z           -0.00112  -0.02094   0.99978
 This molecule is an asymmetric top.
 Rotational symmetry number  1.
 Warning -- assumption of classical behavior for rotation
           may cause significant error
 Rotational temperatures (Kelvin)      0.03533     0.02213     0.01816
 Rotational constants (GHZ):           0.73618     0.46104     0.37833
    1 imaginary frequencies ignored.
 Zero-point vibrational energy     448507.1 (Joules/Mol)
                                  107.19576 (Kcal/Mol)
 Warning -- explicit consideration of  19 degrees of freedom as
           vibrations may cause significant error
 Vibrational temperatures:     84.06   100.62   126.92   158.40   182.68
          (Kelvin)            210.25   222.91   232.41   253.57   267.46
                              276.60   337.57   350.71   402.41   449.87
                              487.68   546.14   654.48   802.92   906.39
                             1033.49  1095.16  1142.74  1258.48  1415.48
                             1454.77  1494.17  1509.69  1539.47  1561.62
                             1686.23  1699.75  1737.21  1752.24  1906.35
                             1932.27  2015.36  2065.70  2106.08  2129.57
                             2132.27  2141.24  2145.96  2149.74  2152.79
                             2163.50  2345.14  2453.93  4379.95  4408.59
                             4411.28  4458.41  4517.82  4523.39  4537.19
                             4557.62  4568.31  5058.29  5190.74

 Zero-point correction=                           0.170827 (Hartree/Particle)
 Thermal correction to Energy=                    0.184913
 Thermal correction to Enthalpy=                  0.185857
 Thermal correction to Gibbs Free Energy=         0.128561
 Sum of electronic and zero-point Energies=          -5588.705294
 Sum of electronic and thermal Energies=             -5588.691209
 Sum of electronic and thermal Enthalpies=           -5588.690265
 Sum of electronic and thermal Free Energies=        -5588.747561

                     E (Thermal)             CV                S
                      KCal/Mol        Cal/Mol-Kelvin    Cal/Mol-Kelvin
 Total                  116.035             47.218            120.589
 Electronic               0.000              0.000              0.000
 Translational            0.889              2.981             42.860
 Rotational               0.889              2.981             32.193
 Vibrational            114.257             41.256             45.537
 Vibration     1          0.596              1.974              4.510
 Vibration     2          0.598              1.968              4.155
 Vibration     3          0.601              1.957              3.699
 Vibration     4          0.606              1.941              3.267
 Vibration     5          0.611              1.926              2.991
 Vibration     6          0.617              1.907              2.722
 Vibration     7          0.620              1.897              2.611
 Vibration     8          0.622              1.890              2.532
 Vibration     9          0.628              1.872              2.368
 Vibration    10          0.632              1.859              2.268
 Vibration    11          0.634              1.851              2.206
 Vibration    12          0.654              1.788              1.843
 Vibration    13          0.659              1.773              1.775
 Vibration    14          0.680              1.711              1.536
 Vibration    15          0.701              1.650              1.348
 Vibration    16          0.719              1.598              1.217
 Vibration    17          0.750              1.514              1.041
 Vibration    18          0.813              1.350              0.781
 Vibration    19          0.914              1.122              0.528

 Optimization completed.
    -- Stationary point found.
 Normal termination of Gaussian 16 at Mon Feb 22 06:56:29 2021.
