 Gaussian 16, Revision A.03,
 Gaussian 16:  ES64L-G16RevA.03 25-Dec-2016

 ----------------------------------------------------------------------
 # wB97XD def2tzvp, opt=(ts, noeigen, calcfc, maxcycles=70, maxstep=3),
  freq=noraman, scrf=(iefpcm, solvent=water)
 ----------------------------------------------------------------------

 ------------------------
 0_iteration/TS-775-0.out
 ------------------------
 Symbolic Z-matrix:
 Charge =  0 Multiplicity = 1

 SCF Done:  E(RwB97XD) =  -3607.42882614     A.U. after   15 cycles
 SCF Done:  E(RwB97XD) =  -3607.42882793     A.U. after   10 cycles
 SCF Done:  E(RwB97XD) =  -3607.42884044     A.U. after    9 cycles
 SCF Done:  E(RwB97XD) =  -3607.42889119     A.U. after   10 cycles
 SCF Done:  E(RwB97XD) =  -3607.42907763     A.U. after   11 cycles
 SCF Done:  E(RwB97XD) =  -3607.42935182     A.U. after   11 cycles
 SCF Done:  E(RwB97XD) =  -3607.42968430     A.U. after   11 cycles
 SCF Done:  E(RwB97XD) =  -3607.43005173     A.U. after   10 cycles
 SCF Done:  E(RwB97XD) =  -3607.43041548     A.U. after   10 cycles
 SCF Done:  E(RwB97XD) =  -3607.43074156     A.U. after   10 cycles
 SCF Done:  E(RwB97XD) =  -3607.43131099     A.U. after   12 cycles
 SCF Done:  E(RwB97XD) =  -3607.43133735     A.U. after   12 cycles
 SCF Done:  E(RwB97XD) =  -3607.43134033     A.U. after    9 cycles
 SCF Done:  E(RwB97XD) =  -3607.43134041     A.U. after    8 cycles
 SCF Done:  E(RwB97XD) =  -3607.43134048     A.U. after    7 cycles
 SCF Done:  E(RwB97XD) =  -3607.43129456     A.U. after   11 cycles
 SCF Done:  E(RwB97XD) =  -3607.43134029     A.U. after   11 cycles
 SCF Done:  E(RwB97XD) =  -3607.43134045     A.U. after    7 cycles
 SCF Done:  E(RwB97XD) =  -3607.43134048     A.U. after    6 cycles
 Optimization completed.
    -- Stationary point found.
 Normal termination of Gaussian 16 at Fri Mar 26 02:55:39 2021.

 ---------------------------------------------------------------------
 #N Geom=AllCheck Guess=TCheck SCRF=Check GenChk RwB97XD/def2TZVP Freq
 ---------------------------------------------------------------------

 Structure from the checkpoint file:  "/beegfs/scratch/user/q/tla25/Gau-85545.chk"
 ------------------------
 0_iteration/TS-775-0.out
 ------------------------
 Charge =  0 Multiplicity = 1

                         Standard orientation:
 ---------------------------------------------------------------------
 Center     Atomic      Atomic             Coordinates (Angstroms)
 Number     Number       Type             X           Y           Z
 ---------------------------------------------------------------------
      1          6           0       -0.897519   -0.865121   -0.649589
      2          6           0        0.538425   -1.050943   -0.656821
      3          8           0        1.026821   -2.115162   -1.040991
      4          6           0       -1.663864    0.146809   -0.105731
      5          6           0       -1.835390   -1.191441    2.295889
      6          1           0       -2.874797   -1.489041    2.181428
      7          1           0       -1.198719   -1.869756    1.726879
      8          1           0       -1.557464   -1.226616    3.347534
      9          7           0       -1.655025    0.153062    1.759459
     10          1           0       -2.355019    0.805244    2.098675
     11          1           0       -0.741732    0.522644    2.003085
     12         35           0       -3.559264   -0.038051   -0.432219
     13         17           0       -1.189321    1.872353   -0.293713
     14          1           0       -1.433547   -1.747354   -0.964931
     15          7           0        1.335008   -0.019043   -0.205245
     16          6           0        2.729865    0.032608   -0.104352
     17          6           0        3.556121   -1.091812   -0.111375
     18          6           0        4.928385   -0.938718    0.029851
     19          6           0        5.501390    0.314087    0.183881
     20          6           0        4.678095    1.432114    0.197461
     21          6           0        3.309375    1.295059    0.053707
     22          1           0        0.880267    0.871116   -0.087869
     23          1           0        3.122682   -2.070920   -0.230813
     24          1           0        5.555708   -1.821732    0.021433
     25          1           0        6.572841    0.419546    0.293372
     26          1           0        5.102538    2.420936    0.318431
     27          1           0        2.676196    2.175013    0.064481
 ---------------------------------------------------------------------

 SCF Done:  E(RwB97XD) =  -3607.43134048     A.U. after    1 cycles

 The electronic state is 1-A.
 Alpha  occ. eigenvalues -- -483.14561-101.71677 -62.69407 -56.48541 -56.48158
 Alpha  occ. eigenvalues --  -56.48150 -19.20607 -14.51074 -14.46350 -10.45289
 Alpha  occ. eigenvalues --  -10.39004 -10.33796 -10.32429 -10.29059 -10.28905
 Alpha  occ. eigenvalues --  -10.28868 -10.28289 -10.28260 -10.26592  -9.60277
 Alpha  occ. eigenvalues --   -8.83518  -7.34913  -7.34060  -7.34021  -6.65727
 Alpha  occ. eigenvalues --   -6.64505  -6.64481  -2.76103  -2.75753  -2.75735
 Alpha  occ. eigenvalues --   -2.74747  -2.74747  -1.13617  -1.06728  -1.04005
 Alpha  occ. eigenvalues --   -0.99119  -0.95442  -0.90814  -0.86473  -0.85128
 Alpha  occ. eigenvalues --   -0.83088  -0.80153  -0.73754  -0.71599  -0.69018
 Alpha  occ. eigenvalues --   -0.65704  -0.65101  -0.62880  -0.59637  -0.59195
 Alpha  occ. eigenvalues --   -0.58081  -0.55898  -0.54351  -0.53512  -0.52298
 Alpha  occ. eigenvalues --   -0.51945  -0.51248  -0.50005  -0.48932  -0.48556
 Alpha  occ. eigenvalues --   -0.46962  -0.46519  -0.44719  -0.43091  -0.42092
 Alpha  occ. eigenvalues --   -0.41021  -0.39502  -0.38721  -0.38271  -0.34386
 Alpha  occ. eigenvalues --   -0.33580  -0.30826  -0.28272
 Alpha virt. eigenvalues --    0.02791   0.03841   0.05377   0.06483   0.08139
 Alpha virt. eigenvalues --    0.09978   0.13199   0.14134   0.14546   0.15920
 Alpha virt. eigenvalues --    0.16444   0.17175   0.17741   0.18072   0.18708

 Mulliken charges:
               1
     1  C   -0.501088
     2  C    0.388967
     3  O   -0.530045
     4  C    0.145447
     5  C   -0.289013
     6  H    0.163599
     7  H    0.160802
     8  H    0.169023
     9  N   -0.284463
    10  H    0.304520
    11  H    0.290930
    12  Br  -0.055504
    13  Cl  -0.085660
    14  H    0.155802
    15  N   -0.260500
    16  C    0.291319
    17  C   -0.298932
    18  C   -0.101429
    19  C   -0.196932
    20  C   -0.102131
    21  C   -0.299778
    22  H    0.213282
    23  H    0.154225
    24  H    0.141434
    25  H    0.140654
    26  H    0.143302
    27  H    0.142171
 Sum of Mulliken charges =  -0.00000

 Dipole moment (field-independent basis, Debye):
    X=             -4.3351    Y=              4.5748    Z=              8.4458  Tot=             10.5382
 Quadrupole moment (field-independent basis, Debye-Ang):
   XX=           -102.4114   YY=           -111.3687   ZZ=           -102.8772
   XY=              7.0170   XZ=             -7.0118   YZ=             -4.3140

  Exact polarizability: 325.597  -3.829 241.262  -2.610  13.308 178.506
 Approx polarizability: 235.911  -3.418 210.227   0.075  12.749 154.797

 ******    1 imaginary frequencies (negative Signs) ******

                      1                      2                      3
                      A                      A                      A
 Frequencies --   -370.0730                24.4289                27.9346
 Red. masses --      5.7573                 6.1422                 3.9048
 Frc consts  --      0.4646                 0.0022                 0.0018
 IR Inten    --    769.8704                 2.4459                 2.0069

                      4                      5                      6
                      A                      A                      A
 Frequencies --     65.2925                75.0084                83.0234
 Red. masses --      7.4497                 5.1148                 3.1395
 Frc consts  --      0.0187                 0.0170                 0.0128
 IR Inten    --      2.9723                 0.6915                 0.9818

                      7                      8                      9
                      A                      A                      A
 Frequencies --    106.8407               145.0478               165.9036
 Red. masses --      2.3595                 3.2719                 2.0345
 Frc consts  --      0.0159                 0.0406                 0.0330
 IR Inten    --     17.5565                 1.2705                 5.5556

                     10                     11                     12
                      A                      A                      A
 Frequencies --    187.5300               199.6737               223.1731
 Red. masses --      6.3794                 4.1212                10.9751
 Frc consts  --      0.1322                 0.0968                 0.3221
 IR Inten    --     14.5199                 2.6882                 4.0779

                     13                     14                     15
                      A                      A                      A
 Frequencies --    250.2218               284.7072               327.4535
 Red. masses --      4.5691                 4.1901                 4.8563
 Frc consts  --      0.1685                 0.2001                 0.3068
 IR Inten    --      2.4121                 9.6835                27.3108

                     16                     17                     18
                      A                      A                      A
 Frequencies --    355.4093               375.1446               423.2875
 Red. masses --      7.0247                10.0532                 2.9848
 Frc consts  --      0.5228                 0.8336                 0.3151
 IR Inten    --     11.0437                 8.7398                 0.2832

                     19                     20                     21
                      A                      A                      A
 Frequencies --    489.2475               510.1390               528.6634
 Red. masses --      6.6648                 3.1066                 2.8624
 Frc consts  --      0.9399                 0.4763                 0.4713
 IR Inten    --     38.1451                40.3091                32.7878

                     22                     23                     24
                      A                      A                      A
 Frequencies --    582.9016               603.8857               634.9215
 Red. masses --      1.2067                 2.2402                 5.6832
 Frc consts  --      0.2416                 0.4813                 1.3499
 IR Inten    --    132.7204               102.8621                 4.2875

                     25                     26                     27
                      A                      A                      A
 Frequencies --    662.8489               686.5757               718.9147
 Red. masses --      2.0808                 3.1751                 1.9135
 Frc consts  --      0.5387                 0.8818                 0.5827
 IR Inten    --     13.5082                58.3312                57.0079

                     28                     29                     30
                      A                      A                      A
 Frequencies --    733.6438               783.2498               790.3338
 Red. masses --      2.9650                 1.9187                 4.2385
 Frc consts  --      0.9403                 0.6935                 1.5599
 IR Inten    --     62.8520                43.2519               145.3125

                     31                     32                     33
                      A                      A                      A
 Frequencies --    840.3743               862.6727               897.1139
 Red. masses --      3.2446                 1.2611                 4.8734
 Frc consts  --      1.3501                 0.5530                 2.3109
 IR Inten    --    134.0787                 0.1321                35.5848

                     34                     35                     36
                      A                      A                      A
 Frequencies --    934.9115               992.5068              1002.6558
 Red. masses --      1.4856                 4.8800                 1.3492
 Frc consts  --      0.7650                 2.8323                 0.7991
 IR Inten    --     12.2688                21.0818                 0.1403

                     37                     38                     39
                      A                      A                      A
 Frequencies --   1018.4430              1019.6772              1021.5571
 Red. masses --      1.3089                 1.2799                 3.5683
 Frc consts  --      0.7999                 0.7841                 2.1940
 IR Inten    --      0.1175                19.4467                14.2361

                     40                     41                     42
                      A                      A                      A
 Frequencies --   1065.4880              1067.7615              1083.1994
 Red. masses --      1.9801                 1.4461                 2.7444
 Frc consts  --      1.3245                 0.9714                 1.8972
 IR Inten    --     16.9603                18.0112                90.0839

                     43                     44                     45
                      A                      A                      A
 Frequencies --   1123.3877              1183.3673              1212.2747
 Red. masses --      1.5317                 1.1222                 1.1319
 Frc consts  --      1.1389                 0.9259                 0.9801
 IR Inten    --     10.9517                 4.9624                24.7591

                     46                     47                     48
                      A                      A                      A
 Frequencies --   1240.7505              1255.0292              1273.9634
 Red. masses --      1.4415                 1.6523                 2.7136
 Frc consts  --      1.3075                 1.5333                 2.5948
 IR Inten    --     86.3972               565.6493               567.9486

                     49                     50                     51
                      A                      A                      A
 Frequencies --   1287.6859              1341.6272              1347.8175
 Red. masses --      2.8158                 1.3495                 3.7480
 Frc consts  --      2.7508                 1.4311                 4.0115
 IR Inten    --     78.1335                19.1248               492.8678

                     52                     53                     54
                      A                      A                      A
 Frequencies --   1364.7063              1438.3475              1460.8950
 Red. masses --      1.5090                 1.7818                 1.7527
 Frc consts  --      1.6559                 2.1719                 2.2039
 IR Inten    --     20.2213               491.9213               369.8648

                     55                     56                     57
                      A                      A                      A
 Frequencies --   1480.7802              1493.4945              1495.7505
 Red. masses --      2.1443                 1.0402                 1.0467
 Frc consts  --      2.7702                 1.3670                 1.3797
 IR Inten    --    218.6926                 8.9052                23.0414

                     58                     59                     60
                      A                      A                      A
 Frequencies --   1547.4019              1573.0472              1638.4900
 Red. masses --      2.4005                 2.0717                 1.0929
 Frc consts  --      3.3866                 3.0204                 1.7286
 IR Inten    --    190.0316               564.0901                93.9963

                     61                     62                     63
                      A                      A                      A
 Frequencies --   1659.5264              1671.6892              1683.6276
 Red. masses --      6.7763                 4.0068                 5.5481
 Frc consts  --     10.9954                 6.5971                 9.2659
 IR Inten    --    247.5601               144.4779               723.2500

                     64                     65                     66
                      A                      A                      A
 Frequencies --   3074.2992              3156.3990              3180.6023
 Red. masses --      1.0338                 1.1037                 1.1061
 Frc consts  --      5.7568                 6.4785                 6.5930
 IR Inten    --     23.9501                 1.9168                 7.0569

                     67                     68                     69
                      A                      A                      A
 Frequencies --   3185.1146              3195.9784              3206.3568
 Red. masses --      1.0886                 1.0881                 1.0929
 Frc consts  --      6.5069                 6.5485                 6.6197
 IR Inten    --     14.5789                 3.3296                28.8651

                     70                     71                     72
                      A                      A                      A
 Frequencies --   3221.3704              3233.3091              3266.4315
 Red. masses --      1.0979                 1.0881                 1.0930
 Frc consts  --      6.7129                 6.7022                 6.8709
 IR Inten    --     23.1522                 1.4113                 3.0512

                     73                     74                     75
                      A                      A                      A
 Frequencies --   3510.8512              3593.2733              3623.6614
 Red. masses --      1.0508                 1.0970                 1.0767
 Frc consts  --      7.6311                 8.3455                 8.3300
 IR Inten    --     64.7499                79.4532               149.5189

 - Thermochemistry -
 -------------------
 Temperature   298.150 Kelvin.  Pressure   1.00000 Atm.
 Atom     1 has atomic number  6 and mass  12.00000

 Molecular mass:   289.98215 amu.
 Principal axes and moments of inertia in atomic units:
                           1         2         3
     Eigenvalues --  1845.96828********************
           X            0.99992   0.00566  -0.01120
           Y           -0.00600   0.99951  -0.03059
           Z            0.01102   0.03066   0.99947
 This molecule is an asymmetric top.
 Rotational symmetry number  1.
 Warning -- assumption of classical behavior for rotation
           may cause significant error
 Rotational temperatures (Kelvin)      0.04692     0.00860     0.00816
 Rotational constants (GHZ):           0.97767     0.17924     0.16995
    1 imaginary frequencies ignored.
 Zero-point vibrational energy     550719.3 (Joules/Mol)
                                  131.62507 (Kcal/Mol)
 Warning -- explicit consideration of  22 degrees of freedom as
           vibrations may cause significant error
 Vibrational temperatures:     35.15    40.19    93.94   107.92   119.45
          (Kelvin)            153.72   208.69   238.70   269.81   287.29
                              321.10   360.01   409.63   471.13   511.35
                              539.75   609.02   703.92   733.98   760.63
                              838.67   868.86   913.51   953.69   987.83
                             1034.36  1055.55  1126.92  1137.11  1209.11
                             1241.19  1290.75  1345.13  1428.00  1442.60
                             1465.31  1467.09  1469.79  1533.00  1536.27
                             1558.48  1616.30  1702.60  1744.19  1785.16
                             1805.71  1832.95  1852.69  1930.30  1939.21
                             1963.51  2069.46  2101.90  2130.51  2148.81
                             2152.05  2226.37  2263.26  2357.42  2387.69
                             2405.19  2422.36  4423.23  4541.35  4576.18
                             4582.67  4598.30  4613.23  4634.83  4652.01
                             4699.67  5051.33  5169.92  5213.64

 Zero-point correction=                           0.209758 (Hartree/Particle)
 Thermal correction to Energy=                    0.225074
 Thermal correction to Enthalpy=                  0.226018
 Thermal correction to Gibbs Free Energy=         0.164291
 Sum of electronic and zero-point Energies=          -3607.221583
 Sum of electronic and thermal Energies=             -3607.206267
 Sum of electronic and thermal Enthalpies=           -3607.205322
 Sum of electronic and thermal Free Energies=        -3607.267049

                     E (Thermal)             CV                S
                      KCal/Mol        Cal/Mol-Kelvin    Cal/Mol-Kelvin
 Total                  141.236             55.315            129.915
 Electronic               0.000              0.000              0.000
 Translational            0.889              2.981             42.892
 Rotational               0.889              2.981             33.645
 Vibrational            139.459             49.354             53.378
 Vibration     1          0.593              1.985              6.237
 Vibration     2          0.593              1.984              5.971
 Vibration     3          0.597              1.971              4.290
 Vibration     4          0.599              1.966              4.017
 Vibration     5          0.600              1.961              3.818
 Vibration     6          0.606              1.944              3.326
 Vibration     7          0.616              1.908              2.736
 Vibration     8          0.624              1.884              2.481
 Vibration     9          0.632              1.857              2.252
 Vibration    10          0.638              1.840              2.136
 Vibration    11          0.649              1.806              1.933
 Vibration    12          0.663              1.762              1.729
 Vibration    13          0.683              1.702              1.505
 Vibration    14          0.711              1.621              1.273
 Vibration    15          0.731              1.564              1.142
 Vibration    16          0.746              1.523              1.059
 Vibration    17          0.785              1.420              0.881
 Vibration    18          0.845              1.274              0.686
 Vibration    19          0.865              1.228              0.633
 Vibration    20          0.884              1.187              0.590
 Vibration    21          0.940              1.068              0.480
 Vibration    22          0.962              1.024              0.443

 Optimization completed.
    -- Stationary point found.
 Normal termination of Gaussian 16 at Fri Mar 26 03:44:32 2021.
