 Gaussian 16, Revision C.01,
 Gaussian 16:  ES64L-G16RevC.01  3-Jul-2019

 ----------------------------------------------------------------------
 # wb97xd def2tzvp opt=(ts, noeigen, calcfc, maxcycles=100, maxstep=10)
  freq=noraman scrf=(iefpcm, solvent=water)
 ----------------------------------------------------------------------

 ----------
 TS-774.out
 ----------
 Symbolic Z-matrix:
 Charge =  0 Multiplicity = 1

 SCF Done:  E(RwB97XD) =  -3454.98869403     A.U. after   15 cycles
 SCF Done:  E(RwB97XD) =  -3454.98721784     A.U. after   13 cycles
 SCF Done:  E(RwB97XD) =  -3454.98607181     A.U. after   13 cycles
 SCF Done:  E(RwB97XD) =  -3454.98527577     A.U. after   13 cycles
 SCF Done:  E(RwB97XD) =  -3454.98481737     A.U. after   13 cycles
 SCF Done:  E(RwB97XD) =  -3454.98452987     A.U. after   13 cycles
 SCF Done:  E(RwB97XD) =  -3454.98382736     A.U. after   14 cycles
 SCF Done:  E(RwB97XD) =  -3454.98434683     A.U. after   13 cycles
 SCF Done:  E(RwB97XD) =  -3454.98542434     A.U. after   14 cycles
 SCF Done:  E(RwB97XD) =  -3454.98600883     A.U. after   13 cycles
 SCF Done:  E(RwB97XD) =  -3455.00211775     A.U. after   11 cycles
 SCF Done:  E(RwB97XD) =  -3455.00213857     A.U. after   11 cycles
 SCF Done:  E(RwB97XD) =  -3455.00215598     A.U. after   12 cycles
 SCF Done:  E(RwB97XD) =  -3455.00214364     A.U. after   12 cycles
 SCF Done:  E(RwB97XD) =  -3455.00214567     A.U. after   11 cycles
 SCF Done:  E(RwB97XD) =  -3455.00214646     A.U. after   10 cycles
 SCF Done:  E(RwB97XD) =  -3455.00214682     A.U. after    9 cycles
 SCF Done:  E(RwB97XD) =  -3455.00214687     A.U. after    8 cycles
 SCF Done:  E(RwB97XD) =  -3455.00214691     A.U. after    7 cycles
 Optimization completed.
    -- Stationary point found.
 Normal termination of Gaussian 16 at Thu Jun  2 22:46:46 2022.

 ---------------------------------------------------------------------
 #N Geom=AllCheck Guess=TCheck SCRF=Check GenChk RwB97XD/def2TZVP Freq
 ---------------------------------------------------------------------

 Structure from the checkpoint file:  "/local/jobs/107284/Gau-2540457.chk"
 ----------
 TS-774.out
 ----------
 Charge =  0 Multiplicity = 1

                         Standard orientation:
 ---------------------------------------------------------------------
 Center     Atomic      Atomic             Coordinates (Angstroms)
 Number     Number       Type             X           Y           Z
 ---------------------------------------------------------------------
      1          6           0       -0.509583   -0.512574   -0.050025
      2          6           0       -1.758412    0.214582    0.098511
      3          8           0       -1.778325    1.445974    0.281683
      4          6           0        0.685251    0.068898    0.291626
      5          6           0        0.843857    1.402202   -2.202460
      6          1           0        0.106236    0.606533   -2.341599
      7          1           0        0.524432    2.276470   -2.770113
      8          1           0        1.808849    1.063702   -2.573146
      9          7           0        0.931255    1.684950   -0.782412
     10          1           0        1.756235    2.209346   -0.520017
     11          1           0        0.088947    2.143199   -0.437862
     12         35           0        2.257374   -0.941407   -0.140112
     13         17           0        0.882476    0.906248    1.851071
     14          1           0       -0.474455   -1.415608   -0.637403
     15          7           0       -2.915039   -0.492297   -0.015510
     16          6           0       -2.951545   -1.932997   -0.149088
     17          6           0       -4.183854    0.191027   -0.139963
     18          1           0       -2.159460   -2.395928    0.435919
     19          1           0       -3.906464   -2.294615    0.232273
     20          1           0       -2.857495   -2.253745   -1.191921
     21          1           0       -4.015841    1.263327   -0.136187
     22          1           0       -4.676315   -0.093866   -1.073944
     23          1           0       -4.846055   -0.068976    0.690082
 ---------------------------------------------------------------------

 SCF Done:  E(RwB97XD) =  -3455.00214691     A.U. after    1 cycles

 The electronic state is 1-A.
 Alpha  occ. eigenvalues -- -483.14128-101.70266 -62.68975 -56.48103 -56.47729
 Alpha  occ. eigenvalues --  -56.47720 -19.20253 -14.47713 -14.45675 -10.43718
 Alpha  occ. eigenvalues --  -10.37941 -10.31352 -10.30889 -10.30324 -10.26361
 Alpha  occ. eigenvalues --   -9.58847  -8.83089  -7.33509  -7.32614  -7.32590
 Alpha  occ. eigenvalues --   -6.65280  -6.64087  -6.64062  -2.75663  -2.75318
 Alpha  occ. eigenvalues --   -2.75299  -2.74333  -2.74333  -1.12970  -1.03960
 Alpha  occ. eigenvalues --   -1.03009  -0.98114  -0.90001  -0.85357  -0.81407
 Alpha  occ. eigenvalues --   -0.78877  -0.78330  -0.68109  -0.63350  -0.61743
 Alpha  occ. eigenvalues --   -0.59914  -0.57288  -0.56732  -0.56112  -0.54447
 Alpha  occ. eigenvalues --   -0.52621  -0.50894  -0.48621  -0.48336  -0.47984
 Alpha  occ. eigenvalues --   -0.47652  -0.46383  -0.46235  -0.45264  -0.41367
 Alpha  occ. eigenvalues --   -0.39759  -0.37546  -0.37276  -0.34136  -0.32057
 Alpha  occ. eigenvalues --   -0.28513
 Alpha virt. eigenvalues --    0.03567   0.04927   0.08913   0.10890   0.12557
 Alpha virt. eigenvalues --    0.14512   0.15584   0.16634   0.17159   0.17428
 Alpha virt. eigenvalues --    0.17963   0.19720   0.20068   0.20266   0.20628

 Mulliken charges:
               1
     1  C   -0.632696
     2  C    0.374191
     3  O   -0.581264
     4  C    0.260799
     5  C   -0.289758
     6  H    0.144421
     7  H    0.154595
     8  H    0.154812
     9  N   -0.339923
    10  H    0.283889
    11  H    0.277247
    12  Br  -0.062540
    13  Cl  -0.087793
    14  H    0.184440
    15  N   -0.099680
    16  C   -0.310475
    17  C   -0.283412
    18  H    0.153702
    19  H    0.145148
    20  H    0.141609
    21  H    0.145080
    22  H    0.132699
    23  H    0.134910
 Sum of Mulliken charges =  -0.00000

 Dipole moment (field-independent basis, Debye):
    X=              0.2486    Y=             -0.3853    Z=             -4.4099  Tot=              4.4337
 Quadrupole moment (field-independent basis, Debye-Ang):
   XX=            -76.8318   YY=            -81.4558   ZZ=            -85.0928
   XY=             12.9748   XZ=             -1.0406   YZ=             -4.4336

  Exact polarizability:     218.373      12.076     173.367      -4.046       1.643     155.951
 Approx polarizability:     161.628       6.578     148.903      -2.876       4.232     131.989

 ******    1 imaginary frequencies (negative Signs) ******

                      1                      2                      3
                      A                      A                      A
 Frequencies --   -399.4047                49.3702                73.4865
 Red. masses --      5.1773                 3.1558                 2.9603
 Frc consts  --      0.4866                 0.0045                 0.0094
 IR Inten    --    705.2526                 7.0382                 2.2167

                      4                      5                      6
                      A                      A                      A
 Frequencies --     95.4592               109.7895               114.0049
 Red. masses --      3.2148                 2.8305                 1.5480
 Frc consts  --      0.0173                 0.0201                 0.0119
 IR Inten    --      3.0982                 2.6739                 2.5031

                      7                      8                      9
                      A                      A                      A
 Frequencies --    140.1262               150.9221               171.2483
 Red. masses --      1.4076                 2.2015                 3.5398
 Frc consts  --      0.0163                 0.0295                 0.0612
 IR Inten    --     20.1740                23.3458                 4.1762

                     10                     11                     12
                      A                      A                      A
 Frequencies --    190.0899               207.5273               223.0130
 Red. masses --      1.7072                 7.6674                 2.5959
 Frc consts  --      0.0363                 0.1946                 0.0761
 IR Inten    --      5.1223                 1.6631                 4.7512

                     13                     14                     15
                      A                      A                      A
 Frequencies --    228.0401               257.9239               316.6714
 Red. masses --      2.1895                 8.0011                 3.5381
 Frc consts  --      0.0671                 0.3136                 0.2090
 IR Inten    --      7.3964                 3.4397                 9.8410

                     16                     17                     18
                      A                      A                      A
 Frequencies --    338.2053               390.4582               442.6327
 Red. masses --      5.7769                 3.7625                 4.5453
 Frc consts  --      0.3893                 0.3380                 0.5247
 IR Inten    --     41.8017                26.8180                20.5146

                     19                     20                     21
                      A                      A                      A
 Frequencies --    474.8633               598.7086               627.8143
 Red. masses --      3.3948                 2.3335                 3.5014
 Frc consts  --      0.4510                 0.4928                 0.8131
 IR Inten    --     49.5736                31.5642                30.5866

                     22                     23                     24
                      A                      A                      A
 Frequencies --    661.5138               716.3359               772.7391
 Red. masses --      1.3286                 3.5361                 3.1466
 Frc consts  --      0.3426                 1.0691                 1.1070
 IR Inten    --     95.3761               153.4358                98.8692

                     25                     26                     27
                      A                      A                      A
 Frequencies --    791.4539               922.0391               990.3743
 Red. masses --      7.9655                 4.5989                 1.0898
 Frc consts  --      2.9398                 2.3036                 0.6298
 IR Inten    --    110.9553                77.4423                91.8377

                     28                     29                     30
                      A                      A                      A
 Frequencies --   1022.8619              1068.5123              1086.0366
 Red. masses --      2.3687                 1.1692                 1.3932
 Frc consts  --      1.4601                 0.7865                 0.9682
 IR Inten    --     57.6855               104.0987                15.3688

                     31                     32                     33
                      A                      A                      A
 Frequencies --   1095.9360              1131.5771              1167.5367
 Red. masses --      4.6952                 1.2334                 1.5126
 Frc consts  --      3.3225                 0.9305                 1.2149
 IR Inten    --     44.0390                 4.1718               155.5337

                     34                     35                     36
                      A                      A                      A
 Frequencies --   1187.5763              1198.8625              1287.7118
 Red. masses --      1.7657                 1.4135                 1.7984
 Frc consts  --      1.4672                 1.1970                 1.7570
 IR Inten    --    277.0751                26.3533               261.8422

                     37                     38                     39
                      A                      A                      A
 Frequencies --   1317.3802              1349.2818              1429.1924
 Red. masses --      4.9225                 1.3007                 1.3659
 Frc consts  --      5.0333                 1.3951                 1.6438
 IR Inten    --     11.9496                 8.5729               103.2708

                     40                     41                     42
                      A                      A                      A
 Frequencies --   1438.4779              1456.0337              1471.7821
 Red. masses --      1.7878                 1.3159                 1.4524
 Frc consts  --      2.1796                 1.6437                 1.8536
 IR Inten    --      2.9048               322.5699               203.0993

                     43                     44                     45
                      A                      A                      A
 Frequencies --   1478.5634              1487.8260              1492.1786
 Red. masses --      1.5352                 1.0445                 1.0476
 Frc consts  --      1.9774                 1.3623                 1.3743
 IR Inten    --    547.1629                20.1117                21.7778

                     46                     47                     48
                      A                      A                      A
 Frequencies --   1496.7118              1504.3122              1506.2832
 Red. masses --      1.1107                 1.0448                 1.1221
 Frc consts  --      1.4660                 1.3930                 1.5001
 IR Inten    --     87.2578                18.6474                21.9199

                     49                     50                     51
                      A                      A                      A
 Frequencies --   1538.6209              1618.6930              1648.8833
 Red. masses --      1.5598                 2.0201                 1.7658
 Frc consts  --      2.1756                 3.1185                 2.8286
 IR Inten    --    259.0069               631.8946               147.1536

                     52                     53                     54
                      A                      A                      A
 Frequencies --   3029.2668              3036.4041              3047.7420
 Red. masses --      1.0450                 1.0403                 1.0379
 Frc consts  --      5.6501                 5.6511                 5.6800
 IR Inten    --     67.9532               128.1414                40.8768

                     55                     56                     57
                      A                      A                      A
 Frequencies --   3088.6600              3111.8024              3120.9519
 Red. masses --      1.1038                 1.0915                 1.0993
 Frc consts  --      6.2040                 6.2274                 6.3087
 IR Inten    --     60.3063                32.2540                14.7949

                     58                     59                     60
                      A                      A                      A
 Frequencies --   3155.8593              3164.2117              3186.9253
 Red. masses --      1.1027                 1.1042                 1.0969
 Frc consts  --      6.4708                 6.5135                 6.5637
 IR Inten    --     15.6084                15.5004                 4.6493

                     61                     62                     63
                      A                      A                      A
 Frequencies --   3250.0245              3455.1014              3600.8668
 Red. masses --      1.0895                 1.0588                 1.0904
 Frc consts  --      6.7804                 7.4468                 8.3301
 IR Inten    --      1.9951                87.3861               114.9885

 - Thermochemistry -
 -------------------
 Temperature   298.150 Kelvin.  Pressure   1.00000 Atm.
 Atom     1 has atomic number  6 and mass  12.00000

 Molecular mass:   241.98215 amu.
 Principal axes and moments of inertia in atomic units:
                           1         2         3
     Eigenvalues --  1772.566014588.795884846.92534
           X            0.99867   0.05074  -0.00942
           Y           -0.05160   0.97973  -0.19358
           Z           -0.00059   0.19381   0.98104
 This molecule is an asymmetric top.
 Rotational symmetry number  1.
 Warning -- assumption of classical behavior for rotation
           may cause significant error
 Rotational temperatures (Kelvin)      0.04886     0.01888     0.01787
 Rotational constants (GHZ):           1.01815     0.39329     0.37235
    1 imaginary frequencies ignored.
 Zero-point vibrational energy     483192.4 (Joules/Mol)
                                  115.48575 (Kcal/Mol)
 Warning -- explicit consideration of  19 degrees of freedom as
           vibrations may cause significant error
 Vibrational temperatures:     71.03   105.73   137.34   157.96   164.03
          (Kelvin)            201.61   217.14   246.39   273.50   298.59
                              320.87   328.10   371.09   455.62   486.60
                              561.78   636.85   683.22   861.41   903.28
                              951.77  1030.65  1111.80  1138.73  1326.61
                             1424.93  1471.67  1537.35  1562.56  1576.81
                             1628.09  1679.82  1708.66  1724.90  1852.73
                             1895.42  1941.32  2056.29  2069.65  2094.91
                             2117.57  2127.32  2140.65  2146.91  2153.43
                             2164.37  2167.21  2213.73  2328.94  2372.38
                             4358.44  4368.71  4385.02  4443.89  4477.19
                             4490.35  4540.58  4552.59  4585.27  4676.06
                             4971.12  5180.84

 Zero-point correction=                           0.184038 (Hartree/Particle)
 Thermal correction to Energy=                    0.197904
 Thermal correction to Enthalpy=                  0.198848
 Thermal correction to Gibbs Free Energy=         0.142328
 Sum of electronic and zero-point Energies=          -3454.818109
 Sum of electronic and thermal Energies=             -3454.804243
 Sum of electronic and thermal Enthalpies=           -3454.803299
 Sum of electronic and thermal Free Energies=        -3454.859819

                     E (Thermal)             CV                S
                      KCal/Mol        Cal/Mol-Kelvin    Cal/Mol-Kelvin
 Total                  124.186             47.345            118.956
 Electronic               0.000              0.000              0.000
 Translational            0.889              2.981             42.352
 Rotational               0.889              2.981             32.044
 Vibrational            122.409             41.384             44.559
 Vibration     1          0.595              1.978              4.842
 Vibration     2          0.599              1.967              4.058
 Vibration     3          0.603              1.952              3.545
 Vibration     4          0.606              1.941              3.273
 Vibration     5          0.607              1.938              3.200
 Vibration     6          0.615              1.913              2.802
 Vibration     7          0.618              1.902              2.661
 Vibration     8          0.626              1.878              2.422
 Vibration     9          0.633              1.854              2.227
 Vibration    10          0.641              1.829              2.065
 Vibration    11          0.649              1.806              1.934
 Vibration    12          0.651              1.798              1.894
 Vibration    13          0.667              1.749              1.676
 Vibration    14          0.704              1.642              1.327
 Vibration    15          0.719              1.599              1.221
 Vibration    16          0.758              1.491              0.998
 Vibration    17          0.802              1.377              0.818
 Vibration    18          0.832              1.306              0.724
 Vibration    19          0.957              1.035              0.452

 Optimization completed.
    -- Stationary point found.
 Normal termination of Gaussian 16 at Thu Jun  2 23:02:00 2022.
