 Gaussian 16, Revision A.03,
 Gaussian 16:  ES64L-G16RevA.03 25-Dec-2016

 ----------------------------------------------------------------------
 # wB97XD def2tzvp, opt=(ts, noeigen, calcfc, maxcycles=70, maxstep=8),
  freq=noraman, scrf=(iefpcm, solvent=water)
 ----------------------------------------------------------------------

 ------------------------
 1_iteration/TS-725-1.out
 ------------------------
 Symbolic Z-matrix:
 Charge =  0 Multiplicity = 1

 SCF Done:  E(RwB97XD) =  -5760.74033207     A.U. after   15 cycles
 SCF Done:  E(RwB97XD) =  -5760.74147116     A.U. after   12 cycles
 SCF Done:  E(RwB97XD) =  -5760.74215022     A.U. after   12 cycles
 SCF Done:  E(RwB97XD) =  -5760.74253345     A.U. after   12 cycles
 SCF Done:  E(RwB97XD) =  -5760.74268782     A.U. after   13 cycles
 SCF Done:  E(RwB97XD) =  -5760.74271667     A.U. after   11 cycles
 SCF Done:  E(RwB97XD) =  -5760.74267453     A.U. after   12 cycles
 SCF Done:  E(RwB97XD) =  -5760.74269968     A.U. after   12 cycles
 SCF Done:  E(RwB97XD) =  -5760.74272673     A.U. after   11 cycles
 SCF Done:  E(RwB97XD) =  -5760.74273005     A.U. after   10 cycles
 SCF Done:  E(RwB97XD) =  -5760.74273102     A.U. after    9 cycles
 SCF Done:  E(RwB97XD) =  -5760.74273117     A.U. after    8 cycles
 SCF Done:  E(RwB97XD) =  -5760.74273128     A.U. after    7 cycles
 SCF Done:  E(RwB97XD) =  -5760.74273129     A.U. after    7 cycles
 Optimization completed.
    -- Stationary point found.
 Normal termination of Gaussian 16 at Fri Jun 11 18:07:52 2021.

 ---------------------------------------------------------------------
 #N Geom=AllCheck Guess=TCheck SCRF=Check GenChk RwB97XD/def2TZVP Freq
 ---------------------------------------------------------------------

 Structure from the checkpoint file:  "/beegfs/scratch/user/q/tla25/Gau-56738.chk"
 ------------------------
 1_iteration/TS-725-1.out
 ------------------------
 Charge =  0 Multiplicity = 1

                         Standard orientation:
 ---------------------------------------------------------------------
 Center     Atomic      Atomic             Coordinates (Angstroms)
 Number     Number       Type             X           Y           Z
 ---------------------------------------------------------------------
      1          6           0        0.166237    0.658430   -0.097744
      2          6           0       -0.327263    2.042198   -0.089425
      3          8           0        0.454813    2.995676   -0.108425
      4          6           0       -0.623361   -0.452120    0.078077
      5          6           0       -0.660594   -0.002092    2.840613
      6          1           0       -1.194257    0.105717    3.784169
      7          1           0        0.129681   -0.742083    2.952646
      8          1           0       -0.221023    0.956174    2.567305
      9          7           0       -1.559738   -0.415192    1.774500
     10          1           0       -1.956580   -1.335584    1.928120
     11          1           0       -2.318446    0.247430    1.659844
     12         35           0        0.247173   -2.156221    0.220883
     13         35           0       -2.300403   -0.742535   -0.999578
     14          6           0        1.652887    0.525871   -0.194723
     15          6           0        2.478224    0.650082    0.919585
     16          6           0        3.854866    0.529340    0.803794
     17          6           0        4.431478    0.285980   -0.435328
     18          6           0        3.621600    0.169926   -1.555731
     19          6           0        2.244848    0.292161   -1.433333
     20          1           0        2.037740    0.839557    1.890213
     21          1           0        4.479192    0.624112    1.683714
     22          1           0        5.506078    0.189073   -0.526691
     23          1           0        4.061636   -0.016716   -2.527586
     24          1           0        1.613396    0.198272   -2.308887
     25          7           0       -1.669592    2.271741    0.022505
     26          6           0       -2.180433    3.624809   -0.028765
     27          1           0       -2.294538    1.553606   -0.301781
     28          1           0       -3.259714    3.589712    0.106295
     29          1           0       -1.747515    4.222011    0.772568
     30          1           0       -1.956739    4.116428   -0.979351
 ---------------------------------------------------------------------

 SCF Done:  E(RwB97XD) =  -5760.74273129     A.U. after    1 cycles

 The electronic state is 1-A.
 Alpha  occ. eigenvalues -- -483.14587-483.13726 -62.69413 -62.68570 -56.48551
 Alpha  occ. eigenvalues --  -56.48171 -56.48152 -56.47680 -56.47335 -56.47324
 Alpha  occ. eigenvalues --  -19.20479 -14.49918 -14.44855 -10.44212 -10.38289
 Alpha  occ. eigenvalues --  -10.32245 -10.30643 -10.30002 -10.28756 -10.28720
 Alpha  occ. eigenvalues --  -10.28672 -10.28500 -10.28472 -10.28062  -8.83513
 Alpha  occ. eigenvalues --   -8.82666  -6.65725  -6.64786  -6.64512  -6.64457
 Alpha  occ. eigenvalues --   -6.63703  -6.63667  -2.76104  -2.75761  -2.75718
 Alpha  occ. eigenvalues --   -2.75165  -2.74873  -2.74843  -2.74737  -2.74737
 Alpha  occ. eigenvalues --   -2.73969  -2.73967  -1.13343  -1.05358  -1.01545
 Alpha  occ. eigenvalues --   -0.97236  -0.95040  -0.87947  -0.87656  -0.84744
 Alpha  occ. eigenvalues --   -0.82916  -0.79637  -0.78825  -0.70875  -0.70071
 Alpha  occ. eigenvalues --   -0.68574  -0.65905  -0.64383  -0.61709  -0.58996
 Alpha  occ. eigenvalues --   -0.57915  -0.56322  -0.55305  -0.53982  -0.53656
 Alpha  occ. eigenvalues --   -0.53210  -0.51440  -0.50900  -0.50526  -0.48956
 Alpha  occ. eigenvalues --   -0.47977  -0.47341  -0.46710  -0.46027  -0.45817
 Alpha  occ. eigenvalues --   -0.42502  -0.42359  -0.40309  -0.38864  -0.37855
 Alpha  occ. eigenvalues --   -0.36871  -0.34782  -0.33917  -0.33251  -0.32399
 Alpha  occ. eigenvalues --   -0.28476
 Alpha virt. eigenvalues --    0.00692   0.04223   0.05496   0.05844   0.06284
 Alpha virt. eigenvalues --    0.09991   0.12800   0.13290   0.14255   0.15574
 Alpha virt. eigenvalues --    0.15679   0.16331   0.16718   0.17735   0.18150

 Mulliken charges:
               1
     1  C   -0.262353
     2  C    0.311572
     3  O   -0.520621
     4  C    0.059094
     5  C   -0.308681
     6  H    0.172364
     7  H    0.165743
     8  H    0.159656
     9  N   -0.304986
    10  H    0.298356
    11  H    0.284068
    12  Br  -0.024368
    13  Br  -0.126044
    14  C    0.269369
    15  C   -0.226140
    16  C   -0.168170
    17  C   -0.130108
    18  C   -0.159212
    19  C   -0.234488
    20  H    0.143194
    21  H    0.138390
    22  H    0.142320
    23  H    0.138841
    24  H    0.135751
    25  N   -0.333019
    26  C   -0.262090
    27  H    0.242530
    28  H    0.140307
    29  H    0.133319
    30  H    0.125405
 Sum of Mulliken charges =  -0.00000

 Dipole moment (field-independent basis, Debye):
    X=             -5.9395    Y=             -3.9081    Z=              5.5812  Tot=              9.0388
 Quadrupole moment (field-independent basis, Debye-Ang):
   XX=           -105.6633   YY=           -135.0505   ZZ=           -104.3132
   XY=            -10.6420   XZ=             -7.2200   YZ=             -0.8946

  Exact polarizability: 309.649   6.762 255.935   4.103   1.731 255.583
 Approx polarizability: 242.926   5.568 207.029   3.370   2.644 216.010

 ******    1 imaginary frequencies (negative Signs) ******

                      1                      2                      3
                      A                      A                      A
 Frequencies --   -405.6265                31.4146                48.0858
 Red. masses --      5.6611                 3.7563                 6.7754
 Frc consts  --      0.5488                 0.0022                 0.0092
 IR Inten    --    496.4945                 0.8072                 8.6055

                      4                      5                      6
                      A                      A                      A
 Frequencies --     62.7327                69.1234                71.8778
 Red. masses --      5.4511                 3.8596                 4.6515
 Frc consts  --      0.0126                 0.0109                 0.0142
 IR Inten    --      2.8586                 8.6001                 3.9621

                      7                      8                      9
                      A                      A                      A
 Frequencies --    104.3133               118.3033               145.0888
 Red. masses --      2.8422                 4.8727                 2.0753
 Frc consts  --      0.0182                 0.0402                 0.0257
 IR Inten    --      3.1860                 4.9118                 1.8647

                     10                     11                     12
                      A                      A                      A
 Frequencies --    151.8309               161.6866               176.2282
 Red. masses --      1.3539                 3.9477                 2.2485
 Frc consts  --      0.0184                 0.0608                 0.0411
 IR Inten    --      2.9106                 1.4311                 1.7045

                     13                     14                     15
                      A                      A                      A
 Frequencies --    181.7531               203.9585               219.9608
 Red. masses --      3.1232                 5.2173                 3.1563
 Frc consts  --      0.0608                 0.1279                 0.0900
 IR Inten    --     12.3706                 2.9725                 3.1941

                     16                     17                     18
                      A                      A                      A
 Frequencies --    238.0676               260.8844               277.3494
 Red. masses --      4.7929                 4.6442                 4.5042
 Frc consts  --      0.1600                 0.1862                 0.2041
 IR Inten    --     21.7373                33.3305                12.1250

                     19                     20                     21
                      A                      A                      A
 Frequencies --    287.5665               366.1428               397.5318
 Red. masses --      5.4371                 4.9454                 5.2153
 Frc consts  --      0.2649                 0.3906                 0.4856
 IR Inten    --      3.5683                39.5543                22.2034

                     22                     23                     24
                      A                      A                      A
 Frequencies --    422.2311               510.7699               519.7270
 Red. masses --      2.8579                 2.2363                 2.1298
 Frc consts  --      0.3002                 0.3437                 0.3389
 IR Inten    --      0.0496                41.9643                52.4980

                     25                     26                     27
                      A                      A                      A
 Frequencies --    559.3882               615.0864               634.9688
 Red. masses --      3.4835                 6.1663                 2.3434
 Frc consts  --      0.6422                 1.3745                 0.5567
 IR Inten    --    180.5865               199.9640                 5.8177

                     28                     29                     30
                      A                      A                      A
 Frequencies --    643.1263               706.5964               725.8312
 Red. masses --      3.3273                 4.8991                 1.4577
 Frc consts  --      0.8108                 1.4412                 0.4525
 IR Inten    --      8.7205               106.8911               134.9277

                     31                     32                     33
                      A                      A                      A
 Frequencies --    752.6323               796.1548               812.1201
 Red. masses --      2.9175                 6.5391                 2.6524
 Frc consts  --      0.9737                 2.4421                 1.0307
 IR Inten    --    119.9439                41.4113                23.6514

                     34                     35                     36
                      A                      A                      A
 Frequencies --    872.4962               875.5402               946.8658
 Red. masses --      4.3584                 1.2536                 1.7500
 Frc consts  --      1.9548                 0.5662                 0.9244
 IR Inten    --     36.0538                 0.0705                 0.8350

                     37                     38                     39
                      A                      A                      A
 Frequencies --    974.7164              1002.7522              1009.7059
 Red. masses --      2.6761                 1.1011                 1.3751
 Frc consts  --      1.4980                 0.6523                 0.8260
 IR Inten    --      8.7153                29.7466                 0.6527

                     40                     41                     42
                      A                      A                      A
 Frequencies --   1026.6615              1027.2114              1044.8678
 Red. masses --      1.3246                 5.8011                 1.1144
 Frc consts  --      0.8226                 3.6065                 0.7168
 IR Inten    --      0.0444                 1.6282                85.9626

                     43                     44                     45
                      A                      A                      A
 Frequencies --   1061.7796              1085.6107              1109.4566
 Red. masses --      2.2025                 5.0534                 1.5510
 Frc consts  --      1.4630                 3.5090                 1.1248
 IR Inten    --      9.9095                49.0914                12.6055

                     46                     47                     48
                      A                      A                      A
 Frequencies --   1127.2172              1151.7084              1181.7199
 Red. masses --      3.2000                 1.3845                 1.1353
 Frc consts  --      2.3956                 1.0820                 0.9341
 IR Inten    --     11.8727                 4.5770                 0.1915

                     49                     50                     51
                      A                      A                      A
 Frequencies --   1183.8371              1207.1218              1221.4707
 Red. masses --      1.7045                 1.1207                 1.4055
 Frc consts  --      1.4075                 0.9621                 1.2355
 IR Inten    --     71.3610                 0.5454                30.5364

                     52                     53                     54
                      A                      A                      A
 Frequencies --   1258.7832              1304.6119              1308.1315
 Red. masses --      3.0429                 3.9844                 4.4817
 Frc consts  --      2.8408                 3.9956                 4.5186
 IR Inten    --     50.2465               772.8561                 1.9842

                     55                     56                     57
                      A                      A                      A
 Frequencies --   1346.1126              1356.1443              1442.7251
 Red. masses --      1.3380                 1.4422                 1.8886
 Frc consts  --      1.4285                 1.5628                 2.3161
 IR Inten    --     14.3357                 1.4113               325.5183

                     58                     59                     60
                      A                      A                      A
 Frequencies --   1456.2468              1466.4550              1478.3579
 Red. masses --      1.2002                 1.9585                 1.0738
 Frc consts  --      1.4996                 2.4815                 1.3828
 IR Inten    --     20.8859               260.6166                31.7821

                     61                     62                     63
                      A                      A                      A
 Frequencies --   1487.2507              1495.3479              1498.6923
 Red. masses --      2.1774                 1.0455                 1.0436
 Frc consts  --      2.8377                 1.3774                 1.3811
 IR Inten    --      8.5072                38.5563                18.4440

                     64                     65                     66
                      A                      A                      A
 Frequencies --   1502.2091              1544.5244              1553.8114
 Red. masses --      1.0827                 2.3724                 1.7966
 Frc consts  --      1.4396                 3.3345                 2.5556
 IR Inten    --     11.0745                31.2600               475.3717

                     67                     68                     69
                      A                      A                      A
 Frequencies --   1627.5333              1646.7630              1660.8986
 Red. masses --      1.1088                 5.7668                 7.2610
 Frc consts  --      1.7305                 9.2140                11.8014
 IR Inten    --    133.0000                 1.4139               596.8216

                     70                     71                     72
                      A                      A                      A
 Frequencies --   1672.6803              3047.0834              3073.7291
 Red. masses --      6.1493                 1.0416                 1.0325
 Frc consts  --     10.1367                 5.6979                 5.7473
 IR Inten    --    164.8698                86.2563                23.6318

                     73                     74                     75
                      A                      A                      A
 Frequencies --   3120.8073              3155.5507              3159.8464
 Red. masses --      1.0952                 1.1048                 1.1041
 Frc consts  --      6.2846                 6.4814                 6.4954
 IR Inten    --     37.9075                 8.3724                22.2970

                     76                     77                     78
                      A                      A                      A
 Frequencies --   3169.1702              3189.1162              3194.9344
 Red. masses --      1.1060                 1.0859                 1.0880
 Frc consts  --      6.5449                 6.5072                 6.5435
 IR Inten    --      8.4386                 4.2164                 0.2928

                     79                     80                     81
                      A                      A                      A
 Frequencies --   3204.1482              3211.8983              3220.3337
 Red. masses --      1.0921                 1.0946                 1.0985
 Frc consts  --      6.6060                 6.6529                 6.7119
 IR Inten    --     23.4685                46.3228                17.0507

                     82                     83                     84
                      A                      A                      A
 Frequencies --   3521.4658              3607.9033              3631.2338
 Red. masses --      1.0504                 1.0969                 1.0769
 Frc consts  --      7.6745                 8.4124                 8.3664
 IR Inten    --     62.0539                64.8255               130.7913

 - Thermochemistry -
 -------------------
 Temperature   298.150 Kelvin.  Pressure   1.00000 Atm.
 Atom     1 has atomic number  6 and mass  12.00000

 Molecular mass:   347.94729 amu.
 Principal axes and moments of inertia in atomic units:
                           1         2         3
     Eigenvalues --  4497.483446315.300928292.41559
           X            0.99752  -0.06119  -0.03464
           Y            0.06126   0.99812   0.00091
           Z            0.03452  -0.00303   0.99940
 This molecule is an asymmetric top.
 Rotational symmetry number  1.
 Warning -- assumption of classical behavior for rotation
           may cause significant error
 Rotational temperatures (Kelvin)      0.01926     0.01371     0.01044
 Rotational constants (GHZ):           0.40128     0.28577     0.21764
    1 imaginary frequencies ignored.
 Zero-point vibrational energy     622044.8 (Joules/Mol)
                                  148.67228 (Kcal/Mol)
 Warning -- explicit consideration of  25 degrees of freedom as
           vibrations may cause significant error
 Vibrational temperatures:     45.20    69.18    90.26    99.45   103.42
          (Kelvin)            150.08   170.21   208.75   218.45   232.63
                              253.55   261.50   293.45   316.47   342.53
                              375.35   399.04   413.74   526.80   571.96
                              607.50   734.88   747.77   804.83   884.97
                              913.58   925.32  1016.63  1044.31  1082.87
                             1145.49  1168.46  1255.33  1259.71  1362.33
                             1402.40  1442.74  1452.74  1477.14  1477.93
                             1503.33  1527.66  1561.95  1596.26  1621.81
                             1657.05  1700.23  1703.28  1736.78  1757.42
                             1811.11  1877.05  1882.11  1936.76  1951.19
                             2075.76  2095.21  2109.90  2127.03  2139.82
                             2151.47  2156.28  2161.34  2222.23  2235.59
                             2341.66  2369.32  2389.66  2406.61  4384.07
                             4422.41  4490.15  4540.13  4546.31  4559.73
                             4588.43  4596.80  4610.05  4621.21  4633.34
                             5066.60  5190.97  5224.54

 Zero-point correction=                           0.236924 (Hartree/Particle)
 Thermal correction to Energy=                    0.254464
 Thermal correction to Enthalpy=                  0.255408
 Thermal correction to Gibbs Free Energy=         0.189338
 Sum of electronic and zero-point Energies=          -5760.505807
 Sum of electronic and thermal Energies=             -5760.488268
 Sum of electronic and thermal Enthalpies=           -5760.487324
 Sum of electronic and thermal Free Energies=        -5760.553393

                     E (Thermal)             CV                S
                      KCal/Mol        Cal/Mol-Kelvin    Cal/Mol-Kelvin
 Total                  159.678             61.783            139.055
 Electronic               0.000              0.000              0.000
 Translational            0.889              2.981             43.435
 Rotational               0.889              2.981             33.820
 Vibrational            157.901             55.821             61.800
 Vibration     1          0.594              1.983              5.738
 Vibration     2          0.595              1.978              4.895
 Vibration     3          0.597              1.972              4.369
 Vibration     4          0.598              1.969              4.178
 Vibration     5          0.598              1.967              4.101
 Vibration     6          0.605              1.946              3.372
 Vibration     7          0.608              1.934              3.128
 Vibration     8          0.616              1.908              2.736
 Vibration     9          0.619              1.901              2.649
 Vibration    10          0.622              1.889              2.530
 Vibration    11          0.628              1.872              2.368
 Vibration    12          0.630              1.865              2.310
 Vibration    13          0.640              1.834              2.097
 Vibration    14          0.647              1.811              1.959
 Vibration    15          0.656              1.782              1.817
 Vibration    16          0.669              1.744              1.656
 Vibration    17          0.678              1.715              1.550
 Vibration    18          0.685              1.697              1.488
 Vibration    19          0.739              1.542              1.096
 Vibration    20          0.764              1.475              0.972
 Vibration    21          0.785              1.422              0.884
 Vibration    22          0.866              1.226              0.632
 Vibration    23          0.875              1.206              0.611
 Vibration    24          0.915              1.119              0.525
 Vibration    25          0.975              1.000              0.424

 Optimization completed.
    -- Stationary point found.
 Normal termination of Gaussian 16 at Fri Jun 11 18:43:21 2021.
