 Gaussian 16, Revision A.03,
 Gaussian 16:  ES64L-G16RevA.03 25-Dec-2016

 ----------------------------------------------------------------------
 # wB97XD def2tzvp, opt=(ts, noeigen, calcfc, maxcycles=70, maxstep=5),
  freq=noraman, scrf=(iefpcm, solvent=water)
 ----------------------------------------------------------------------

 ------------------------
 2_iteration/TS-726-2.out
 ------------------------
 Symbolic Z-matrix:
 Charge =  0 Multiplicity = 1

 SCF Done:  E(RwB97XD) =  -5800.05407411     A.U. after   15 cycles
 SCF Done:  E(RwB97XD) =  -5800.05414317     A.U. after   10 cycles
 SCF Done:  E(RwB97XD) =  -5800.05414745     A.U. after   10 cycles
 SCF Done:  E(RwB97XD) =  -5800.05414750     A.U. after    7 cycles
 Optimization completed.
    -- Stationary point found.
 Normal termination of Gaussian 16 at Mon Feb 22 17:59:33 2021.

 ---------------------------------------------------------------------
 #N Geom=AllCheck Guess=TCheck SCRF=Check GenChk RwB97XD/def2TZVP Freq
 ---------------------------------------------------------------------

 Structure from the checkpoint file:  "/beegfs/scratch/user/q/tla25/Gau-15868.chk"
 ------------------------
 2_iteration/TS-726-2.out
 ------------------------
 Charge =  0 Multiplicity = 1

                         Standard orientation:
 ---------------------------------------------------------------------
 Center     Atomic      Atomic             Coordinates (Angstroms)
 Number     Number       Type             X           Y           Z
 ---------------------------------------------------------------------
      1          6           0        0.270746    0.338512    0.008344
      2          6           0        0.377490    1.775749    0.340301
      3          8           0       -0.376978    2.312568    1.171178
      4          6           0       -0.993595   -0.209777    0.050023
      5          6           0       -0.955773   -0.729800    2.825065
      6          1           0        0.100392   -0.594812    2.588335
      7          1           0       -1.144178   -0.335199    3.824081
      8          1           0       -1.192779   -1.791164    2.806646
      9          7           0       -1.738744   -0.027095    1.822745
     10          1           0       -2.726147   -0.250372    1.851936
     11          1           0       -1.582215    0.981934    1.872581
     12         35           0       -1.225635   -2.090487   -0.233250
     13         35           0       -2.464594    0.768740   -0.844273
     14          6           0        1.525451   -0.459304   -0.038737
     15          6           0        2.470432   -0.328645    0.980785
     16          6           0        3.673953   -1.016109    0.941374
     17          6           0        3.958946   -1.861662   -0.120884
     18          6           0        3.035250   -1.996723   -1.148043
     19          6           0        1.841079   -1.294567   -1.111644
     20          1           0        2.259860    0.326826    1.818167
     21          1           0        4.387552   -0.894918    1.746988
     22          1           0        4.895666   -2.403566   -0.152866
     23          1           0        3.252384   -2.639896   -1.991963
     24          1           0        1.147030   -1.380384   -1.937876
     25          7           0        1.359123    2.499867   -0.247377
     26          6           0        2.042988    2.108673   -1.462395
     27          6           0        1.671098    3.821953    0.252995
     28          1           0        1.476463    1.345163   -1.987550
     29          1           0        2.125723    2.981199   -2.112836
     30          1           0        3.047653    1.727856   -1.258949
     31          1           0        1.372677    3.901619    1.294286
     32          1           0        2.746434    3.987568    0.171592
     33          1           0        1.156245    4.599538   -0.319357
 ---------------------------------------------------------------------

 SCF Done:  E(RwB97XD) =  -5800.05414750     A.U. after    1 cycles

 The electronic state is 1-A.
 Alpha  occ. eigenvalues -- -483.14142-483.13025 -62.68975 -62.67866 -56.48109
 Alpha  occ. eigenvalues --  -56.47731 -56.47719 -56.46987 -56.46624 -56.46618
 Alpha  occ. eigenvalues --  -19.21164 -14.47846 -14.46189 -10.43420 -10.38513
 Alpha  occ. eigenvalues --  -10.31458 -10.30848 -10.30577 -10.30308 -10.28789
 Alpha  occ. eigenvalues --  -10.28744 -10.28626 -10.28598 -10.28505 -10.27632
 Alpha  occ. eigenvalues --   -8.83079  -8.81963  -6.65280  -6.64120  -6.64076
 Alpha  occ. eigenvalues --   -6.64039  -6.62975  -6.62956  -2.75662  -2.75316
 Alpha  occ. eigenvalues --   -2.75287  -2.74498  -2.74314  -2.74314  -2.74178
 Alpha  occ. eigenvalues --   -2.74163  -2.73237  -2.73236  -1.13853  -1.03955
 Alpha  occ. eigenvalues --   -1.03272  -0.97076  -0.94814  -0.88036  -0.87284
 Alpha  occ. eigenvalues --   -0.84809  -0.82557  -0.81475  -0.79113  -0.78364
 Alpha  occ. eigenvalues --   -0.70659  -0.70134  -0.67169  -0.63644  -0.62466
 Alpha  occ. eigenvalues --   -0.61176  -0.58065  -0.57168  -0.56697  -0.56293
 Alpha  occ. eigenvalues --   -0.54886  -0.53577  -0.53420  -0.51962  -0.50836
 Alpha  occ. eigenvalues --   -0.50608  -0.48865  -0.48662  -0.47955  -0.47687
 Alpha  occ. eigenvalues --   -0.46622  -0.45678  -0.45521  -0.45457  -0.43132
 Alpha  occ. eigenvalues --   -0.42550  -0.39710  -0.38283  -0.36856  -0.36265
 Alpha  occ. eigenvalues --   -0.35763  -0.33589  -0.33012  -0.32195  -0.26991
 Alpha virt. eigenvalues --    0.01791   0.04558   0.05330   0.05824   0.07476
 Alpha virt. eigenvalues --    0.10744   0.12421   0.13421   0.14038   0.14994
 Alpha virt. eigenvalues --    0.15160   0.16102   0.17217   0.17607   0.18040

 Mulliken charges:
               1
     1  C   -0.396808
     2  C    0.329023
     3  O   -0.565005
     4  C    0.178432
     5  C   -0.292927
     6  H    0.140069
     7  H    0.156299
     8  H    0.155984
     9  N   -0.299059
    10  H    0.281244
    11  H    0.278786
    12  Br  -0.046040
    13  Br  -0.115103
    14  C    0.189044
    15  C   -0.215310
    16  C   -0.187001
    17  C   -0.130278
    18  C   -0.155296
    19  C   -0.235945
    20  H    0.160777
    21  H    0.138830
    22  H    0.141708
    23  H    0.138807
    24  H    0.155254
    25  N   -0.078889
    26  C   -0.302701
    27  C   -0.295971
    28  H    0.157735
    29  H    0.152427
    30  H    0.139506
    31  H    0.142119
    32  H    0.141963
    33  H    0.138324
 Sum of Mulliken charges =  -0.00000

 Dipole moment (field-independent basis, Debye):
    X=              1.5627    Y=             -0.8550    Z=              2.1281  Tot=              2.7752
 Quadrupole moment (field-independent basis, Debye-Ang):
   XX=           -116.8568   YY=           -126.0696   ZZ=           -115.5214
   XY=              7.0014   XZ=             -7.9007   YZ=             -4.8191

  Exact polarizability: 331.479 -11.664 283.104  -6.268   8.917 264.630
 Approx polarizability: 253.493 -10.991 227.714  -2.894  11.326 225.334

 ******    1 imaginary frequencies (negative Signs) ******

                      1                      2                      3
                      A                      A                      A
 Frequencies --   -409.5106                36.0680                54.8272
 Red. masses --      5.9742                 5.7135                 6.3938
 Frc consts  --      0.5903                 0.0044                 0.0113
 IR Inten    --    725.4828                 1.1943                 5.0853

                      4                      5                      6
                      A                      A                      A
 Frequencies --     61.7095                75.2918                90.4323
 Red. masses --      4.4276                 3.4338                 3.3278
 Frc consts  --      0.0099                 0.0115                 0.0160
 IR Inten    --      0.2882                 0.7856                 1.5991

                      7                      8                      9
                      A                      A                      A
 Frequencies --     99.6989               109.6162               128.3797
 Red. masses --      2.4526                 1.2798                 3.3450
 Frc consts  --      0.0144                 0.0091                 0.0325
 IR Inten    --      0.9583                 0.7563                 3.3326

                     10                     11                     12
                      A                      A                      A
 Frequencies --    145.4716               152.2739               162.9029
 Red. masses --      6.6533                 4.6946                 4.3243
 Frc consts  --      0.0830                 0.0641                 0.0676
 IR Inten    --     16.0615                 2.2217                 1.7770

                     13                     14                     15
                      A                      A                      A
 Frequencies --    173.8614               196.5411               211.9887
 Red. masses --      1.5155                 1.6376                 3.2376
 Frc consts  --      0.0270                 0.0373                 0.0857
 IR Inten    --      4.3344                 1.0744                 5.0800

                     16                     17                     18
                      A                      A                      A
 Frequencies --    227.6874               242.1530               253.7411
 Red. masses --      2.9340                 3.3384                 5.3930
 Frc consts  --      0.0896                 0.1153                 0.2046
 IR Inten    --      3.3155                 9.1681                23.0789

                     19                     20                     21
                      A                      A                      A
 Frequencies --    262.8629               282.3698               323.2279
 Red. masses --      3.2516                 3.3308                 3.7566
 Frc consts  --      0.1324                 0.1565                 0.2312
 IR Inten    --      9.3465                42.1030                 3.8125

                     22                     23                     24
                      A                      A                      A
 Frequencies --    357.4468               410.7783               431.4703
 Red. masses --      4.6552                 3.2801                 2.9608
 Frc consts  --      0.3504                 0.3261                 0.3248
 IR Inten    --     21.2632                24.1907                 1.5271

                     25                     26                     27
                      A                      A                      A
 Frequencies --    473.5532               514.2184               521.8947
 Red. masses --      3.7815                 4.5040                 5.8339
 Frc consts  --      0.4996                 0.7017                 0.9362
 IR Inten    --     25.1939                42.7867                77.6411

                     28                     29                     30
                      A                      A                      A
 Frequencies --    629.2985               643.8045               650.6611
 Red. masses --      4.6820                 2.8940                 5.6718
 Frc consts  --      1.0924                 0.7067                 1.4148
 IR Inten    --     32.6595                 3.1860                37.3001

                     31                     32                     33
                      A                      A                      A
 Frequencies --    707.0935               733.0487               737.1376
 Red. masses --      4.2470                 2.2620                 2.4980
 Frc consts  --      1.2511                 0.7161                 0.7997
 IR Inten    --    172.5793                90.8366                84.6816

                     34                     35                     36
                      A                      A                      A
 Frequencies --    766.1825               805.4278               814.0021
 Red. masses --      2.2563                 9.0334                 2.5527
 Frc consts  --      0.7804                 3.4527                 0.9966
 IR Inten    --     70.2850               105.0864                55.9937

                     37                     38                     39
                      A                      A                      A
 Frequencies --    884.5633               955.1445               963.6100
 Red. masses --      1.2522                 4.0381                 1.4399
 Frc consts  --      0.5773                 2.1705                 0.7877
 IR Inten    --      1.6930                45.9034                 2.5574

                     40                     41                     42
                      A                      A                      A
 Frequencies --    996.3560              1018.8337              1025.2812
 Red. masses --      1.1015                 1.3639                 5.1276
 Frc consts  --      0.6443                 0.8341                 3.1758
 IR Inten    --     84.2518                 0.9558                 0.9463

                     43                     44                     45
                      A                      A                      A
 Frequencies --   1030.6875              1040.5290              1069.7405
 Red. masses --      1.3757                 2.9671                 1.8619
 Frc consts  --      0.8611                 1.8928                 1.2553
 IR Inten    --      0.7390                31.2346                39.1074

                     46                     47                     48
                      A                      A                      A
 Frequencies --   1085.8658              1087.4444              1093.0716
 Red. masses --      1.7789                 1.5985                 1.7843
 Frc consts  --      1.2358                 1.1137                 1.2561
 IR Inten    --     14.4264                10.0502               160.2512

                     49                     50                     51
                      A                      A                      A
 Frequencies --   1116.2672              1132.7477              1168.6216
 Red. masses --      1.5769                 1.2307                 1.4386
 Frc consts  --      1.1577                 0.9304                 1.1575
 IR Inten    --     15.4285                 1.1873                 4.6039

                     52                     53                     54
                      A                      A                      A
 Frequencies --   1182.6318              1190.2444              1210.7218
 Red. masses --      1.1303                 2.2516                 1.4460
 Frc consts  --      0.9314                 1.8793                 1.2489
 IR Inten    --      1.2378               162.1825                45.0368

                     55                     56                     57
                      A                      A                      A
 Frequencies --   1215.4136              1269.3187              1311.8969
 Red. masses --      1.1290                 4.6051                 4.9905
 Frc consts  --      0.9826                 4.3715                 5.0605
 IR Inten    --      1.6647               314.8609                 4.9617

                     58                     59                     60
                      A                      A                      A
 Frequencies --   1320.0482              1356.0641              1364.7842
 Red. masses --      5.4653                 1.2995                 1.4230
 Frc consts  --      5.6110                 1.4079                 1.5616
 IR Inten    --    110.2301                 8.0031                 7.5341

                     61                     62                     63
                      A                      A                      A
 Frequencies --   1415.2626              1439.5778              1446.2778
 Red. masses --      3.9239                 1.7207                 1.2538
 Frc consts  --      4.6306                 2.1010                 1.5452
 IR Inten    --    982.7861                36.8589                10.2314

                     64                     65                     66
                      A                      A                      A
 Frequencies --   1460.2946              1475.2062              1484.1881
 Red. masses --      1.2807                 1.2362                 1.0897
 Frc consts  --      1.6090                 1.5851                 1.4143
 IR Inten    --     30.6085                27.1837                15.5087

                     67                     68                     69
                      A                      A                      A
 Frequencies --   1488.4701              1489.0399              1490.5691
 Red. masses --      1.0415                 2.0056                 1.1139
 Frc consts  --      1.3595                 2.6200                 1.4581
 IR Inten    --     19.2351                 6.8058                37.1238

                     70                     71                     72
                      A                      A                      A
 Frequencies --   1502.4609              1504.0754              1536.3692
 Red. masses --      1.0513                 1.0410                 1.7277
 Frc consts  --      1.3982                 1.3875                 2.4027
 IR Inten    --     16.9062                 6.4312               174.9157

                     73                     74                     75
                      A                      A                      A
 Frequencies --   1544.1659              1608.4227              1641.8048
 Red. masses --      2.2876                 1.8862                 3.0078
 Frc consts  --      3.2138                 2.8749                 4.7769
 IR Inten    --    110.6542               693.1211                81.5730

                     76                     77                     78
                      A                      A                      A
 Frequencies --   1646.9031              1670.4329              3037.4617
 Red. masses --      2.6162                 5.8324                 1.0420
 Frc consts  --      4.1809                 9.5886                 5.6645
 IR Inten    --    196.1109                19.1854                72.1125

                     79                     80                     81
                      A                      A                      A
 Frequencies --   3043.2809              3065.5454              3103.5233
 Red. masses --      1.0412                 1.0339                 1.0987
 Frc consts  --      5.6814                 5.7244                 6.2352
 IR Inten    --    105.8474                46.9670                71.4897

                     82                     83                     84
                      A                      A                      A
 Frequencies --   3110.3231              3138.0144              3168.4542
 Red. masses --      1.1001                 1.1035                 1.1046
 Frc consts  --      6.2703                 6.4022                 6.5334
 IR Inten    --     13.4283                 8.5472                15.4850

                     85                     86                     87
                      A                      A                      A
 Frequencies --   3173.9948              3177.8590              3184.7266
 Red. masses --      1.0994                 1.0997                 1.0876
 Frc consts  --      6.5257                 6.5433                 6.4992
 IR Inten    --     11.6843                 9.0328                11.3555

                     88                     89                     90
                      A                      A                      A
 Frequencies --   3193.6721              3203.0327              3212.4047
 Red. masses --      1.0871                 1.0919                 1.0940
 Frc consts  --      6.5327                 6.5999                 6.6514
 IR Inten    --      0.5147                24.6727                37.9530

                     91                     92                     93
                      A                      A                      A
 Frequencies --   3220.8163              3381.4515              3587.4100
 Red. masses --      1.0985                 1.0648                 1.0864
 Frc consts  --      6.7138                 7.1736                 8.2379
 IR Inten    --     15.4094               207.3065               117.7176

 - Thermochemistry -
 -------------------
 Temperature   298.150 Kelvin.  Pressure   1.00000 Atm.
 Atom     1 has atomic number  6 and mass  12.00000

 Molecular mass:   361.96294 amu.
 Principal axes and moments of inertia in atomic units:
                           1         2         3
     Eigenvalues --  5061.099706572.555849015.06404
           X            0.99911   0.02026  -0.03693
           Y           -0.02047   0.99977  -0.00555
           Z            0.03681   0.00631   0.99930
 This molecule is an asymmetric top.
 Rotational symmetry number  1.
 Warning -- assumption of classical behavior for rotation
           may cause significant error
 Rotational temperatures (Kelvin)      0.01711     0.01318     0.00961
 Rotational constants (GHZ):           0.35659     0.27459     0.20019
    1 imaginary frequencies ignored.
 Zero-point vibrational energy     696361.2 (Joules/Mol)
                                  166.43432 (Kcal/Mol)
 Warning -- explicit consideration of  26 degrees of freedom as
           vibrations may cause significant error
 Vibrational temperatures:     51.89    78.88    88.79   108.33   130.11
          (Kelvin)            143.44   157.71   184.71   209.30   219.09
                              234.38   250.15   282.78   305.00   327.59
                              348.40   365.08   378.20   406.27   465.05
                              514.29   591.02   620.79   681.34   739.85
                              750.89   905.42   926.29   936.16  1017.35
                             1054.69  1060.58  1102.37  1158.83  1171.17
                             1272.69  1374.24  1386.42  1433.53  1465.87
                             1475.15  1482.93  1497.09  1539.12  1562.32
                             1564.59  1572.69  1606.06  1629.77  1681.39
                             1701.54  1712.50  1741.96  1748.71  1826.27
                             1887.53  1899.25  1951.07  1963.62  2036.25
                             2071.23  2080.87  2101.04  2122.49  2135.42
                             2141.58  2142.40  2144.60  2161.71  2164.03
                             2210.49  2221.71  2314.16  2362.19  2369.53
                             2403.38  4370.23  4378.60  4410.64  4465.28
                             4475.06  4514.90  4558.70  4566.67  4572.23
                             4582.11  4594.98  4608.45  4621.93  4634.04
                             4865.15  5161.48

 Zero-point correction=                           0.265230 (Hartree/Particle)
 Thermal correction to Energy=                    0.283901
 Thermal correction to Enthalpy=                  0.284845
 Thermal correction to Gibbs Free Energy=         0.216904
 Sum of electronic and zero-point Energies=          -5799.788918
 Sum of electronic and thermal Energies=             -5799.770247
 Sum of electronic and thermal Enthalpies=           -5799.769303
 Sum of electronic and thermal Free Energies=        -5799.837244

                     E (Thermal)             CV                S
                      KCal/Mol        Cal/Mol-Kelvin    Cal/Mol-Kelvin
 Total                  178.150             66.360            142.994
 Electronic               0.000              0.000              0.000
 Translational            0.889              2.981             43.552
 Rotational               0.889              2.981             34.060
 Vibrational            176.373             60.399             65.381
 Vibration     1          0.594              1.982              5.464
 Vibration     2          0.596              1.976              4.635
 Vibration     3          0.597              1.973              4.402
 Vibration     4          0.599              1.965              4.010
 Vibration     5          0.602              1.956              3.651
 Vibration     6          0.604              1.949              3.460
 Vibration     7          0.606              1.942              3.276
 Vibration     8          0.611              1.925              2.970
 Vibration     9          0.617              1.908              2.731
 Vibration    10          0.619              1.900              2.644
 Vibration    11          0.623              1.888              2.516
 Vibration    12          0.627              1.875              2.393
 Vibration    13          0.636              1.845              2.165
 Vibration    14          0.643              1.823              2.026
 Vibration    15          0.651              1.799              1.897
 Vibration    16          0.658              1.776              1.787
 Vibration    17          0.665              1.756              1.704
 Vibration    18          0.670              1.741              1.643
 Vibration    19          0.681              1.706              1.519
 Vibration    20          0.708              1.629              1.294
 Vibration    21          0.733              1.560              1.133
 Vibration    22          0.775              1.447              0.924
 Vibration    23          0.793              1.402              0.854
 Vibration    24          0.830              1.309              0.728
 Vibration    25          0.869              1.218              0.624
 Vibration    26          0.877              1.202              0.606

 Optimization completed.
    -- Stationary point found.
 Normal termination of Gaussian 16 at Mon Feb 22 19:46:24 2021.
