 Gaussian 16, Revision A.03,
 Gaussian 16:  ES64L-G16RevA.03 25-Dec-2016

 ----------------------------------------------------------------------
 # wB97XD def2tzvp, opt=(ts, noeigen, calcfc, maxcycles=70, maxstep=5),
  freq=noraman, scrf=(iefpcm, solvent=water)
 ----------------------------------------------------------------------

 ------------------------
 2_iteration/TS-752-2.out
 ------------------------
 Symbolic Z-matrix:
 Charge =  0 Multiplicity = 1

 SCF Done:  E(RwB97XD) =  -8239.66096527     A.U. after   15 cycles
 SCF Done:  E(RwB97XD) =  -8239.66096523     A.U. after    7 cycles
 Optimization completed.
    -- Stationary point found.
 Normal termination of Gaussian 16 at Mon Feb 22 14:28:59 2021.

 ---------------------------------------------------------------------
 #N Geom=AllCheck Guess=TCheck SCRF=Check GenChk RwB97XD/def2TZVP Freq
 ---------------------------------------------------------------------

 Structure from the checkpoint file:  "/beegfs/scratch/user/q/tla25/Gau-30190.chk"
 ------------------------
 2_iteration/TS-752-2.out
 ------------------------
 Charge =  0 Multiplicity = 1

                         Standard orientation:
 ---------------------------------------------------------------------
 Center     Atomic      Atomic             Coordinates (Angstroms)
 Number     Number       Type             X           Y           Z
 ---------------------------------------------------------------------
      1          6           0        0.454346    0.822969   -0.197884
      2          6           0       -0.789763    1.516930   -0.488211
      3          8           0       -0.810217    2.638211   -0.979361
      4          6           0        0.652476   -0.540569   -0.014774
      5          6           0        0.932755   -0.143612    2.784588
      6          1           0        2.018521   -0.175892    2.723564
      7          1           0        0.592736    0.854479    2.507065
      8          1           0        0.619992   -0.355930    3.806586
      9          7           0        0.370132   -1.106284    1.847644
     10          1           0        0.761611   -2.034653    1.965863
     11          1           0       -0.637967   -1.175743    1.939460
     12         35           0        2.437041   -1.245292   -0.204710
     13         35           0       -0.584597   -1.794458   -0.813487
     14         35           0        1.953627    2.006585   -0.125281
     15          6           0       -2.109496    0.899776   -0.125384
     16          6           0       -3.079419    0.717503   -1.105113
     17          6           0       -4.317894    0.199084   -0.768042
     18          6           0       -4.608378   -0.111823    0.554938
     19          6           0       -3.659138    0.109775    1.540727
     20          6           0       -2.411143    0.611880    1.199733
     21          1           0       -2.850704    0.961512   -2.134841
     22          1           0       -5.061582    0.037794   -1.537971
     23          1           0       -5.578291   -0.514827    0.816729
     24          1           0       -3.888275   -0.103964    2.576748
     25          1           0       -1.683796    0.814849    1.976459
 ---------------------------------------------------------------------

 SCF Done:  E(RwB97XD) =  -8239.66096523     A.U. after    1 cycles

 The electronic state is 1-A.
 Alpha  occ. eigenvalues -- -483.14966-483.14944-483.12862 -62.69803 -62.69772
 Alpha  occ. eigenvalues --  -62.67687 -56.48950 -56.48920 -56.48555 -56.48534
 Alpha  occ. eigenvalues --  -56.48521 -56.48508 -56.46814 -56.46447 -56.46436
 Alpha  occ. eigenvalues --  -19.23244 -14.49783 -10.45581 -10.38341 -10.33329
 Alpha  occ. eigenvalues --  -10.32409 -10.30757 -10.30118 -10.29769 -10.29765
 Alpha  occ. eigenvalues --  -10.29662 -10.29606  -8.83911  -8.83870  -8.81796
 Alpha  occ. eigenvalues --   -6.66153  -6.66113  -6.64899  -6.64845  -6.64836
 Alpha  occ. eigenvalues --   -6.64804  -6.63977  -6.62800  -6.62772  -2.76524
 Alpha  occ. eigenvalues --   -2.76482  -2.76175  -2.76126  -2.76125  -2.76093
 Alpha  occ. eigenvalues --   -2.75112  -2.75111  -2.75069  -2.75068  -2.74360
 Alpha  occ. eigenvalues --   -2.74020  -2.73998  -2.73047  -2.73046  -1.14400
 Alpha  occ. eigenvalues --   -1.05341  -0.98056  -0.97243  -0.90742  -0.88891
 Alpha  occ. eigenvalues --   -0.87086  -0.85969  -0.81940  -0.79734  -0.74503
 Alpha  occ. eigenvalues --   -0.71418  -0.69648  -0.64734  -0.63824  -0.59772
 Alpha  occ. eigenvalues --   -0.58421  -0.57866  -0.55977  -0.55100  -0.54843
 Alpha  occ. eigenvalues --   -0.53628  -0.51817  -0.51146  -0.49457  -0.48836
 Alpha  occ. eigenvalues --   -0.48259  -0.46401  -0.46114  -0.44721  -0.43447
 Alpha  occ. eigenvalues --   -0.41688  -0.40109  -0.39365  -0.38192  -0.38158
 Alpha  occ. eigenvalues --   -0.35794  -0.35193  -0.34558  -0.32676  -0.29375
 Alpha virt. eigenvalues --    0.00207   0.01332   0.02880   0.04627   0.05098
 Alpha virt. eigenvalues --    0.10164   0.11777   0.13165   0.13356   0.13980
 Alpha virt. eigenvalues --    0.14949   0.15996   0.17065   0.17826   0.18296

 Mulliken charges:
               1
     1  C   -0.291532
     2  C    0.256726
     3  O   -0.425773
     4  C    0.157980
     5  C   -0.309602
     6  H    0.167752
     7  H    0.161611
     8  H    0.172195
     9  N   -0.339513
    10  H    0.297432
    11  H    0.285827
    12  Br  -0.014853
    13  Br  -0.021884
    14  Br  -0.104871
    15  C    0.162999
    16  C   -0.223581
    17  C   -0.126783
    18  C   -0.145580
    19  C   -0.130778
    20  C   -0.306013
    21  H    0.144284
    22  H    0.147722
    23  H    0.148566
    24  H    0.146432
    25  H    0.191236
 Sum of Mulliken charges =  -0.00000

 Dipole moment (field-independent basis, Debye):
    X=             -1.6789    Y=             -7.9942    Z=              7.4213  Tot=             11.0364
 Quadrupole moment (field-independent basis, Debye-Ang):
   XX=           -115.2489   YY=           -140.2155   ZZ=           -109.0565
   XY=              3.2925   XZ=              2.0532   YZ=             -0.4752

  Exact polarizability: 308.371  15.567 261.057  10.975 -22.496 248.908
 Approx polarizability: 240.425  14.930 218.188   8.184 -18.097 215.968

 ******    1 imaginary frequencies (negative Signs) ******

                      1                      2                      3
                      A                      A                      A
 Frequencies --   -368.7893                30.4275                44.5914
 Red. masses --      5.9619                 7.7246                 9.4909
 Frc consts  --      0.4777                 0.0042                 0.0111
 IR Inten    --    794.1067                 1.4091                 2.7303

                      4                      5                      6
                      A                      A                      A
 Frequencies --     64.2037                77.0962                90.3456
 Red. masses --      6.7855                 4.6949                 3.2270
 Frc consts  --      0.0165                 0.0164                 0.0155
 IR Inten    --      1.0889                 2.9746                 0.7136

                      7                      8                      9
                      A                      A                      A
 Frequencies --    121.0846               132.5756               150.1073
 Red. masses --      4.4930                 9.4474                14.4231
 Frc consts  --      0.0388                 0.0978                 0.1915
 IR Inten    --      2.9908                 2.3992                 1.0841

                     10                     11                     12
                      A                      A                      A
 Frequencies --    177.5809               191.7649               202.7616
 Red. masses --     12.7140                 4.7689                 1.5233
 Frc consts  --      0.2362                 0.1033                 0.0369
 IR Inten    --      2.5405                 0.3604                11.8279

                     13                     14                     15
                      A                      A                      A
 Frequencies --    202.8937               219.7111               247.3017
 Red. masses --      6.8458                 3.3622                 3.1688
 Frc consts  --      0.1660                 0.0956                 0.1142
 IR Inten    --      3.2223                 5.6265                 2.0801

                     16                     17                     18
                      A                      A                      A
 Frequencies --    270.8075               285.5597               358.7284
 Red. masses --      5.2848                 5.2463                10.1787
 Frc consts  --      0.2284                 0.2521                 0.7717
 IR Inten    --     21.0931                 6.8622                 1.5733

                     19                     20                     21
                      A                      A                      A
 Frequencies --    385.9580               422.4190               486.4082
 Red. masses --      5.4030                 2.9534                 7.1341
 Frc consts  --      0.4742                 0.3105                 0.9945
 IR Inten    --     17.0864                 2.3626               111.4932

                     22                     23                     24
                      A                      A                      A
 Frequencies --    550.6013               627.5384               634.6466
 Red. masses --      4.2299                 2.0046                 6.2214
 Frc consts  --      0.7555                 0.4651                 1.4764
 IR Inten    --      7.9128                 5.6140                 0.3465

                     25                     26                     27
                      A                      A                      A
 Frequencies --    660.5979               713.4868               729.9933
 Red. masses --      3.1244                 9.0815                 1.7607
 Frc consts  --      0.8033                 2.7238                 0.5528
 IR Inten    --    145.3706               134.6268                75.2606

                     28                     29                     30
                      A                      A                      A
 Frequencies --    754.4634               798.7205               812.4501
 Red. masses --      3.5704                 4.0509                 3.8091
 Frc consts  --      1.1974                 1.5226                 1.4814
 IR Inten    --     45.5233               114.9066                84.3999

                     31                     32                     33
                      A                      A                      A
 Frequencies --    859.4680               884.7570               966.2678
 Red. masses --      4.9706                 1.2611                 1.4243
 Frc consts  --      2.1633                 0.5816                 0.7835
 IR Inten    --     25.2391                 1.6065                18.2331

                     34                     35                     36
                      A                      A                      A
 Frequencies --    999.2499              1016.6093              1026.7744
 Red. masses --      1.1065                 1.4727                 3.3025
 Frc consts  --      0.6509                 0.8968                 2.0514
 IR Inten    --     23.8321                 7.0685                18.4114

                     37                     38                     39
                      A                      A                      A
 Frequencies --   1033.2003              1036.1106              1058.0690
 Red. masses --      1.2174                 1.3046                 2.3755
 Frc consts  --      0.7657                 0.8251                 1.5669
 IR Inten    --     56.8768                22.7737                16.1934

                     40                     41                     42
                      A                      A                      A
 Frequencies --   1078.3170              1111.2349              1133.3641
 Red. masses --      5.0116                 1.5943                 3.7886
 Frc consts  --      3.4333                 1.1599                 2.8673
 IR Inten    --     41.5902                36.3620               104.5620

                     43                     44                     45
                      A                      A                      A
 Frequencies --   1184.7781              1205.6456              1217.5854
 Red. masses --      1.1384                 1.1223                 1.4056
 Frc consts  --      0.9415                 0.9612                 1.2278
 IR Inten    --      0.3292                 6.4403                19.8858

                     46                     47                     48
                      A                      A                      A
 Frequencies --   1303.7105              1327.4738              1338.6927
 Red. masses --      4.9542                 4.7797                 1.3519
 Frc consts  --      4.9612                 4.9625                 1.4275
 IR Inten    --    462.0958                43.7498                31.2557

                     49                     50                     51
                      A                      A                      A
 Frequencies --   1358.1652              1361.6068              1460.3845
 Red. masses --      1.5571                 6.6002                 1.1967
 Frc consts  --      1.6922                 7.2096                 1.5037
 IR Inten    --     38.4483              1164.0812                10.3872

                     52                     53                     54
                      A                      A                      A
 Frequencies --   1490.3637              1495.4191              1500.0586
 Red. masses --      2.2152                 1.0424                 1.0361
 Frc consts  --      2.8990                 1.3735                 1.3736
 IR Inten    --     15.4999                19.6734                20.1327

                     55                     56                     57
                      A                      A                      A
 Frequencies --   1540.8976              1638.9834              1650.8152
 Red. masses --      2.3085                 1.0893                 5.9109
 Frc consts  --      3.2295                 1.7241                 9.4908
 IR Inten    --      4.0150                59.9090                18.5461

                     58                     59                     60
                      A                      A                      A
 Frequencies --   1673.9632              1676.9887              3070.0273
 Red. masses --      5.9655                12.3155                 1.0330
 Frc consts  --      9.8489                20.4063                 5.7365
 IR Inten    --     19.1816               606.9428                22.0385

                     61                     62                     63
                      A                      A                      A
 Frequencies --   3147.7302              3169.7156              3196.7414
 Red. masses --      1.1048                 1.1054                 1.0863
 Frc consts  --      6.4498                 6.5437                 6.5404
 IR Inten    --      9.8280                 9.7264                 2.9224

                     64                     65                     66
                      A                      A                      A
 Frequencies --   3201.5513              3209.2158              3216.9172
 Red. masses --      1.0879                 1.0915                 1.0953
 Frc consts  --      6.5699                 6.6231                 6.6785
 IR Inten    --      0.3138                 8.0342                28.9186

                     67                     68                     69
                      A                      A                      A
 Frequencies --   3225.9685              3507.7378              3593.1953
 Red. masses --      1.0990                 1.0508                 1.0969
 Frc consts  --      6.7384                 7.6180                 8.3442
 IR Inten    --     16.0710                63.7634                90.9673

 - Thermochemistry -
 -------------------
 Temperature   298.150 Kelvin.  Pressure   1.00000 Atm.
 Atom     1 has atomic number  6 and mass  12.00000

 Molecular mass:   396.83125 amu.
 Principal axes and moments of inertia in atomic units:
                           1         2         3
     Eigenvalues --  4398.210777622.045439593.45343
           X            0.99975  -0.02205   0.00382
           Y            0.02217   0.99911  -0.03580
           Z           -0.00302   0.03588   0.99935
 This molecule is an asymmetric top.
 Rotational symmetry number  1.
 Warning -- assumption of classical behavior for rotation
           may cause significant error
 Rotational temperatures (Kelvin)      0.01969     0.01136     0.00903
 Rotational constants (GHZ):           0.41034     0.23678     0.18812
    1 imaginary frequencies ignored.
 Zero-point vibrational energy     476189.0 (Joules/Mol)
                                  113.81190 (Kcal/Mol)
 Warning -- explicit consideration of  21 degrees of freedom as
           vibrations may cause significant error
 Vibrational temperatures:     43.78    64.16    92.37   110.92   129.99
          (Kelvin)            174.21   190.75   215.97   255.50   275.91
                              291.73   291.92   316.12   355.81   389.63
                              410.86   516.13   555.31   607.77   699.83
                              792.19   902.89   913.11   950.45  1026.55
                             1050.30  1085.50  1149.18  1168.93  1236.58
                             1272.97  1390.24  1437.70  1462.67  1477.30
                             1486.54  1490.73  1522.33  1551.46  1598.82
                             1630.66  1704.63  1734.66  1751.83  1875.75
                             1909.94  1926.08  1954.10  1959.05  2101.17
                             2144.30  2151.57  2158.25  2217.01  2358.13
                             2375.15  2408.46  2412.81  4417.08  4528.88
                             4560.51  4599.40  4606.32  4617.35  4628.43
                             4641.45  5046.85  5169.81

 Zero-point correction=                           0.181371 (Hartree/Particle)
 Thermal correction to Energy=                    0.197302
 Thermal correction to Enthalpy=                  0.198246
 Thermal correction to Gibbs Free Energy=         0.135031
 Sum of electronic and zero-point Energies=          -8239.479594
 Sum of electronic and thermal Energies=             -8239.463663
 Sum of electronic and thermal Enthalpies=           -8239.462719
 Sum of electronic and thermal Free Energies=        -8239.525934

                     E (Thermal)             CV                S
                      KCal/Mol        Cal/Mol-Kelvin    Cal/Mol-Kelvin
 Total                  123.809             55.512            133.046
 Electronic               0.000              0.000              0.000
 Translational            0.889              2.981             43.827
 Rotational               0.889              2.981             34.130
 Vibrational            122.031             49.551             55.090
 Vibration     1          0.594              1.984              5.801
 Vibration     2          0.595              1.980              5.044
 Vibration     3          0.597              1.971              4.324
 Vibration     4          0.599              1.964              3.963
 Vibration     5          0.602              1.956              3.653
 Vibration     6          0.609              1.932              3.083
 Vibration     7          0.613              1.921              2.908
 Vibration     8          0.618              1.903              2.671
 Vibration     9          0.628              1.870              2.354
 Vibration    10          0.634              1.851              2.211
 Vibration    11          0.639              1.836              2.108
 Vibration    12          0.639              1.836              2.107
 Vibration    13          0.647              1.811              1.961
 Vibration    14          0.661              1.767              1.750
 Vibration    15          0.674              1.727              1.591
 Vibration    16          0.683              1.700              1.500
 Vibration    17          0.734              1.557              1.128
 Vibration    18          0.755              1.500              1.016
 Vibration    19          0.785              1.421              0.884
 Vibration    20          0.842              1.280              0.693
 Vibration    21          0.906              1.138              0.543

 Optimization completed.
    -- Stationary point found.
 Normal termination of Gaussian 16 at Mon Feb 22 15:32:03 2021.
