 Gaussian 16, Revision A.03,
 Gaussian 16:  ES64L-G16RevA.03 25-Dec-2016

 ----------------------------------------------------------------------
 # wB97XD def2tzvp, opt=(ts, noeigen, calcfc, maxcycles=70, maxstep=1),
  freq=noraman, scrf=(iefpcm, solvent=water)
 ----------------------------------------------------------------------

 ------------------------
 0_iteration/TS-707-0.out
 ------------------------
 Symbolic Z-matrix:
 Charge =  0 Multiplicity = 1

 SCF Done:  E(RwB97XD) =  -5529.71600040     A.U. after   15 cycles
 SCF Done:  E(RwB97XD) =  -5529.71593574     A.U. after   11 cycles
 SCF Done:  E(RwB97XD) =  -5529.71587517     A.U. after   10 cycles
 SCF Done:  E(RwB97XD) =  -5529.71581847     A.U. after   10 cycles
 SCF Done:  E(RwB97XD) =  -5529.71576593     A.U. after   10 cycles
 SCF Done:  E(RwB97XD) =  -5529.71571772     A.U. after   10 cycles
 SCF Done:  E(RwB97XD) =  -5529.71567406     A.U. after   10 cycles
 SCF Done:  E(RwB97XD) =  -5529.71563502     A.U. after   10 cycles
 SCF Done:  E(RwB97XD) =  -5529.71560063     A.U. after   10 cycles
 SCF Done:  E(RwB97XD) =  -5529.71557090     A.U. after   10 cycles
 SCF Done:  E(RwB97XD) =  -5529.71749911     A.U. after   10 cycles
 SCF Done:  E(RwB97XD) =  -5529.71754476     A.U. after   10 cycles
 SCF Done:  E(RwB97XD) =  -5529.71757910     A.U. after   10 cycles
 SCF Done:  E(RwB97XD) =  -5529.71760183     A.U. after   10 cycles
 SCF Done:  E(RwB97XD) =  -5529.71761366     A.U. after   10 cycles
 SCF Done:  E(RwB97XD) =  -5529.71761622     A.U. after    9 cycles
 SCF Done:  E(RwB97XD) =  -5529.71761668     A.U. after    8 cycles
 SCF Done:  E(RwB97XD) =  -5529.71761703     A.U. after    7 cycles
 SCF Done:  E(RwB97XD) =  -5529.71761731     A.U. after    6 cycles
 Optimization completed.
    -- Stationary point found.
 Normal termination of Gaussian 16 at Sun Feb 21 19:33:05 2021.

 ---------------------------------------------------------------------
 #N Geom=AllCheck Guess=TCheck SCRF=Check GenChk RwB97XD/def2TZVP Freq
 ---------------------------------------------------------------------

 Structure from the checkpoint file:  "/beegfs/scratch/user/q/tla25/Gau-29857.chk"
 ------------------------
 0_iteration/TS-707-0.out
 ------------------------
 Charge =  0 Multiplicity = 1

                         Standard orientation:
 ---------------------------------------------------------------------
 Center     Atomic      Atomic             Coordinates (Angstroms)
 Number     Number       Type             X           Y           Z
 ---------------------------------------------------------------------
      1          6           0        0.707972    0.148241   -0.322108
      2          6           0        1.909246    0.855940   -0.744486
      3          8           0        1.890047    2.009515   -1.188025
      4          6           0       -0.548904    0.723944   -0.216627
      5          6           0        0.147671    1.757417    2.307789
      6          1           0        0.080789    2.808039    2.035746
      7          1           0        0.111584    1.663196    3.392531
      8          1           0        1.095953    1.355016    1.946698
      9          7           0       -0.933325    1.018416    1.669390
     10          1           0       -1.019148    0.084426    2.053709
     11          1           0       -1.830695    1.479481    1.766584
     12         35           0       -2.102859   -0.445179   -0.542809
     13          6           0       -0.849380    2.098808   -0.747778
     14          1           0       -0.135008    2.819081   -0.361176
     15          1           0       -0.759344    2.095308   -1.833079
     16          1           0       -1.862842    2.391853   -0.481227
     17         35           0        0.923964   -1.634205    0.358016
     18          7           0        3.095975    0.191036   -0.682907
     19          1           0        3.201383   -0.685348   -0.207406
     20          1           0        3.920103    0.718993   -0.906532
 ---------------------------------------------------------------------

 SCF Done:  E(RwB97XD) =  -5529.71761731     A.U. after    1 cycles

 The electronic state is 1-A.
 Alpha  occ. eigenvalues -- -483.12896-483.12880 -62.67756 -62.67713 -56.46864
 Alpha  occ. eigenvalues --  -56.46816 -56.46523 -56.46506 -56.46481 -56.46476
 Alpha  occ. eigenvalues --  -19.20132 -14.48900 -14.43936 -10.40493 -10.38984
 Alpha  occ. eigenvalues --  -10.31867 -10.31394 -10.28798  -8.81869  -8.81826
 Alpha  occ. eigenvalues --   -6.63994  -6.63932  -6.62916  -6.62866  -6.62863
 Alpha  occ. eigenvalues --   -6.62848  -2.74381  -2.74329  -2.74085  -2.74044
 Alpha  occ. eigenvalues --   -2.74019  -2.74002  -2.73170  -2.73170  -2.73141
 Alpha  occ. eigenvalues --   -2.73140  -1.13060  -1.04483  -0.99708  -0.95108
 Alpha  occ. eigenvalues --   -0.89122  -0.84544  -0.79272  -0.78934  -0.71705
 Alpha  occ. eigenvalues --   -0.64482  -0.63529  -0.60213  -0.58070  -0.56136
 Alpha  occ. eigenvalues --   -0.55588  -0.53213  -0.50947  -0.50425  -0.49711
 Alpha  occ. eigenvalues --   -0.48175  -0.45787  -0.45211  -0.43836  -0.39964
 Alpha  occ. eigenvalues --   -0.39130  -0.37220  -0.36238  -0.35063  -0.33538
 Alpha  occ. eigenvalues --   -0.28044
 Alpha virt. eigenvalues --    0.02780   0.06081   0.09573   0.10117   0.13117
 Alpha virt. eigenvalues --    0.14260   0.14968   0.15185   0.16952   0.17756
 Alpha virt. eigenvalues --    0.19486   0.19724   0.20327   0.21367   0.21770

 Mulliken charges:
               1
     1  C   -0.216865
     2  C    0.308617
     3  O   -0.527683
     4  C    0.116311
     5  C   -0.301689
     6  H    0.161723
     7  H    0.161945
     8  H    0.156251
     9  N   -0.336647
    10  H    0.286268
    11  H    0.293410
    12  Br  -0.119990
    13  C   -0.345452
    14  H    0.152135
    15  H    0.151148
    16  H    0.147822
    17  Br  -0.158813
    18  N   -0.465489
    19  H    0.268208
    20  H    0.268792
 Sum of Mulliken charges =  -0.00000

 Dipole moment (field-independent basis, Debye):
    X=             -2.0484    Y=              1.2236    Z=              6.8060  Tot=              7.2121
 Quadrupole moment (field-independent basis, Debye-Ang):
   XX=            -78.3526   YY=            -88.8091   ZZ=            -80.3561
   XY=            -10.4763   XZ=             -0.8609   YZ=              8.9699

  Exact polarizability: 198.935  -0.578 173.768  -8.604  -1.999 149.295
 Approx polarizability: 154.304   0.691 147.679  -5.745  -4.299 126.523

 ******    1 imaginary frequencies (negative Signs) ******

                      1                      2                      3
                      A                      A                      A
 Frequencies --   -365.3443                52.9067                55.6623
 Red. masses --      5.5174                 6.5530                 4.6573
 Frc consts  --      0.4339                 0.0108                 0.0085
 IR Inten    --    692.5148                 6.1783                17.3794

                      4                      5                      6
                      A                      A                      A
 Frequencies --     67.9585               120.4390               138.8939
 Red. masses --      2.2410                 2.7749                22.0400
 Frc consts  --      0.0061                 0.0237                 0.2505
 IR Inten    --      1.7142                16.7417                 8.0435

                      7                      8                      9
                      A                      A                      A
 Frequencies --    164.2727               168.9648               176.5808
 Red. masses --      1.9231                 1.2848                 2.0102
 Frc consts  --      0.0306                 0.0216                 0.0369
 IR Inten    --      2.6276               270.9160                11.4737

                     10                     11                     12
                      A                      A                      A
 Frequencies --    222.9453               265.2044               279.5307
 Red. masses --      5.3613                 1.5404                 3.5184
 Frc consts  --      0.1570                 0.0638                 0.1620
 IR Inten    --      5.3196                 7.1171                10.3258

                     13                     14                     15
                      A                      A                      A
 Frequencies --    296.7402               309.6451               344.6795
 Red. masses --      2.7033                 3.1826                 2.8557
 Frc consts  --      0.1402                 0.1798                 0.1999
 IR Inten    --     13.4803                 7.2819                 6.7956

                     16                     17                     18
                      A                      A                      A
 Frequencies --    388.2797               432.3462               508.6540
 Red. masses --      5.7376                 4.0663                 2.7473
 Frc consts  --      0.5096                 0.4478                 0.4188
 IR Inten    --      6.4967                48.9790                66.7862

                     19                     20                     21
                      A                      A                      A
 Frequencies --    541.1800               589.6491               668.4649
 Red. masses --      1.2651                 2.7764                 1.4906
 Frc consts  --      0.2183                 0.5688                 0.3924
 IR Inten    --     13.1244               104.9630                45.0971

                     22                     23                     24
                      A                      A                      A
 Frequencies --    737.4931               780.4834               955.1266
 Red. masses --      3.8642                 7.3598                 4.9085
 Frc consts  --      1.2383                 2.6415                 2.6383
 IR Inten    --     78.8865                41.4287                56.7939

                     25                     26                     27
                      A                      A                      A
 Frequencies --    998.0456              1031.6039              1060.1359
 Red. masses --      1.0856                 1.1361                 1.5800
 Frc consts  --      0.6371                 0.7124                 1.0463
 IR Inten    --     20.3717                68.6596               142.0279

                     28                     29                     30
                      A                      A                      A
 Frequencies --   1065.1327              1082.0897              1102.6086
 Red. masses --      1.7163                 3.8393                 1.8012
 Frc consts  --      1.1472                 2.6487                 1.2902
 IR Inten    --     10.8194                 4.3626                54.6842

                     31                     32                     33
                      A                      A                      A
 Frequencies --   1124.5758              1215.1839              1339.2917
 Red. masses --      3.7259                 1.3982                 1.3344
 Frc consts  --      2.7763                 1.2165                 1.4102
 IR Inten    --     93.8944                30.0003                 0.2693

                     34                     35                     36
                      A                      A                      A
 Frequencies --   1369.4653              1414.0141              1431.8326
 Red. masses --      4.1142                 1.6757                 1.9984
 Frc consts  --      4.5461                 1.9740                 2.4139
 IR Inten    --    546.7173               573.1143               448.9874

                     37                     38                     39
                      A                      A                      A
 Frequencies --   1453.3076              1463.0688              1486.3894
 Red. masses --      1.0947                 1.1569                 1.2095
 Frc consts  --      1.3623                 1.4590                 1.5744
 IR Inten    --     45.9140                15.8826                82.0656

                     40                     41                     42
                      A                      A                      A
 Frequencies --   1493.0922              1502.5841              1613.9893
 Red. masses --      1.0463                 1.0340                 1.4708
 Frc consts  --      1.3743                 1.3755                 2.2575
 IR Inten    --     33.8825                18.6154               365.1026

                     43                     44                     45
                      A                      A                      A
 Frequencies --   1641.5159              1661.8623              3065.6300
 Red. masses --      1.0902                 3.9178                 1.0346
 Frc consts  --      1.7308                 6.3750                 5.7286
 IR Inten    --     54.3927               573.7235                33.5698

                     46                     47                     48
                      A                      A                      A
 Frequencies --   3085.3588              3140.2228              3161.6432
 Red. masses --      1.0361                 1.1033                 1.1032
 Frc consts  --      5.8112                 6.4099                 6.4973
 IR Inten    --     13.5530                 9.5487                12.1092

                     49                     50                     51
                      A                      A                      A
 Frequencies --   3172.1779              3189.2604              3523.6978
 Red. masses --      1.1050                 1.1020                 1.0507
 Frc consts  --      6.5514                 6.6042                 7.6862
 IR Inten    --     12.8001                 2.4653                50.2786

                     52                     53                     54
                      A                      A                      A
 Frequencies --   3606.8638              3633.3236              3760.6646
 Red. masses --      1.0967                 1.0453                 1.1049
 Frc consts  --      8.4059                 8.1302                 9.2066
 IR Inten    --     54.5875                80.2887                99.7224

 - Thermochemistry -
 -------------------
 Temperature   298.150 Kelvin.  Pressure   1.00000 Atm.
 Atom     1 has atomic number  6 and mass  12.00000

 Molecular mass:   271.91599 amu.
 Principal axes and moments of inertia in atomic units:
                           1         2         3
     Eigenvalues --  2330.299533314.399694141.82314
           X            0.99942   0.00427  -0.03382
           Y           -0.00217   0.99808   0.06189
           Z            0.03402  -0.06178   0.99751
 This molecule is an asymmetric top.
 Rotational symmetry number  1.
 Warning -- assumption of classical behavior for rotation
           may cause significant error
 Rotational temperatures (Kelvin)      0.03717     0.02613     0.02091
 Rotational constants (GHZ):           0.77447     0.54452     0.43574
    1 imaginary frequencies ignored.
 Zero-point vibrational energy     407655.8 (Joules/Mol)
                                   97.43208 (Kcal/Mol)
 Warning -- explicit consideration of  19 degrees of freedom as
           vibrations may cause significant error
 Vibrational temperatures:     76.12    80.09    97.78   173.28   199.84
          (Kelvin)            236.35   243.10   254.06   320.77   381.57
                              402.18   426.94   445.51   495.92   558.65
                              622.05   731.84   778.64   848.37   961.77
                             1061.09  1122.94  1374.21  1435.96  1484.25
                             1525.30  1532.49  1556.89  1586.41  1618.01
                             1748.38  1926.94  1970.36  2034.45  2060.09
                             2090.99  2105.03  2138.58  2148.23  2161.88
                             2322.17  2361.78  2391.05  4410.76  4439.14
                             4518.08  4548.90  4564.06  4588.63  5069.82
                             5189.47  5227.54  5410.76

 Zero-point correction=                           0.155268 (Hartree/Particle)
 Thermal correction to Energy=                    0.168190
 Thermal correction to Enthalpy=                  0.169134
 Thermal correction to Gibbs Free Energy=         0.114233
 Sum of electronic and zero-point Energies=          -5529.562349
 Sum of electronic and thermal Energies=             -5529.549427
 Sum of electronic and thermal Enthalpies=           -5529.548483
 Sum of electronic and thermal Free Energies=        -5529.603384

                     E (Thermal)             CV                S
                      KCal/Mol        Cal/Mol-Kelvin    Cal/Mol-Kelvin
 Total                  105.541             44.007            115.549
 Electronic               0.000              0.000              0.000
 Translational            0.889              2.981             42.700
 Rotational               0.889              2.981             31.837
 Vibrational            103.763             38.045             41.012
 Vibration     1          0.596              1.976              4.706
 Vibration     2          0.596              1.975              4.605
 Vibration     3          0.598              1.969              4.212
 Vibration     4          0.609              1.932              3.093
 Vibration     5          0.615              1.914              2.819
 Vibration     6          0.623              1.886              2.500
 Vibration     7          0.625              1.881              2.447
 Vibration     8          0.628              1.871              2.364
 Vibration     9          0.649              1.806              1.935
 Vibration    10          0.671              1.737              1.627
 Vibration    11          0.680              1.711              1.537
 Vibration    12          0.690              1.680              1.435
 Vibration    13          0.699              1.655              1.364
 Vibration    14          0.723              1.586              1.190
 Vibration    15          0.756              1.495              1.007
 Vibration    16          0.793              1.400              0.851
 Vibration    17          0.864              1.231              0.637
 Vibration    18          0.896              1.159              0.563
 Vibration    19          0.947              1.054              0.468

 Optimization completed.
    -- Stationary point found.
 Normal termination of Gaussian 16 at Sun Feb 21 19:53:14 2021.
