 Gaussian 16, Revision A.03,
 Gaussian 16:  ES64L-G16RevA.03 25-Dec-2016

 ----------------------------------------------------------------------
 # wB97XD def2tzvp, opt=(ts, noeigen, calcfc, maxcycles=70, maxstep=3),
  freq=noraman, scrf=(iefpcm, solvent=water)
 ----------------------------------------------------------------------

 ------------------------
 3_iteration/TS-887-3.out
 ------------------------
 Symbolic Z-matrix:
 Charge =  0 Multiplicity = 1

 SCF Done:  E(RwB97XD) =  -1304.20102994     A.U. after   14 cycles
 Optimization completed.
    -- Stationary point found.
 Normal termination of Gaussian 16 at Sat Feb 27 05:48:25 2021.

 ---------------------------------------------------------------------
 #N Geom=AllCheck Guess=TCheck SCRF=Check GenChk RwB97XD/def2TZVP Freq
 ---------------------------------------------------------------------

 Structure from the checkpoint file:  "/beegfs/scratch/user/q/tla25/Gau-87315.chk"
 ------------------------
 3_iteration/TS-887-3.out
 ------------------------
 Charge =  0 Multiplicity = 1

                         Standard orientation:
 ---------------------------------------------------------------------
 Center     Atomic      Atomic             Coordinates (Angstroms)
 Number     Number       Type             X           Y           Z
 ---------------------------------------------------------------------
      1          6           0        0.932970   -0.430720   -0.283530
      2          6           0       -0.419970   -0.940311   -0.272910
      3          8           0       -0.752540   -2.125561   -0.380140
      4          6           0        2.037060   -1.291300   -0.382920
      5          6           0        1.885580   -2.006160    2.286200
      6          1           0        2.219080   -1.787840    3.299390
      7          1           0        0.919530   -1.529220    2.112570
      8          1           0        1.780700   -3.080960    2.163690
      9          7           0        2.827900   -1.491870    1.296620
     10          1           0        3.131670   -0.552380    1.529670
     11          1           0        3.658270   -2.069500    1.218560
     12         17           0        3.504320   -0.551520   -1.161540
     13          6           0        1.933780   -2.731450   -0.805710
     14          1           0        1.241750   -3.267740   -0.164600
     15          1           0        1.543140   -2.777920   -1.821430
     16          1           0        2.914570   -3.203680   -0.785800
     17          6           0        1.163379    1.032740   -0.079690
     18          6           0        1.207879    1.911150   -1.164110
     19          6           0        1.402679    3.271120   -0.979910
     20          6           0        1.558099    3.785690    0.300450
     21          6           0        1.508169    2.931790    1.391420
     22          6           0        1.307189    1.571280    1.199790
     23          1           0        1.088059    1.512400   -2.164210
     24          1           0        1.433849    3.931820   -1.837390
     25          1           0        1.711439    4.847530    0.446040
     26          1           0        1.618619    3.323660    2.394810
     27          1           0        1.239659    0.919340    2.063270
     28          7           0       -1.394241    0.043469   -0.136780
     29          6           0       -2.781420   -0.070971   -0.088250
     30          6           0       -3.484990   -1.275031   -0.178440
     31          6           0       -4.872070   -1.271331   -0.115990
     32          6           0       -5.586640   -0.093561    0.034690
     33          6           0       -4.888741    1.104279    0.124070
     34          6           0       -3.507961    1.117359    0.063740
     35          1           0       -1.052261    0.985709   -0.055050
     36          1           0       -2.941240   -2.197281   -0.295740
     37          1           0       -5.398440   -2.215611   -0.187740
     38          1           0       -6.667740   -0.105782    0.081800
     39          1           0       -5.422631    2.039169    0.242130
     40          1           0       -2.976691    2.060019    0.135090
 ---------------------------------------------------------------------

 SCF Done:  E(RwB97XD) =  -1304.20102994     A.U. after    1 cycles

 The electronic state is 1-A.
 Alpha  occ. eigenvalues -- -101.69077 -19.19605 -14.49800 -14.45493 -10.40407
 Alpha  occ. eigenvalues --  -10.38093 -10.33524 -10.32094 -10.30042 -10.29116
 Alpha  occ. eigenvalues --  -10.29059 -10.29029 -10.28997 -10.28838 -10.28793
 Alpha  occ. eigenvalues --  -10.28668 -10.28530 -10.28268 -10.27963 -10.27807
 Alpha  occ. eigenvalues --  -10.26267  -9.57694  -7.32297  -7.31498  -7.31455
 Alpha  occ. eigenvalues --   -1.12688  -1.05557  -1.03281  -0.97606  -0.95928
 Alpha  occ. eigenvalues --   -0.95047  -0.88617  -0.85169  -0.85079  -0.84801
 Alpha  occ. eigenvalues --   -0.84213  -0.79804  -0.79583  -0.73314  -0.71116
 Alpha  occ. eigenvalues --   -0.70413  -0.69753  -0.67281  -0.64201  -0.63826
 Alpha  occ. eigenvalues --   -0.62066  -0.61463  -0.58938  -0.58001  -0.56830
 Alpha  occ. eigenvalues --   -0.56248  -0.54600  -0.54255  -0.53152  -0.52594
 Alpha  occ. eigenvalues --   -0.51802  -0.51377  -0.51056  -0.50818  -0.49866
 Alpha  occ. eigenvalues --   -0.49655  -0.48664  -0.47776  -0.46555  -0.46421
 Alpha  occ. eigenvalues --   -0.46074  -0.44588  -0.44408  -0.42715  -0.42585
 Alpha  occ. eigenvalues --   -0.42387  -0.39611  -0.39141  -0.38971  -0.34491
 Alpha  occ. eigenvalues --   -0.33846  -0.33524  -0.31948  -0.30120  -0.26669
 Alpha virt. eigenvalues --    0.04264   0.04858   0.05439   0.05627   0.07542
 Alpha virt. eigenvalues --    0.09313   0.10126   0.12258   0.13321   0.13827
 Alpha virt. eigenvalues --    0.14292   0.14336   0.15313   0.16536   0.16634

 Mulliken charges:
               1
     1  C   -0.286769
     2  C    0.417861
     3  O   -0.556930
     4  C    0.158323
     5  C   -0.328591
     6  H    0.169344
     7  H    0.160990
     8  H    0.170103
     9  N   -0.287546
    10  H    0.286583
    11  H    0.294005
    12  Cl  -0.145253
    13  C   -0.349844
    14  H    0.152122
    15  H    0.145036
    16  H    0.142802
    17  C    0.089190
    18  C   -0.219163
    19  C   -0.146198
    20  C   -0.123976
    21  C   -0.166509
    22  C   -0.271743
    23  H    0.136892
    24  H    0.141105
    25  H    0.144062
    26  H    0.141193
    27  H    0.169122
    28  N   -0.252532
    29  C    0.287764
    30  C   -0.297138
    31  C   -0.115000
    32  C   -0.201161
    33  C   -0.103354
    34  C   -0.317403
    35  H    0.245156
    36  H    0.158488
    37  H    0.138783
    38  H    0.138601
    39  H    0.141174
    40  H    0.140414
 Sum of Mulliken charges =   0.00000

 Dipole moment (field-independent basis, Debye):
    X=              6.6453    Y=              0.9449    Z=              5.6135  Tot=              8.7501
 Quadrupole moment (field-independent basis, Debye-Ang):
   XX=           -123.5431   YY=           -118.9997   ZZ=           -124.0868
   XY=            -15.1167   XZ=             13.3374   YZ=             -7.0657

  Exact polarizability: 386.145  -3.018 344.251   1.670   0.118 262.743
 Approx polarizability: 283.018   3.101 282.343   0.665   0.452 228.357

 ******    1 imaginary frequencies (negative Signs) ******

                      1                      2                      3
                      A                      A                      A
 Frequencies --   -365.9631                22.7977                26.3144
 Red. masses --      5.7602                 4.2415                 4.4239
 Frc consts  --      0.4545                 0.0013                 0.0018
 IR Inten    --    969.1554                 1.8988                 0.8572

                      4                      5                      6
                      A                      A                      A
 Frequencies --     39.1327                52.1804                63.4581
 Red. masses --      4.0375                 5.1687                 5.7192
 Frc consts  --      0.0036                 0.0083                 0.0136
 IR Inten    --      3.0027                 0.1117                12.1949

                      7                      8                      9
                      A                      A                      A
 Frequencies --     68.1489                96.3861               102.7399
 Red. masses --      5.1994                 4.9079                 4.6639
 Frc consts  --      0.0142                 0.0269                 0.0290
 IR Inten    --      2.8312                 1.0928                 1.5522

                     10                     11                     12
                      A                      A                      A
 Frequencies --    137.0880               182.1761               199.7004
 Red. masses --      2.5581                 4.2277                 2.7027
 Frc consts  --      0.0283                 0.0827                 0.0635
 IR Inten    --      5.5381                 1.1210                 7.6809

                     13                     14                     15
                      A                      A                      A
 Frequencies --    206.7953               224.7239               241.6281
 Red. masses --      1.4422                 3.7419                 4.4935
 Frc consts  --      0.0363                 0.1113                 0.1546
 IR Inten    --      5.9113                14.2677                 1.8641

                     16                     17                     18
                      A                      A                      A
 Frequencies --    248.3957               280.0147               288.8492
 Red. masses --      4.5270                 2.9039                 1.3935
 Frc consts  --      0.1646                 0.1341                 0.0685
 IR Inten    --     11.2068                14.3934                10.4933

                     19                     20                     21
                      A                      A                      A
 Frequencies --    311.7146               348.6094               380.1058
 Red. masses --      2.9696                 5.2305                 4.5458
 Frc consts  --      0.1700                 0.3745                 0.3870
 IR Inten    --     24.7378                33.1424                 4.6242

                     22                     23                     24
                      A                      A                      A
 Frequencies --    395.5925               401.3149               424.7630
 Red. masses --      4.1053                 4.3376                 3.0093
 Frc consts  --      0.3785                 0.4116                 0.3199
 IR Inten    --      8.0600                41.7762                 0.0047

                     25                     26                     27
                      A                      A                      A
 Frequencies --    426.2493               446.1777               525.8908
 Red. masses --      2.8866                 3.5220                 2.6309
 Frc consts  --      0.3090                 0.4131                 0.4287
 IR Inten    --      0.1009                 7.2846                32.9352

                     28                     29                     30
                      A                      A                      A
 Frequencies --    541.9657               561.7574               570.3363
 Red. masses --      3.5554                 1.4654                 3.1716
 Frc consts  --      0.6153                 0.2725                 0.6078
 IR Inten    --     46.6279                39.8001               122.2934

                     31                     32                     33
                      A                      A                      A
 Frequencies --    590.6582               635.2176               640.2578
 Red. masses --      4.4593                 6.3752                 6.4778
 Frc consts  --      0.9166                 1.5156                 1.5645
 IR Inten    --     85.0294                 3.3909                 1.4541

                     34                     35                     36
                      A                      A                      A
 Frequencies --    668.0622               685.6514               719.5707
 Red. masses --      3.0406                 5.1777                 1.8990
 Frc consts  --      0.7995                 1.4341                 0.5793
 IR Inten    --     68.2175                10.5421                60.8756

                     37                     38                     39
                      A                      A                      A
 Frequencies --    727.4963               734.4485               782.6168
 Red. masses --      1.7896                 1.6058                 1.8227
 Frc consts  --      0.5580                 0.5103                 0.6578
 IR Inten    --    257.5764                23.2337                70.6745

                     40                     41                     42
                      A                      A                      A
 Frequencies --    788.3538               800.1737               858.5190
 Red. masses --      6.7038                 2.3831                 3.9683
 Frc consts  --      2.4548                 0.8990                 1.7233
 IR Inten    --     73.5242                11.9657                62.1966

                     43                     44                     45
                      A                      A                      A
 Frequencies --    862.0324               875.6713               884.0671
 Red. masses --      1.2826                 6.0521                 1.2488
 Frc consts  --      0.5616                 2.7343                 0.5751
 IR Inten    --      1.4082                 1.2145                 0.0620

                     46                     47                     48
                      A                      A                      A
 Frequencies --    930.1247               959.1493               992.7838
 Red. masses --      1.4712                 1.4758                 3.9615
 Frc consts  --      0.7499                 0.7999                 2.3005
 IR Inten    --     14.5575                17.8658                83.9390

                     49                     50                     51
                      A                      A                      A
 Frequencies --    999.9309              1014.2433              1014.7634
 Red. masses --      1.3402                 1.2912                 1.3007
 Frc consts  --      0.7895                 0.7826                 0.7891
 IR Inten    --      0.0230                 2.5276                 9.0762

                     52                     53                     54
                      A                      A                      A
 Frequencies --   1017.8771              1019.1518              1027.5000
 Red. masses --      2.7095                 1.6855                 4.9776
 Frc consts  --      1.6540                 1.0314                 3.0963
 IR Inten    --      7.0889                11.4644                 3.3957

                     55                     56                     57
                      A                      A                      A
 Frequencies --   1031.7363              1051.8726              1056.5446
 Red. masses --      1.3261                 1.3334                 2.1272
 Frc consts  --      0.8317                 0.8692                 1.3991
 IR Inten    --      0.7348                 0.5337                 5.0993

                     58                     59                     60
                      A                      A                      A
 Frequencies --   1061.4529              1072.2188              1075.2943
 Red. masses --      2.0595                 1.7678                 1.4898
 Frc consts  --      1.3671                 1.1975                 1.0149
 IR Inten    --     55.1157                56.1522               132.3042

                     61                     62                     63
                      A                      A                      A
 Frequencies --   1082.2265              1109.7333              1116.8653
 Red. masses --      3.5037                 1.5607                 1.5487
 Frc consts  --      2.4177                 1.1324                 1.1382
 IR Inten    --      7.7262                21.0552                19.9835

                     64                     65                     66
                      A                      A                      A
 Frequencies --   1139.2522              1179.9303              1183.6257
 Red. masses --      2.8439                 1.1179                 1.1349
 Frc consts  --      2.1747                 0.9170                 0.9368
 IR Inten    --     33.5395                 4.3950                 0.1137

                     67                     68                     69
                      A                      A                      A
 Frequencies --   1206.0029              1207.9139              1235.6267
 Red. masses --      1.1749                 1.1218                 2.7865
 Frc consts  --      1.0068                 0.9644                 2.5066
 IR Inten    --     65.1537                 0.2290               143.1411

                     70                     71                     72
                      A                      A                      A
 Frequencies --   1237.5752              1271.8604              1304.1693
 Red. masses --      1.5130                 2.8485                 4.5630
 Frc consts  --      1.3653                 2.7148                 4.5726
 IR Inten    --    131.3577               658.8844                 1.7856

                     73                     74                     75
                      A                      A                      A
 Frequencies --   1322.1343              1338.1997              1341.2700
 Red. masses --      5.6805                 1.4894                 2.3294
 Frc consts  --      5.8504                 1.5715                 2.4690
 IR Inten    --    559.1000               199.5104               469.2746

                     76                     77                     78
                      A                      A                      A
 Frequencies --   1356.3944              1359.2094              1408.6176
 Red. masses --      1.4551                 1.9009                 1.6780
 Frc consts  --      1.5773                 2.0691                 1.9617
 IR Inten    --      3.0448                10.9221               303.7408

                     79                     80                     81
                      A                      A                      A
 Frequencies --   1437.9640              1461.1054              1466.0118
 Red. masses --      1.9096                 1.2743                 1.0763
 Frc consts  --      2.3264                 1.6029                 1.3629
 IR Inten    --    284.3137               109.3288                34.8419

                     82                     83                     84
                      A                      A                      A
 Frequencies --   1475.8600              1486.0561              1487.1961
 Red. masses --      1.9918                 1.9857                 1.1802
 Frc consts  --      2.5562                 2.5836                 1.5380
 IR Inten    --    228.8286                10.4977                50.4900

                     85                     86                     87
                      A                      A                      A
 Frequencies --   1499.4700              1506.0669              1542.2505
 Red. masses --      1.0424                 1.0375                 2.4023
 Frc consts  --      1.3809                 1.3866                 3.3665
 IR Inten    --     16.9983                15.6129                90.5386

                     88                     89                     90
                      A                      A                      A
 Frequencies --   1544.7770              1566.1990              1643.0937
 Red. masses --      2.5401                 1.9630                 5.5246
 Frc consts  --      3.5713                 2.8371                 8.7877
 IR Inten    --    252.4245               449.9909                 4.4961

                     91                     92                     93
                      A                      A                      A
 Frequencies --   1647.1122              1655.2614              1670.5708
 Red. masses --      1.0926                 6.1950                 4.8800
 Frc consts  --      1.7464                10.0005                 8.0241
 IR Inten    --     85.5705               133.8729               104.4563

                     94                     95                     96
                      A                      A                      A
 Frequencies --   1671.2240              1683.6782              3070.3411
 Red. masses --      5.1656                 5.6464                 1.0348
 Frc consts  --      8.5004                 9.4307                 5.7475
 IR Inten    --     16.9559               744.6514                29.9758

                     97                     98                     99
                      A                      A                      A
 Frequencies --   3083.4070              3147.7215              3157.6556
 Red. masses --      1.0376                 1.1034                 1.1033
 Frc consts  --      5.8123                 6.4412                 6.4815
 IR Inten    --     18.6330                 5.6875                19.5421

                    100                    101                    102
                      A                      A                      A
 Frequencies --   3180.0494              3182.9614              3186.9929
 Red. masses --      1.1050                 1.0880                 1.0875
 Frc consts  --      6.5837                 6.4947                 6.5078
 IR Inten    --     10.6783                15.9134                11.1589

                    103                    104                    105
                      A                      A                      A
 Frequencies --   3192.5436              3193.6152              3196.0813
 Red. masses --      1.0873                 1.0881                 1.1001
 Frc consts  --      6.5291                 6.5389                 6.6211
 IR Inten    --      1.6664                 4.2385                 2.2612

                    106                    107                    108
                      A                      A                      A
 Frequencies --   3202.2674              3203.6840              3209.5923
 Red. masses --      1.0910                 1.0929                 1.0950
 Frc consts  --      6.5916                 6.6091                 6.6463
 IR Inten    --     11.2355                31.1694                42.3014

                    109                    110                    111
                      A                      A                      A
 Frequencies --   3220.0340              3220.8296              3271.7194
 Red. masses --      1.0978                 1.0988                 1.0924
 Frc consts  --      6.7064                 6.7160                 6.8895
 IR Inten    --     25.1103                19.0683                 7.0202

                    112                    113                    114
                      A                      A                      A
 Frequencies --   3513.2309              3593.3427              3643.0932
 Red. masses --      1.0512                 1.0966                 1.0761
 Frc consts  --      7.6446                 8.3422                 8.4145
 IR Inten    --     54.3596                67.9067               109.3333

 - Thermochemistry -
 -------------------
 Temperature   298.150 Kelvin.  Pressure   1.00000 Atm.
 Atom     1 has atomic number  6 and mass  12.00000

 Molecular mass:   302.11859 amu.
 Principal axes and moments of inertia in atomic units:
                           1         2         3
     Eigenvalues --  4386.805399414.22078**********
           X            0.99990  -0.00890   0.01081
           Y            0.00903   0.99989  -0.01216
           Z           -0.01070   0.01225   0.99987
 This molecule is an asymmetric top.
 Rotational symmetry number  1.
 Warning -- assumption of classical behavior for rotation
           may cause significant error
 Rotational temperatures (Kelvin)      0.01974     0.00920     0.00727
 Rotational constants (GHZ):           0.41140     0.19170     0.15144
    1 imaginary frequencies ignored.
 Zero-point vibrational energy     866731.0 (Joules/Mol)
                                  207.15369 (Kcal/Mol)
 Warning -- explicit consideration of  30 degrees of freedom as
           vibrations may cause significant error
 Vibrational temperatures:     32.80    37.86    56.30    75.08    91.30
          (Kelvin)             98.05   138.68   147.82   197.24   262.11
                              287.32   297.53   323.33   347.65   357.39
                              402.88   415.59   448.49   501.57   546.89
                              569.17   577.40   611.14   613.28   641.95
                              756.64   779.77   808.24   820.59   849.83
                              913.94   921.19   961.19   986.50  1035.30
                             1046.70  1056.71  1126.01  1134.27  1151.27
                             1235.22  1240.27  1259.90  1271.98  1338.24
                             1380.00  1428.39  1438.68  1459.27  1460.02
                             1464.50  1466.33  1478.34  1484.44  1513.41
                             1520.13  1527.19  1542.68  1547.11  1557.08
                             1596.66  1606.92  1639.13  1697.66  1702.97
                             1735.17  1737.92  1777.79  1780.59  1829.92
                             1876.41  1902.26  1925.37  1929.79  1951.55
                             1955.60  2026.69  2068.91  2102.20  2109.26
                             2123.43  2138.10  2139.74  2157.40  2166.89
                             2218.95  2222.59  2253.41  2364.05  2369.83
                             2381.55  2403.58  2404.52  2422.44  4417.54
                             4436.33  4528.87  4543.16  4575.38  4579.57
                             4585.37  4593.36  4594.90  4598.45  4607.35
                             4609.39  4617.89  4632.91  4634.06  4707.27
                             5054.76  5170.02  5241.60

 Zero-point correction=                           0.330120 (Hartree/Particle)
 Thermal correction to Energy=                    0.349907
 Thermal correction to Enthalpy=                  0.350851
 Thermal correction to Gibbs Free Energy=         0.279694
 Sum of electronic and zero-point Energies=          -1303.870910
 Sum of electronic and thermal Energies=             -1303.851123
 Sum of electronic and thermal Enthalpies=           -1303.850179
 Sum of electronic and thermal Free Energies=        -1303.921336

                     E (Thermal)             CV                S
                      KCal/Mol        Cal/Mol-Kelvin    Cal/Mol-Kelvin
 Total                  219.570             75.353            149.763
 Electronic               0.000              0.000              0.000
 Translational            0.889              2.981             43.014
 Rotational               0.889              2.981             34.553
 Vibrational            217.792             69.392             72.196
 Vibration     1          0.593              1.985              6.374
 Vibration     2          0.593              1.985              6.090
 Vibration     3          0.594              1.981              5.303
 Vibration     4          0.596              1.977              4.733
 Vibration     5          0.597              1.972              4.347
 Vibration     6          0.598              1.969              4.206
 Vibration     7          0.603              1.952              3.526
 Vibration     8          0.605              1.947              3.402
 Vibration     9          0.614              1.916              2.844
 Vibration    10          0.630              1.864              2.306
 Vibration    11          0.638              1.840              2.136
 Vibration    12          0.641              1.830              2.072
 Vibration    13          0.649              1.803              1.921
 Vibration    14          0.658              1.777              1.791
 Vibration    15          0.662              1.765              1.742
 Vibration    16          0.680              1.711              1.534
 Vibration    17          0.685              1.694              1.481
 Vibration    18          0.700              1.651              1.353
 Vibration    19          0.726              1.578              1.172
 Vibration    20          0.750              1.513              1.039
 Vibration    21          0.762              1.480              0.979
 Vibration    22          0.767              1.467              0.958
 Vibration    23          0.787              1.416              0.876
 Vibration    24          0.788              1.413              0.871
 Vibration    25          0.805              1.369              0.807
 Vibration    26          0.881              1.193              0.596
 Vibration    27          0.897              1.157              0.561
 Vibration    28          0.917              1.114              0.520
 Vibration    29          0.926              1.095              0.504
 Vibration    30          0.948              1.052              0.466

 Optimization completed.
    -- Stationary point found.
 Normal termination of Gaussian 16 at Sat Feb 27 08:24:57 2021.
