 Gaussian 16, Revision A.03,
 Gaussian 16:  ES64L-G16RevA.03 25-Dec-2016

 ----------------------------------------------------------------------
 # wB97XD def2tzvp, opt=(ts, noeigen, calcfc, maxcycles=70, maxstep=8),
  freq=noraman, scrf=(iefpcm, solvent=water)
 ----------------------------------------------------------------------

 ------------------------
 1_iteration/TS-894-1.out
 ------------------------
 Symbolic Z-matrix:
 Charge =  0 Multiplicity = 1

 SCF Done:  E(RwB97XD) =  -920.712569007     A.U. after   15 cycles
 SCF Done:  E(RwB97XD) =  -920.713190718     A.U. after   12 cycles
 SCF Done:  E(RwB97XD) =  -920.713211990     A.U. after   11 cycles
 SCF Done:  E(RwB97XD) =  -920.713238393     A.U. after   10 cycles
 SCF Done:  E(RwB97XD) =  -920.713239793     A.U. after   10 cycles
 SCF Done:  E(RwB97XD) =  -920.713240266     A.U. after    9 cycles
 SCF Done:  E(RwB97XD) =  -920.713240270     A.U. after    6 cycles
 Optimization completed.
    -- Stationary point found.
 Normal termination of Gaussian 16 at Thu Feb 25 15:37:51 2021.

 ---------------------------------------------------------------------
 #N Geom=AllCheck Guess=TCheck SCRF=Check GenChk RwB97XD/def2TZVP Freq
 ---------------------------------------------------------------------

 Structure from the checkpoint file:  "/beegfs/scratch/user/q/tla25/Gau-10587.chk"
 ------------------------
 1_iteration/TS-894-1.out
 ------------------------
 Charge =  0 Multiplicity = 1

                         Standard orientation:
 ---------------------------------------------------------------------
 Center     Atomic      Atomic             Coordinates (Angstroms)
 Number     Number       Type             X           Y           Z
 ---------------------------------------------------------------------
      1          6           0        0.266702    0.682991   -0.025264
      2          6           0        1.301431   -0.291294    0.177222
      3          8           0        1.055051   -1.478798    0.496677
      4          6           0       -1.055161    0.383270    0.327240
      5          6           0       -2.853600   -1.760949   -0.674823
      6          1           0       -2.976208   -2.497624   -1.470429
      7          1           0       -2.910246   -2.270921    0.284173
      8          1           0       -3.659964   -1.031171   -0.739412
      9          7           0       -1.571105   -1.071820   -0.782212
     10          1           0       -0.775139   -1.668143   -0.553410
     11          1           0       -1.423981   -0.683793   -1.706183
     12         17           0       -2.217810    1.629299   -0.193682
     13          6           0       -1.439860   -0.179103    1.668687
     14          1           0       -0.783192   -1.012778    1.906766
     15          1           0       -1.306427    0.602682    2.416997
     16          1           0       -2.478807   -0.502738    1.693901
     17          1           0        0.435690    1.512058   -0.693964
     18          7           0        2.599732    0.099523   -0.024412
     19          6           0        2.959182    1.458477   -0.357579
     20          6           0        3.649331   -0.884347   -0.160803
     21          1           0        2.354809    2.165825    0.208048
     22          1           0        4.004876    1.619561   -0.094084
     23          1           0        2.842050    1.673228   -1.426530
     24          1           0        3.246864   -1.868505    0.057194
     25          1           0        4.055785   -0.881132   -1.178073
     26          1           0        4.467711   -0.672458    0.532465
 ---------------------------------------------------------------------

 SCF Done:  E(RwB97XD) =  -920.713240270     A.U. after    1 cycles

 The electronic state is 1-A.
 Alpha  occ. eigenvalues -- -101.69529 -19.19093 -14.47729 -14.44600 -10.39741
 Alpha  occ. eigenvalues --  -10.36702 -10.31612 -10.30382 -10.29875 -10.28105
 Alpha  occ. eigenvalues --  -10.24327  -9.58130  -7.32744  -7.31930  -7.31889
 Alpha  occ. eigenvalues --   -1.11607  -1.03734  -1.02032  -0.97035  -0.86374
 Alpha  occ. eigenvalues --   -0.82447  -0.80406  -0.79042  -0.76418  -0.66735
 Alpha  occ. eigenvalues --   -0.62927  -0.61243  -0.58644  -0.56931  -0.56027
 Alpha  occ. eigenvalues --   -0.55284  -0.54998  -0.53365  -0.50006  -0.49500
 Alpha  occ. eigenvalues --   -0.48127  -0.47771  -0.47559  -0.46850  -0.46122
 Alpha  occ. eigenvalues --   -0.45442  -0.44521  -0.43443  -0.39578  -0.38642
 Alpha  occ. eigenvalues --   -0.33176  -0.31237  -0.26653
 Alpha virt. eigenvalues --    0.06112   0.09259   0.10885   0.12324   0.13923
 Alpha virt. eigenvalues --    0.15329   0.15681   0.16794   0.17643   0.17915
 Alpha virt. eigenvalues --    0.18639   0.19197   0.19326   0.19902   0.20591

 Mulliken charges:
               1
     1  C   -0.558387
     2  C    0.373014
     3  O   -0.621910
     4  C    0.251095
     5  C   -0.295306
     6  H    0.154088
     7  H    0.159989
     8  H    0.148011
     9  N   -0.310574
    10  H    0.271945
    11  H    0.273531
    12  Cl  -0.135054
    13  C   -0.416814
    14  H    0.158506
    15  H    0.143656
    16  H    0.143787
    17  H    0.145863
    18  N   -0.115786
    19  C   -0.303779
    20  C   -0.279407
    21  H    0.145469
    22  H    0.140093
    23  H    0.133354
    24  H    0.142233
    25  H    0.123108
    26  H    0.129275
 Sum of Mulliken charges =  -0.00000

 Dipole moment (field-independent basis, Debye):
    X=             -2.0451    Y=             -0.9422    Z=             -2.8954  Tot=              3.6679
 Quadrupole moment (field-independent basis, Debye-Ang):
   XX=            -62.7478   YY=            -77.6688   ZZ=            -72.0790
   XY=             12.4410   XZ=             -0.5200   YZ=              3.3489

  Exact polarizability: 219.146   7.298 163.837   4.201  -0.659 134.386
 Approx polarizability: 155.804   3.402 137.763   3.467  -2.049 115.160

 ******    1 imaginary frequencies (negative Signs) ******

                      1                      2                      3
                      A                      A                      A
 Frequencies --   -391.2275                52.5429                75.8074
 Red. masses --      5.9605                 2.7683                 3.1056
 Frc consts  --      0.5375                 0.0045                 0.0105
 IR Inten    --    930.9165                12.1574                 4.0942

                      4                      5                      6
                      A                      A                      A
 Frequencies --     93.8781               105.2085               132.0172
 Red. masses --      2.7160                 1.5219                 2.2793
 Frc consts  --      0.0141                 0.0099                 0.0234
 IR Inten    --      2.5834                 4.7438                20.0504

                      7                      8                      9
                      A                      A                      A
 Frequencies --    147.1595               173.2735               194.2442
 Red. masses --      1.8872                 1.6397                 2.1661
 Frc consts  --      0.0241                 0.0290                 0.0482
 IR Inten    --     10.4202                24.5928                 3.9159

                     10                     11                     12
                      A                      A                      A
 Frequencies --    215.0422               219.9760               263.1064
 Red. masses --      2.0774                 1.6470                 2.7801
 Frc consts  --      0.0566                 0.0470                 0.1134
 IR Inten    --      0.9719                 2.3422                 4.9947

                     13                     14                     15
                      A                      A                      A
 Frequencies --    276.4141               290.7336               303.2638
 Red. masses --      2.5941                 1.7763                 2.1936
 Frc consts  --      0.1168                 0.0885                 0.1189
 IR Inten    --     30.2065                 8.8374                10.8857

                     16                     17                     18
                      A                      A                      A
 Frequencies --    354.1781               393.9572               435.6649
 Red. masses --      3.5631                 3.9278                 2.6010
 Frc consts  --      0.2633                 0.3592                 0.2909
 IR Inten    --      7.0550                24.4510                 7.0207

                     19                     20                     21
                      A                      A                      A
 Frequencies --    468.4207               506.6726               622.1799
 Red. masses --      2.8926                 4.2247                 1.9164
 Frc consts  --      0.3740                 0.6390                 0.4371
 IR Inten    --     73.4990                13.9148               111.5336

                     22                     23                     24
                      A                      A                      A
 Frequencies --    626.4754               685.8254               739.2176
 Red. masses --      2.1130                 1.9036                 2.0028
 Frc consts  --      0.4886                 0.5275                 0.6448
 IR Inten    --     95.1020                25.2877                53.6633

                     25                     26                     27
                      A                      A                      A
 Frequencies --    781.8497               888.6746               950.6189
 Red. masses --      9.0927                 4.8177                 2.5601
 Frc consts  --      3.2748                 2.2417                 1.3631
 IR Inten    --    117.0969                16.8555               177.7004

                     28                     29                     30
                      A                      A                      A
 Frequencies --   1031.7391              1038.5559              1054.6312
 Red. masses --      1.2476                 1.8013                 1.3999
 Frc consts  --      0.7824                 1.1447                 0.9174
 IR Inten    --     17.3415                26.9032                59.6838

                     31                     32                     33
                      A                      A                      A
 Frequencies --   1066.9437              1087.6811              1099.7215
 Red. masses --      1.5124                 1.4109                 2.2330
 Frc consts  --      1.0144                 0.9834                 1.5911
 IR Inten    --    267.5325                 6.8504                39.6946

                     34                     35                     36
                      A                      A                      A
 Frequencies --   1117.4296              1132.1347              1169.9004
 Red. masses --      1.7935                 1.2344                 1.4527
 Frc consts  --      1.3194                 0.9322                 1.1715
 IR Inten    --    314.7436                 3.8701                43.5089

                     37                     38                     39
                      A                      A                      A
 Frequencies --   1199.3043              1221.7253              1312.1733
 Red. masses --      1.8708                 1.4097                 5.2629
 Frc consts  --      1.5854                 1.2398                 5.3389
 IR Inten    --    133.7348                56.6898                26.9539

                     40                     41                     42
                      A                      A                      A
 Frequencies --   1332.4210              1348.0257              1402.6261
 Red. masses --      1.8526                 1.3154                 1.4803
 Frc consts  --      1.9378                 1.4084                 1.7159
 IR Inten    --    166.4414                16.5284                60.5934

                     43                     44                     45
                      A                      A                      A
 Frequencies --   1429.1001              1432.3954              1447.0252
 Red. masses --      1.5636                 1.6896                 1.4600
 Frc consts  --      1.8815                 2.0424                 1.8012
 IR Inten    --     44.8135               194.5847               532.3273

                     46                     47                     48
                      A                      A                      A
 Frequencies --   1461.7431              1476.5574              1485.3349
 Red. masses --      1.2844                 1.2548                 1.0610
 Frc consts  --      1.6169                 1.6119                 1.3791
 IR Inten    --    158.8258               171.7161                40.5356

                     49                     50                     51
                      A                      A                      A
 Frequencies --   1487.0710              1493.1953              1494.0164
 Red. masses --      1.1152                 1.0450                 1.0655
 Frc consts  --      1.4529                 1.3728                 1.4012
 IR Inten    --    126.8961                19.1853                35.5483

                     52                     53                     54
                      A                      A                      A
 Frequencies --   1498.6653              1507.0368              1509.8162
 Red. masses --      1.0658                 1.1173                 1.0655
 Frc consts  --      1.4103                 1.4951                 1.4310
 IR Inten    --     40.2371                28.2695                48.7446

                     55                     56                     57
                      A                      A                      A
 Frequencies --   1534.6056              1596.2853              1653.8973
 Red. masses --      1.4531                 5.6427                 1.0880
 Frc consts  --      2.0162                 8.4715                 1.7535
 IR Inten    --    273.9471               630.1778                44.5581

                     58                     59                     60
                      A                      A                      A
 Frequencies --   3014.5956              3022.1875              3063.3081
 Red. masses --      1.0485                 1.0451                 1.0356
 Frc consts  --      5.6143                 5.6238                 5.7256
 IR Inten    --     79.8340               155.6751                55.8204

                     61                     62                     63
                      A                      A                      A
 Frequencies --   3075.1235              3076.4266              3102.5824
 Red. masses --      1.0362                 1.0991                 1.0864
 Frc consts  --      5.7733                 6.1289                 6.1614
 IR Inten    --     18.3862                74.4848                43.6143

                     64                     65                     66
                      A                      A                      A
 Frequencies --   3138.1997              3147.3739              3150.7098
 Red. masses --      1.1030                 1.1031                 1.1016
 Frc consts  --      6.3999                 6.4380                 6.4428
 IR Inten    --     16.7554                19.7545                18.7055

                     67                     68                     69
                      A                      A                      A
 Frequencies --   3169.0132              3179.2634              3187.0957
 Red. masses --      1.1047                 1.1033                 1.0952
 Frc consts  --      6.5362                 6.5706                 6.5545
 IR Inten    --     15.8884                 1.9565                 5.0785

                     70                     71                     72
                      A                      A                      A
 Frequencies --   3240.0575              3443.4099              3583.6075
 Red. masses --      1.0890                 1.0614                 1.0879
 Frc consts  --      6.7357                 7.4151                 8.2315
 IR Inten    --      1.3516               101.8580                58.9080

 - Thermochemistry -
 -------------------
 Temperature   298.150 Kelvin.  Pressure   1.00000 Atm.
 Atom     1 has atomic number  6 and mass  12.00000

 Molecular mass:   178.08729 amu.
 Principal axes and moments of inertia in atomic units:
                           1         2         3
     Eigenvalues --  1203.284043359.074863998.70131
           X            0.99883   0.04770  -0.00801
           Y           -0.04761   0.99880   0.01144
           Z            0.00854  -0.01105   0.99990
 This molecule is an asymmetric top.
 Rotational symmetry number  1.
 Warning -- assumption of classical behavior for rotation
           may cause significant error
 Rotational temperatures (Kelvin)      0.07198     0.02579     0.02166
 Rotational constants (GHZ):           1.49985     0.53727     0.45133
    1 imaginary frequencies ignored.
 Zero-point vibrational energy     584442.3 (Joules/Mol)
                                  139.68505 (Kcal/Mol)
 Warning -- explicit consideration of  19 degrees of freedom as
           vibrations may cause significant error
 Vibrational temperatures:     75.60   109.07   135.07   151.37   189.94
          (Kelvin)            211.73   249.30   279.47   309.40   316.50
                              378.55   397.70   418.30   436.33   509.58
                              566.82   626.82   673.95   728.99   895.18
                              901.36   986.75  1063.57  1124.91  1278.60
                             1367.73  1484.44  1494.25  1517.38  1535.09
                             1564.93  1582.25  1607.73  1628.89  1683.23
                             1725.53  1757.79  1887.92  1917.06  1939.51
                             2018.07  2056.16  2060.90  2081.95  2103.12
                             2124.44  2137.07  2139.56  2148.37  2149.56
                             2156.25  2168.29  2172.29  2207.96  2296.70
                             2379.59  4337.33  4348.25  4407.42  4424.42
                             4426.29  4463.92  4515.17  4528.37  4533.17
                             4559.50  4574.25  4585.52  4661.72  4954.30
                             5156.01

 Zero-point correction=                           0.222602 (Hartree/Particle)
 Thermal correction to Energy=                    0.236342
 Thermal correction to Enthalpy=                  0.237287
 Thermal correction to Gibbs Free Energy=         0.182326
 Sum of electronic and zero-point Energies=           -920.490638
 Sum of electronic and thermal Energies=              -920.476898
 Sum of electronic and thermal Enthalpies=            -920.475954
 Sum of electronic and thermal Free Energies=         -920.530914

                     E (Thermal)             CV                S
                      KCal/Mol        Cal/Mol-Kelvin    Cal/Mol-Kelvin
 Total                  148.307             48.672            115.674
 Electronic               0.000              0.000              0.000
 Translational            0.889              2.981             41.438
 Rotational               0.889              2.981             31.158
 Vibrational            146.530             42.711             43.077
 Vibration     1          0.596              1.977              4.719
 Vibration     2          0.599              1.965              3.997
 Vibration     3          0.603              1.954              3.578
 Vibration     4          0.605              1.945              3.355
 Vibration     5          0.612              1.921              2.916
 Vibration     6          0.617              1.906              2.709
 Vibration     7          0.627              1.875              2.400
 Vibration     8          0.635              1.848              2.187
 Vibration     9          0.645              1.818              2.000
 Vibration    10          0.647              1.811              1.959
 Vibration    11          0.670              1.740              1.641
 Vibration    12          0.678              1.717              1.556
 Vibration    13          0.687              1.691              1.470
 Vibration    14          0.695              1.668              1.399
 Vibration    15          0.730              1.567              1.148
 Vibration    16          0.761              1.483              0.985
 Vibration    17          0.796              1.392              0.840
 Vibration    18          0.826              1.320              0.742
 Vibration    19          0.862              1.235              0.642

 Optimization completed.
    -- Stationary point found.
 Normal termination of Gaussian 16 at Thu Feb 25 16:03:58 2021.
