 Gaussian 16, Revision A.03,
 Gaussian 16:  ES64L-G16RevA.03 25-Dec-2016

 ----------------------------------------------------------------------
 # wB97XD def2tzvp, opt=(ts, noeigen, calcfc, maxcycles=70, maxstep=8),
  freq=noraman, scrf=(iefpcm, solvent=water)
 ----------------------------------------------------------------------

 ------------------------
 1_iteration/TS-871-1.out
 ------------------------
 Symbolic Z-matrix:
 Charge =  0 Multiplicity = 1

 SCF Done:  E(RwB97XD) =  -3607.44452289     A.U. after   14 cycles
 Optimization completed.
    -- Stationary point found.
 Normal termination of Gaussian 16 at Thu Feb 25 15:30:40 2021.

 ---------------------------------------------------------------------
 #N Geom=AllCheck Guess=TCheck SCRF=Check GenChk RwB97XD/def2TZVP Freq
 ---------------------------------------------------------------------

 Structure from the checkpoint file:  "/beegfs/scratch/user/q/tla25/Gau-50991.chk"
 ------------------------
 1_iteration/TS-871-1.out
 ------------------------
 Charge =  0 Multiplicity = 1

                         Standard orientation:
 ---------------------------------------------------------------------
 Center     Atomic      Atomic             Coordinates (Angstroms)
 Number     Number       Type             X           Y           Z
 ---------------------------------------------------------------------
      1          6           0       -1.040921   -0.131070   -0.308710
      2          6           0        0.260558    0.510900   -0.322250
      3          8           0        0.361768    1.726741   -0.512340
      4          6           0       -2.146182    0.667919   -0.518340
      5          6           0       -3.701103    2.595138    1.001570
      6          1           0       -3.371493    3.321308    0.259640
      7          1           0       -4.639983    2.154528    0.673480
      8          1           0       -3.858393    3.105138    1.952570
      9          7           0       -2.693342    1.543459    1.115590
     10          1           0       -1.804473    1.909159    1.437990
     11          1           0       -2.979752    0.807269    1.750900
     12         17           0       -3.672451   -0.027112   -1.012270
     13          1           0       -1.949472    1.606369   -1.017980
     14         35           0       -1.252970   -1.927220    0.288390
     15          7           0        1.351399   -0.296159   -0.128700
     16          6           0        2.708109    0.039302   -0.073140
     17          6           0        3.209468    1.324472   -0.282400
     18          6           0        4.577358    1.549513   -0.205510
     19          6           0        5.462698    0.520714    0.073360
     20          6           0        4.962489   -0.758507    0.278860
     21          6           0        3.602789   -0.998097    0.207750
     22          1           0        1.150609   -1.272159    0.016350
     23          1           0        2.530867    2.131512   -0.502690
     24          1           0        4.950537    2.552983   -0.370020
     25          1           0        6.526718    0.709904    0.129240
     26          1           0        5.634680   -1.578766    0.497490
     27          1           0        3.223670   -2.000358    0.371340
 ---------------------------------------------------------------------

 SCF Done:  E(RwB97XD) =  -3607.44452289     A.U. after    1 cycles

 The electronic state is 1-A.
 Alpha  occ. eigenvalues -- -483.13262-101.70822 -62.68091 -56.47198 -56.46862
 Alpha  occ. eigenvalues --  -56.46848 -19.21234 -14.48603 -14.46797 -10.39645
 Alpha  occ. eigenvalues --  -10.39478 -10.34000 -10.31949 -10.31380 -10.29121
 Alpha  occ. eigenvalues --  -10.28965 -10.28952 -10.28341 -10.28309  -9.59398
 Alpha  occ. eigenvalues --   -8.82205  -7.34049  -7.33186  -7.33134  -6.64326
 Alpha  occ. eigenvalues --   -6.63249  -6.63204  -2.74722  -2.74412  -2.74375
 Alpha  occ. eigenvalues --   -2.73505  -2.73504  -1.14280  -1.04545  -1.04293
 Alpha  occ. eigenvalues --   -0.98324  -0.95724  -0.91481  -0.85254  -0.85037
 Alpha  occ. eigenvalues --   -0.83273  -0.78954  -0.75037  -0.71669  -0.68723
 Alpha  occ. eigenvalues --   -0.65063  -0.63958  -0.62960  -0.60265  -0.58015
 Alpha  occ. eigenvalues --   -0.56495  -0.55298  -0.54231  -0.53106  -0.52620
 Alpha  occ. eigenvalues --   -0.52123  -0.51494  -0.50491  -0.48336  -0.47938
 Alpha  occ. eigenvalues --   -0.47099  -0.46232  -0.44818  -0.42952  -0.41500
 Alpha  occ. eigenvalues --   -0.40334  -0.39899  -0.39193  -0.37950  -0.34453
 Alpha  occ. eigenvalues --   -0.33826  -0.30604  -0.27436
 Alpha virt. eigenvalues --    0.03332   0.05311   0.06186   0.08003   0.09967
 Alpha virt. eigenvalues --    0.12194   0.12914   0.14087   0.14755   0.15432
 Alpha virt. eigenvalues --    0.16189   0.16942   0.17575   0.18069   0.18750

 Mulliken charges:
               1
     1  C   -0.235063
     2  C    0.426253
     3  O   -0.543302
     4  C   -0.016409
     5  C   -0.272963
     6  H    0.152118
     7  H    0.150402
     8  H    0.153944
     9  N   -0.341809
    10  H    0.285381
    11  H    0.285492
    12  Cl  -0.083260
    13  H    0.189806
    14  Br  -0.137739
    15  N   -0.276830
    16  C    0.301740
    17  C   -0.294795
    18  C   -0.109935
    19  C   -0.195637
    20  C   -0.099001
    21  C   -0.308446
    22  H    0.238784
    23  H    0.162283
    24  H    0.141756
    25  H    0.141088
    26  H    0.143932
    27  H    0.142212
 Sum of Mulliken charges =  -0.00000

 Dipole moment (field-independent basis, Debye):
    X=             -4.2706    Y=              1.7533    Z=              4.4195  Tot=              6.3909
 Quadrupole moment (field-independent basis, Debye-Ang):
   XX=            -91.0062   YY=           -100.5100   ZZ=           -107.7413
   XY=            -17.5051   XZ=             -8.7133   YZ=              4.3675

  Exact polarizability: 340.212 -14.051 250.809   0.723  -6.095 158.138
 Approx polarizability: 238.825  -4.091 213.403   2.232  -7.765 142.449

 ******    1 imaginary frequencies (negative Signs) ******

                      1                      2                      3
                      A                      A                      A
 Frequencies --   -363.9481                13.1740                28.2232
 Red. masses --      6.7087                 3.8278                 5.5934
 Frc consts  --      0.5236                 0.0004                 0.0026
 IR Inten    --   1166.7700                 1.0674                 3.4608

                      4                      5                      6
                      A                      A                      A
 Frequencies --     44.7102                65.9020                73.7365
 Red. masses --      5.3243                 2.5819                 3.5975
 Frc consts  --      0.0063                 0.0066                 0.0115
 IR Inten    --      5.6815                10.7082                 2.4217

                      7                      8                      9
                      A                      A                      A
 Frequencies --     79.4731               111.9855               140.7309
 Red. masses --      8.3574                 5.5259                10.8304
 Frc consts  --      0.0311                 0.0408                 0.1264
 IR Inten    --      7.3711                 9.1977                 0.4269

                     10                     11                     12
                      A                      A                      A
 Frequencies --    180.0654               191.0111               199.3146
 Red. masses --      1.3321                 5.7604                 5.4531
 Frc consts  --      0.0254                 0.1238                 0.1276
 IR Inten    --      7.0851                15.3226                 9.7629

                     13                     14                     15
                      A                      A                      A
 Frequencies --    234.8959               248.5677               324.6237
 Red. masses --      4.3284                 4.6025                 4.0867
 Frc consts  --      0.1407                 0.1675                 0.2537
 IR Inten    --     12.5049                 1.3808                 5.3747

                     16                     17                     18
                      A                      A                      A
 Frequencies --    364.0198               398.8391               422.2197
 Red. masses --      7.6568                10.1243                 3.0740
 Frc consts  --      0.5978                 0.9489                 0.3229
 IR Inten    --      8.4089                 2.9943                 8.4470

                     19                     20                     21
                      A                      A                      A
 Frequencies --    427.7622               527.0158               543.9743
 Red. masses --      7.4217                 2.7777                 5.6568
 Frc consts  --      0.8001                 0.4546                 0.9862
 IR Inten    --    153.9447                30.0241                54.6128

                     22                     23                     24
                      A                      A                      A
 Frequencies --    570.7984               609.5046               635.6206
 Red. masses --      1.1515                 3.0477                 6.0600
 Frc consts  --      0.2210                 0.6671                 1.4425
 IR Inten    --     96.0057                 3.6076                 1.2820

                     25                     26                     27
                      A                      A                      A
 Frequencies --    668.6180               718.2274               757.8595
 Red. masses --      2.0805                 1.8923                 5.3857
 Frc consts  --      0.5480                 0.5751                 1.8225
 IR Inten    --     32.7476                63.3890                79.6466

                     28                     29                     30
                      A                      A                      A
 Frequencies --    763.4804               784.2364               861.7250
 Red. masses --      9.2168                 1.8208                 1.2602
 Frc consts  --      3.1654                 0.6598                 0.5514
 IR Inten    --     35.4297               101.8759                 0.0426

                     31                     32                     33
                      A                      A                      A
 Frequencies --    868.0659               876.3692               933.1027
 Red. masses --      4.5607                 5.0842                 1.4636
 Frc consts  --      2.0248                 2.3006                 0.7508
 IR Inten    --     63.3825                43.8036                12.8985

                     34                     35                     36
                      A                      A                      A
 Frequencies --   1001.9071              1010.4564              1018.0390
 Red. masses --      1.3490                 1.1027                 1.2858
 Frc consts  --      0.7979                 0.6634                 0.7851
 IR Inten    --      0.0443                12.7263                 0.6260

                     37                     38                     39
                      A                      A                      A
 Frequencies --   1020.4660              1037.3836              1054.5366
 Red. masses --      5.8002                 1.1246                 3.4134
 Frc consts  --      3.5587                 0.7130                 2.2365
 IR Inten    --      6.7435               118.8024                31.3599

                     40                     41                     42
                      A                      A                      A
 Frequencies --   1068.0109              1077.0598              1123.8412
 Red. masses --      2.6903                 3.5567                 1.5631
 Frc consts  --      1.8080                 2.4310                 1.1632
 IR Inten    --     66.6394               228.0712                11.4453

                     43                     44                     45
                      A                      A                      A
 Frequencies --   1146.6286              1182.8598              1208.9861
 Red. masses --      1.1817                 1.1225                 1.1368
 Frc consts  --      0.9154                 0.9253                 0.9790
 IR Inten    --    141.4963                 3.5376                27.0962

                     46                     47                     48
                      A                      A                      A
 Frequencies --   1216.8471              1226.8929              1271.2601
 Red. masses --      1.3264                 1.3430                 3.2401
 Frc consts  --      1.1572                 1.1911                 3.0852
 IR Inten    --     38.8182                42.2120               426.6159

                     49                     50                     51
                      A                      A                      A
 Frequencies --   1278.2715              1346.1436              1348.9620
 Red. masses --      3.3193                 1.3275                 4.1320
 Frc consts  --      3.1955                 1.4173                 4.4300
 IR Inten    --    139.9972                 5.6060               768.5894

                     52                     53                     54
                      A                      A                      A
 Frequencies --   1361.7254              1429.8666              1466.4117
 Red. masses --      1.5148                 4.4866                 1.2416
 Frc consts  --      1.6549                 5.4046                 1.5731
 IR Inten    --     16.9668               875.6074                41.1994

                     55                     56                     57
                      A                      A                      A
 Frequencies --   1484.0266              1491.5864              1506.6099
 Red. masses --      2.2147                 1.0402                 1.0318
 Frc consts  --      2.8737                 1.3635                 1.3799
 IR Inten    --    303.6676                17.4561                12.1442

                     58                     59                     60
                      A                      A                      A
 Frequencies --   1546.5088              1580.7521              1640.4693
 Red. masses --      2.4296                 2.1848                 1.1174
 Frc consts  --      3.4237                 3.2165                 1.7716
 IR Inten    --    179.9256               882.1513                43.4429

                     61                     62                     63
                      A                      A                      A
 Frequencies --   1657.7346              1668.4013              1681.0221
 Red. masses --      6.7277                 3.4445                 6.2372
 Frc consts  --     10.8930                 5.6491                10.3846
 IR Inten    --    274.0877                94.9066               289.6780

                     64                     65                     66
                      A                      A                      A
 Frequencies --   3068.7333              3145.2549              3170.9995
 Red. masses --      1.0342                 1.1047                 1.1050
 Frc consts  --      5.7380                 6.4387                 6.5466
 IR Inten    --     51.6190                16.0518                11.7500

                     67                     68                     69
                      A                      A                      A
 Frequencies --   3187.3246              3196.6806              3206.6274
 Red. masses --      1.0881                 1.0884                 1.0932
 Frc consts  --      6.5129                 6.5528                 6.6227
 IR Inten    --     13.2712                 2.6341                29.4985

                     70                     71                     72
                      A                      A                      A
 Frequencies --   3217.2918              3221.6381              3274.9193
 Red. masses --      1.0904                 1.0980                 1.0921
 Frc consts  --      6.6496                 6.7143                 6.9010
 IR Inten    --      2.4227                22.8936                 5.8863

                     73                     74                     75
                      A                      A                      A
 Frequencies --   3522.1006              3606.1655              3627.9595
 Red. masses --      1.0507                 1.0969                 1.0763
 Frc consts  --      7.6793                 8.4044                 8.3468
 IR Inten    --     26.2796                52.1461                96.6207

 - Thermochemistry -
 -------------------
 Temperature   298.150 Kelvin.  Pressure   1.00000 Atm.
 Atom     1 has atomic number  6 and mass  12.00000

 Molecular mass:   289.98215 amu.
 Principal axes and moments of inertia in atomic units:
                           1         2         3
     Eigenvalues --  2430.036418959.73159**********
           X            0.99952  -0.03013  -0.00738
           Y            0.03032   0.99918   0.02666
           Z            0.00657  -0.02687   0.99962
 This molecule is an asymmetric top.
 Rotational symmetry number  1.
 Warning -- assumption of classical behavior for rotation
           may cause significant error
 Rotational temperatures (Kelvin)      0.03564     0.00967     0.00809
 Rotational constants (GHZ):           0.74268     0.20143     0.16858
    1 imaginary frequencies ignored.
 Zero-point vibrational energy     551880.5 (Joules/Mol)
                                  131.90261 (Kcal/Mol)
 Warning -- explicit consideration of  22 degrees of freedom as
           vibrations may cause significant error
 Vibrational temperatures:     18.95    40.61    64.33    94.82   106.09
          (Kelvin)            114.34   161.12   202.48   259.07   274.82
                              286.77   337.96   357.63   467.06   523.74
                              573.84   607.48   615.45   758.26   782.66
                              821.25   876.94   914.52   961.99  1033.37
                             1090.39  1098.48  1128.34  1239.83  1248.95
                             1260.90  1342.53  1441.52  1453.82  1464.73
                             1468.22  1492.56  1517.24  1536.63  1549.65
                             1616.96  1649.74  1701.87  1739.46  1750.77
                             1765.23  1829.06  1839.15  1936.80  1940.86
                             1959.22  2057.26  2109.84  2135.18  2146.06
                             2167.68  2225.08  2274.35  2360.27  2385.11
                             2400.46  2418.62  4415.22  4525.32  4562.36
                             4585.85  4599.31  4613.62  4628.97  4635.22
                             4711.88  5067.52  5188.47  5219.82

 Zero-point correction=                           0.210200 (Hartree/Particle)
 Thermal correction to Energy=                    0.225813
 Thermal correction to Enthalpy=                  0.226757
 Thermal correction to Gibbs Free Energy=         0.162924
 Sum of electronic and zero-point Energies=          -3607.234323
 Sum of electronic and thermal Energies=             -3607.218710
 Sum of electronic and thermal Enthalpies=           -3607.217766
 Sum of electronic and thermal Free Energies=        -3607.281599

                     E (Thermal)             CV                S
                      KCal/Mol        Cal/Mol-Kelvin    Cal/Mol-Kelvin
 Total                  141.700             54.962            134.349
 Electronic               0.000              0.000              0.000
 Translational            0.889              2.981             42.892
 Rotational               0.889              2.981             33.810
 Vibrational            139.922             49.001             57.647
 Vibration     1          0.593              1.987              7.463
 Vibration     2          0.593              1.984              5.951
 Vibration     3          0.595              1.980              5.039
 Vibration     4          0.597              1.971              4.272
 Vibration     5          0.599              1.966              4.051
 Vibration     6          0.600              1.963              3.904
 Vibration     7          0.607              1.940              3.234
 Vibration     8          0.615              1.913              2.794
 Vibration     9          0.629              1.867              2.328
 Vibration    10          0.634              1.852              2.218
 Vibration    11          0.637              1.841              2.139
 Vibration    12          0.655              1.787              1.841
 Vibration    13          0.662              1.765              1.741
 Vibration    14          0.709              1.626              1.287
 Vibration    15          0.738              1.546              1.105
 Vibration    16          0.765              1.473              0.967
 Vibration    17          0.785              1.422              0.884
 Vibration    18          0.789              1.410              0.866
 Vibration    19          0.882              1.190              0.594
 Vibration    20          0.899              1.153              0.557
 Vibration    21          0.927              1.094              0.503
 Vibration    22          0.968              1.012              0.434

 Optimization completed.
    -- Stationary point found.
 Normal termination of Gaussian 16 at Thu Feb 25 16:15:59 2021.
