 Gaussian 16, Revision A.03,
 Gaussian 16:  ES64L-G16RevA.03 25-Dec-2016

 ----------------------------------------------------------------------
 # wB97XD def2tzvp, opt=(ts, noeigen, calcfc, maxcycles=70, maxstep=3),
  freq=noraman, scrf=(iefpcm, solvent=water)
 ----------------------------------------------------------------------

 ------------------------
 0_iteration/TS-831-0.out
 ------------------------
 Symbolic Z-matrix:
 Charge =  0 Multiplicity = 1

 SCF Done:  E(RwB97XD) =  -3838.48597054     A.U. after   15 cycles
 SCF Done:  E(RwB97XD) =  -3838.48597058     A.U. after    7 cycles
 Optimization completed.
    -- Stationary point found.
 Normal termination of Gaussian 16 at Mon Apr 12 06:23:21 2021.

 ---------------------------------------------------------------------
 #N Geom=AllCheck Guess=TCheck SCRF=Check GenChk RwB97XD/def2TZVP Freq
 ---------------------------------------------------------------------

 Structure from the checkpoint file:  "/beegfs/scratch/user/q/tla25/Gau-328324.chk"
 ------------------------
 0_iteration/TS-831-0.out
 ------------------------
 Charge =  0 Multiplicity = 1

                         Standard orientation:
 ---------------------------------------------------------------------
 Center     Atomic      Atomic             Coordinates (Angstroms)
 Number     Number       Type             X           Y           Z
 ---------------------------------------------------------------------
      1          6           0       -0.464694   -0.811105   -0.118574
      2          6           0        0.643326    0.103142    0.126691
      3          8           0        0.481568    1.219499    0.616048
      4          6           0       -1.795958   -0.424385    0.025425
      5          6           0       -1.455485   -0.492192    2.823739
      6          1           0       -1.516177    0.582453    2.972120
      7          1           0       -1.672613   -1.006899    3.758848
      8          1           0       -0.446620   -0.745083    2.500659
      9          7           0       -2.385095   -0.902001    1.774576
     10          1           0       -2.403227   -1.913239    1.694997
     11          1           0       -3.338568   -0.606197    1.953934
     12         17           0       -3.023993   -1.435865   -0.823439
     13          6           0       -2.170653    1.022321   -0.174197
     14          6           0       -1.834157    1.582843   -1.406548
     15          6           0       -2.177389    2.887033   -1.709192
     16          6           0       -2.872551    3.657720   -0.786502
     17          6           0       -3.223517    3.103514    0.432216
     18          6           0       -2.881384    1.792130    0.735016
     19          1           0       -1.290360    0.985988   -2.127315
     20          1           0       -1.900448    3.303560   -2.669243
     21          1           0       -3.140827    4.680133   -1.019361
     22          1           0       -3.768776    3.689677    1.160714
     23          1           0       -3.173706    1.407361    1.699867
     24         35           0       -0.079504   -2.673987   -0.343930
     25          7           0        1.888492   -0.347527   -0.244528
     26          6           0        3.135886    0.263264   -0.086893
     27          6           0        3.337483    1.507075    0.513358
     28          6           0        4.624273    2.016553    0.625493
     29          6           0        5.721560    1.316970    0.149831
     30          6           0        5.519953    0.080573   -0.449951
     31          6           0        4.245166   -0.440965   -0.567296
     32          1           0        1.917984   -1.255984   -0.676187
     33          1           0        2.492863    2.063978    0.882543
     34          1           0        4.762516    2.982958    1.094899
     35          1           0        6.718823    1.726816    0.242428
     36          1           0        6.361241   -0.485201   -0.830352
     37          1           0        4.100926   -1.407300   -1.036970
 ---------------------------------------------------------------------

 SCF Done:  E(RwB97XD) =  -3838.48597058     A.U. after    1 cycles

 The electronic state is 1-A.
 Alpha  occ. eigenvalues -- -483.13203-101.70248 -62.68025 -56.47134 -56.46798
 Alpha  occ. eigenvalues --  -56.46782 -19.21017 -14.49829 -14.46539 -10.41731
 Alpha  occ. eigenvalues --  -10.39638 -10.33916 -10.32039 -10.31812 -10.31614
 Alpha  occ. eigenvalues --  -10.29907 -10.29486 -10.29447 -10.29359 -10.29300
 Alpha  occ. eigenvalues --  -10.29063 -10.28902 -10.28873 -10.28268 -10.28215
 Alpha  occ. eigenvalues --   -9.58845  -8.82131  -7.33488  -7.32629  -7.32586
 Alpha  occ. eigenvalues --   -6.64250  -6.63178  -6.63130  -2.74645  -2.74340
 Alpha  occ. eigenvalues --   -2.74300  -2.73434  -2.73432  -1.14267  -1.05628
 Alpha  occ. eigenvalues --   -1.04317  -0.99332  -0.96330  -0.95569  -0.91209
 Alpha  occ. eigenvalues --   -0.87484  -0.85769  -0.85161  -0.84873  -0.81806
 Alpha  occ. eigenvalues --   -0.79597  -0.75360  -0.71911  -0.71326  -0.71015
 Alpha  occ. eigenvalues --   -0.67850  -0.65408  -0.64676  -0.62772  -0.61109
 Alpha  occ. eigenvalues --   -0.58998  -0.58293  -0.57611  -0.56778  -0.54645
 Alpha  occ. eigenvalues --   -0.53984  -0.53413  -0.53145  -0.52403  -0.51769
 Alpha  occ. eigenvalues --   -0.51625  -0.51305  -0.50332  -0.48828  -0.47931
 Alpha  occ. eigenvalues --   -0.47184  -0.46762  -0.46283  -0.44764  -0.44324
 Alpha  occ. eigenvalues --   -0.43346  -0.42867  -0.41530  -0.40251  -0.39745
 Alpha  occ. eigenvalues --   -0.39680  -0.37606  -0.35424  -0.34190  -0.33771
 Alpha  occ. eigenvalues --   -0.32315  -0.30429  -0.27586
 Alpha virt. eigenvalues --    0.02342   0.03567   0.04869   0.05370   0.06646
 Alpha virt. eigenvalues --    0.08003   0.10190   0.11292   0.12542   0.13580
 Alpha virt. eigenvalues --    0.13865   0.14409   0.15235   0.15898   0.16617

 Mulliken charges:
               1
     1  C   -0.352321
     2  C    0.465915
     3  O   -0.515000
     4  C    0.211644
     5  C   -0.287733
     6  H    0.155269
     7  H    0.164604
     8  H    0.158719
     9  N   -0.325127
    10  H    0.285823
    11  H    0.291450
    12  Cl  -0.107819
    13  C    0.260901
    14  C   -0.312177
    15  C   -0.120473
    16  C   -0.152697
    17  C   -0.163955
    18  C   -0.229010
    19  H    0.155015
    20  H    0.145467
    21  H    0.145935
    22  H    0.145196
    23  H    0.139339
    24  Br  -0.141930
    25  N   -0.272828
    26  C    0.304491
    27  C   -0.295513
    28  C   -0.114317
    29  C   -0.195530
    30  C   -0.099107
    31  C   -0.310232
    32  H    0.237683
    33  H    0.161873
    34  H    0.141171
    35  H    0.140564
    36  H    0.143395
    37  H    0.141316
 Sum of Mulliken charges =  -0.00000

 Dipole moment (field-independent basis, Debye):
    X=             -4.3605    Y=             -1.7828    Z=              4.0913  Tot=              6.2395
 Quadrupole moment (field-independent basis, Debye-Ang):
   XX=           -127.4445   YY=           -136.9969   ZZ=           -129.5056
   XY=             -5.4196   XZ=            -18.5260   YZ=             -5.0701

  Exact polarizability: 395.289  -1.969 357.956 -29.792  21.089 273.525
 Approx polarizability: 293.105  -2.928 293.685 -23.242  20.359 239.808

 ******    1 imaginary frequencies (negative Signs) ******

                      1                      2                      3
                      A                      A                      A
 Frequencies --   -350.6394                11.5146                20.9999
 Red. masses --      5.3821                 3.9109                 4.8178
 Frc consts  --      0.3899                 0.0003                 0.0013
 IR Inten    --    816.6297                 1.0526                 1.4907

                      4                      5                      6
                      A                      A                      A
 Frequencies --     32.5793                41.3280                60.2822
 Red. masses --      3.9605                 7.4130                 5.8015
 Frc consts  --      0.0025                 0.0075                 0.0124
 IR Inten    --      0.2726                 1.0149                 1.9672

                      7                      8                      9
                      A                      A                      A
 Frequencies --     69.2624                92.0561               104.3234
 Red. masses --      6.1933                 3.6092                 3.4633
 Frc consts  --      0.0175                 0.0180                 0.0222
 IR Inten    --      5.5937                 6.3608                 0.5234

                     10                     11                     12
                      A                      A                      A
 Frequencies --    130.1296               164.3176               164.6525
 Red. masses --      3.8360                 2.1843                 8.7509
 Frc consts  --      0.0383                 0.0347                 0.1398
 IR Inten    --      6.2349                 2.7090                 0.4234

                     13                     14                     15
                      A                      A                      A
 Frequencies --    193.6082               197.7459               216.8902
 Red. masses --      4.8802                 5.8083                 5.0046
 Frc consts  --      0.1078                 0.1338                 0.1387
 IR Inten    --      5.6910                20.6923                 2.3153

                     16                     17                     18
                      A                      A                      A
 Frequencies --    245.3624               251.5047               267.2455
 Red. masses --      3.9120                 3.7450                 3.4982
 Frc consts  --      0.1388                 0.1396                 0.1472
 IR Inten    --      0.8599                 3.5525                 5.0813

                     19                     20                     21
                      A                      A                      A
 Frequencies --    300.6262               329.6994               359.7554
 Red. masses --      4.1632                 5.2806                 7.9179
 Frc consts  --      0.2217                 0.3382                 0.6038
 IR Inten    --     16.6019                17.8553                 7.9742

                     22                     23                     24
                      A                      A                      A
 Frequencies --    376.3144               404.0813               420.9476
 Red. masses --      7.8635                 8.1234                 2.8967
 Frc consts  --      0.6561                 0.7815                 0.3024
 IR Inten    --     28.6195                10.9070                 0.3023

                     25                     26                     27
                      A                      A                      A
 Frequencies --    422.4206               510.2306               526.3531
 Red. masses --      2.9978                 4.7168                 2.7131
 Frc consts  --      0.3152                 0.7235                 0.4429
 IR Inten    --      0.1734                64.4759                26.3546

                     28                     29                     30
                      A                      A                      A
 Frequencies --    549.8301               567.0727               572.4848
 Red. masses --      4.6587                 2.1280                 1.4755
 Frc consts  --      0.8298                 0.4032                 0.2849
 IR Inten    --     86.9356                25.9125               193.1138

                     31                     32                     33
                      A                      A                      A
 Frequencies --    617.7529               635.7548               640.3031
 Red. masses --      4.6675                 6.3600                 6.3879
 Frc consts  --      1.0495                 1.5146                 1.5430
 IR Inten    --     35.7000                 3.2688                12.4389

                     34                     35                     36
                      A                      A                      A
 Frequencies --    689.7350               718.1141               718.4879
 Red. masses --      2.5131                 2.0822                 1.8915
 Frc consts  --      0.7044                 0.6327                 0.5753
 IR Inten    --     41.4712                 7.5723                65.7990

                     37                     38                     39
                      A                      A                      A
 Frequencies --    725.9750               766.7500               784.2065
 Red. masses --      2.3437                 7.3732                 1.8219
 Frc consts  --      0.7278                 2.5540                 0.6601
 IR Inten    --    260.2659                39.3243               103.5826

                     40                     41                     42
                      A                      A                      A
 Frequencies --    788.1590               839.4360               862.0264
 Red. masses --      2.4533                 5.4110                 1.2597
 Frc consts  --      0.8979                 2.2465                 0.5515
 IR Inten    --     34.6646                58.6636                 0.1837

                     43                     44                     45
                      A                      A                      A
 Frequencies --    866.0659               880.0389               900.2487
 Red. masses --      1.2573                 4.7817                 4.9116
 Frc consts  --      0.5556                 2.1819                 2.3453
 IR Inten    --      0.6741                44.4087                53.2292

                     46                     47                     48
                      A                      A                      A
 Frequencies --    933.8512               954.6925               995.8756
 Red. masses --      1.4652                 1.5397                 1.1248
 Frc consts  --      0.7529                 0.8268                 0.6573
 IR Inten    --     13.2904                 0.2657                30.9781

                     49                     50                     51
                      A                      A                      A
 Frequencies --   1001.3864              1009.6906              1017.9841
 Red. masses --      1.3463                 1.3522                 1.3076
 Frc consts  --      0.7954                 0.8122                 0.7984
 IR Inten    --      0.0316                 1.3481                 0.8965

                     52                     53                     54
                      A                      A                      A
 Frequencies --   1020.1847              1025.0904              1029.2159
 Red. masses --      5.4290                 5.4089                 1.3102
 Frc consts  --      3.3291                 3.3488                 0.8177
 IR Inten    --      4.4347                 1.3991                 0.1902

                     55                     56                     57
                      A                      A                      A
 Frequencies --   1053.8165              1064.2780              1066.0012
 Red. masses --      2.8937                 2.0925                 1.6756
 Frc consts  --      1.8933                 1.3964                 1.1218
 IR Inten    --     14.4246                31.3549                13.7666

                     58                     59                     60
                      A                      A                      A
 Frequencies --   1075.9103              1082.9433              1122.8520
 Red. masses --      3.8168                 2.0333                 1.5805
 Frc consts  --      2.6032                 1.4050                 1.1741
 IR Inten    --     36.1650                86.2653                14.1147

                     61                     62                     63
                      A                      A                      A
 Frequencies --   1128.4881              1182.1396              1186.2266
 Red. masses --      1.5855                 1.1303                 1.1476
 Frc consts  --      1.1896                 0.9306                 0.9514
 IR Inten    --      6.3057                 2.2827                 0.5881

                     64                     65                     66
                      A                      A                      A
 Frequencies --   1200.2829              1209.0584              1222.9356
 Red. masses --      3.3654                 1.1604                 1.1413
 Frc consts  --      2.8566                 0.9994                 1.0057
 IR Inten    --     58.6551                54.0174                 7.4978

                     67                     68                     69
                      A                      A                      A
 Frequencies --   1238.6122              1255.4668              1279.1850
 Red. masses --      1.4068                 2.8681                 3.8169
 Frc consts  --      1.2716                 2.6635                 3.6798
 IR Inten    --     36.5342               888.4986                15.7269

                     70                     71                     72
                      A                      A                      A
 Frequencies --   1319.2105              1340.9463              1345.3121
 Red. masses --      4.7297                 1.3859                 3.4103
 Frc consts  --      4.8497                 1.4683                 3.6366
 IR Inten    --     55.5599                73.1751               599.5783

                     73                     74                     75
                      A                      A                      A
 Frequencies --   1360.7590              1366.6960              1411.4112
 Red. masses --      1.6014                 1.4113                 4.9394
 Frc consts  --      1.7471                 1.5532                 5.7974
 IR Inten    --      1.1546                 4.8294               618.7415

                     76                     77                     78
                      A                      A                      A
 Frequencies --   1470.2021              1480.3166              1485.3877
 Red. masses --      1.2354                 2.0763                 1.0534
 Frc consts  --      1.5733                 2.6807                 1.3694
 IR Inten    --     28.6787               322.8036                 6.0378

                     79                     80                     81
                      A                      A                      A
 Frequencies --   1490.9920              1507.8881              1544.4115
 Red. masses --      2.1988                 1.0405                 2.2955
 Frc consts  --      2.8799                 1.3939                 3.2260
 IR Inten    --     38.7383                14.4199               106.2220

                     82                     83                     84
                      A                      A                      A
 Frequencies --   1547.0829              1570.9072              1649.0729
 Red. masses --      2.4290                 2.0243                 1.6135
 Frc consts  --      3.4253                 2.9433                 2.5852
 IR Inten    --    137.1528               842.2621                74.2490

                     85                     86                     87
                      A                      A                      A
 Frequencies --   1658.1504              1660.4545              1670.1326
 Red. masses --      2.1890                 5.4457                 4.9120
 Frc consts  --      3.5460                 8.8463                 8.0725
 IR Inten    --     33.4946               120.1593                91.6560

                     88                     89                     90
                      A                      A                      A
 Frequencies --   1675.5011              1687.8198              3080.4509
 Red. masses --      5.5209                 7.1858                 1.0336
 Frc consts  --      9.1316                12.0609                 5.7786
 IR Inten    --      1.3849               439.5263                27.3591

                     91                     92                     93
                      A                      A                      A
 Frequencies --   3158.4730              3184.7637              3186.9637
 Red. masses --      1.1045                 1.1050                 1.0881
 Frc consts  --      6.4921                 6.6036                 6.5111
 IR Inten    --      7.4573                11.5479                13.4693

                     94                     95                     96
                      A                      A                      A
 Frequencies --   3196.8327              3199.1705              3206.4426
 Red. masses --      1.0883                 1.0861                 1.0932
 Frc consts  --      6.5529                 6.5495                 6.6221
 IR Inten    --      2.3381                 0.4533                30.3321

                     97                     98                     99
                      A                      A                      A
 Frequencies --   3207.0585              3215.9072              3221.7176
 Red. masses --      1.0893                 1.0937                 1.0980
 Frc consts  --      6.6011                 6.6640                 6.7146
 IR Inten    --      4.3981                21.6305                23.3936

                    100                    101                    102
                      A                      A                      A
 Frequencies --   3224.6172              3247.0041              3276.9507
 Red. masses --      1.0980                 1.0924                 1.0920
 Frc consts  --      6.7267                 6.7856                 6.9091
 IR Inten    --     21.6931                17.5604                 5.7927

                    103                    104                    105
                      A                      A                      A
 Frequencies --   3516.7389              3591.4162              3634.9101
 Red. masses --      1.0517                 1.0955                 1.0765
 Frc consts  --      7.6634                 8.3256                 8.3801
 IR Inten    --     55.0161                52.5092                96.1209

 - Thermochemistry -
 -------------------
 Temperature   298.150 Kelvin.  Pressure   1.00000 Atm.
 Atom     1 has atomic number  6 and mass  12.00000

 Molecular mass:   366.01345 amu.
 Principal axes and moments of inertia in atomic units:
                           1         2         3
     Eigenvalues --  5863.13670********************
           X            0.99985  -0.01376  -0.01057
           Y            0.01358   0.99976  -0.01696
           Z            0.01080   0.01682   0.99980
 This molecule is an asymmetric top.
 Rotational symmetry number  1.
 Warning -- assumption of classical behavior for rotation
           may cause significant error
 Rotational temperatures (Kelvin)      0.01477     0.00806     0.00606
 Rotational constants (GHZ):           0.30781     0.16788     0.12636
    1 imaginary frequencies ignored.
 Zero-point vibrational energy     765519.8 (Joules/Mol)
                                  182.96362 (Kcal/Mol)
 Warning -- explicit consideration of  30 degrees of freedom as
           vibrations may cause significant error
 Vibrational temperatures:     16.57    30.21    46.87    59.46    86.73
          (Kelvin)             99.65   132.45   150.10   187.23   236.42
                              236.90   278.56   284.51   312.06   353.02
                              361.86   384.51   432.53   474.36   517.61
                              541.43   581.38   605.65   607.77   734.11
                              757.30   791.08   815.89   823.68   888.81
                              914.71   921.25   992.37  1033.21  1033.74
                             1044.52  1103.18  1128.30  1133.98  1207.76
                             1240.26  1246.08  1266.18  1295.26  1343.60
                             1373.59  1432.84  1440.77  1452.72  1464.65
                             1467.82  1474.88  1480.81  1516.21  1531.26
                             1533.74  1547.99  1558.11  1615.53  1623.64
                             1700.84  1706.72  1726.94  1739.57  1759.53
                             1782.09  1806.34  1840.46  1898.05  1929.32
                             1935.60  1957.83  1966.37  2030.71  2115.29
                             2129.85  2137.14  2145.20  2169.51  2222.06
                             2225.91  2260.19  2372.65  2385.71  2389.02
                             2402.95  2410.67  2428.40  4432.08  4544.34
                             4582.16  4585.33  4599.53  4602.89  4613.36
                             4614.24  4626.97  4635.33  4639.51  4671.71
                             4714.80  5059.80  5167.25  5229.82

 Zero-point correction=                           0.291571 (Hartree/Particle)
 Thermal correction to Energy=                    0.311562
 Thermal correction to Enthalpy=                  0.312506
 Thermal correction to Gibbs Free Energy=         0.238905
 Sum of electronic and zero-point Energies=          -3838.194399
 Sum of electronic and thermal Energies=             -3838.174409
 Sum of electronic and thermal Enthalpies=           -3838.173465
 Sum of electronic and thermal Free Energies=        -3838.247066

                     E (Thermal)             CV                S
                      KCal/Mol        Cal/Mol-Kelvin    Cal/Mol-Kelvin
 Total                  195.508             74.098            154.907
 Electronic               0.000              0.000              0.000
 Translational            0.889              2.981             43.586
 Rotational               0.889              2.981             35.153
 Vibrational            193.730             68.136             76.169
 Vibration     1          0.593              1.987              7.731
 Vibration     2          0.593              1.986              6.537
 Vibration     3          0.594              1.983              5.666
 Vibration     4          0.594              1.981              5.194
 Vibration     5          0.597              1.973              4.448
 Vibration     6          0.598              1.969              4.174
 Vibration     7          0.602              1.955              3.616
 Vibration     8          0.605              1.946              3.372
 Vibration     9          0.612              1.923              2.944
 Vibration    10          0.623              1.886              2.499
 Vibration    11          0.623              1.886              2.496
 Vibration    12          0.635              1.849              2.193
 Vibration    13          0.637              1.843              2.154
 Vibration    14          0.646              1.815              1.985
 Vibration    15          0.660              1.770              1.764
 Vibration    16          0.663              1.760              1.720
 Vibration    17          0.672              1.733              1.614
 Vibration    18          0.693              1.673              1.413
 Vibration    19          0.712              1.616              1.262
 Vibration    20          0.734              1.555              1.123
 Vibration    21          0.747              1.521              1.054
 Vibration    22          0.769              1.461              0.948
 Vibration    23          0.783              1.425              0.889
 Vibration    24          0.785              1.421              0.884
 Vibration    25          0.865              1.227              0.633
 Vibration    26          0.881              1.192              0.595
 Vibration    27          0.905              1.140              0.545
 Vibration    28          0.923              1.102              0.510
 Vibration    29          0.929              1.091              0.499
 Vibration    30          0.978              0.994              0.420

 Optimization completed.
    -- Stationary point found.
 Normal termination of Gaussian 16 at Mon Apr 12 07:28:31 2021.
