 Gaussian 16, Revision A.03,
 Gaussian 16:  ES64L-G16RevA.03 25-Dec-2016

 ----------------------------------------------------------------------
 # wB97XD def2tzvp, opt=(ts, noeigen, calcfc, maxcycles=70, maxstep=1),
  freq=noraman, scrf=(iefpcm, solvent=water)
 ----------------------------------------------------------------------

 ------------------------
 0_iteration/TS-859-0.out
 ------------------------
 Symbolic Z-matrix:
 Charge =  0 Multiplicity = 1

 SCF Done:  E(RwB97XD) =  -842.092674448     A.U. after   15 cycles
 SCF Done:  E(RwB97XD) =  -842.092647120     A.U. after   10 cycles
 SCF Done:  E(RwB97XD) =  -842.092625418     A.U. after   10 cycles
 SCF Done:  E(RwB97XD) =  -842.092609522     A.U. after   10 cycles
 SCF Done:  E(RwB97XD) =  -842.092599883     A.U. after   10 cycles
 SCF Done:  E(RwB97XD) =  -842.092598463     A.U. after   10 cycles
 SCF Done:  E(RwB97XD) =  -842.092610427     A.U. after   11 cycles
 SCF Done:  E(RwB97XD) =  -842.092628867     A.U. after   10 cycles
 SCF Done:  E(RwB97XD) =  -842.092657094     A.U. after   10 cycles
 SCF Done:  E(RwB97XD) =  -842.092693665     A.U. after    9 cycles
 SCF Done:  E(RwB97XD) =  -842.097263522     A.U. after   10 cycles
 SCF Done:  E(RwB97XD) =  -842.097261643     A.U. after   10 cycles
 SCF Done:  E(RwB97XD) =  -842.097262449     A.U. after   10 cycles
 SCF Done:  E(RwB97XD) =  -842.097259549     A.U. after   10 cycles
 SCF Done:  E(RwB97XD) =  -842.097260504     A.U. after   10 cycles
 SCF Done:  E(RwB97XD) =  -842.097262583     A.U. after   10 cycles
 SCF Done:  E(RwB97XD) =  -842.097264771     A.U. after    9 cycles
 SCF Done:  E(RwB97XD) =  -842.097265547     A.U. after   10 cycles
 SCF Done:  E(RwB97XD) =  -842.097265421     A.U. after    7 cycles
 Optimization completed on the basis of negligible forces.
    -- Stationary point found.
 Normal termination of Gaussian 16 at Wed Feb 24 05:24:46 2021.

 ---------------------------------------------------------------------
 #N Geom=AllCheck Guess=TCheck SCRF=Check GenChk RwB97XD/def2TZVP Freq
 ---------------------------------------------------------------------

 Structure from the checkpoint file:  "/beegfs/scratch/user/q/tla25/Gau-109468.chk"
 ------------------------
 0_iteration/TS-859-0.out
 ------------------------
 Charge =  0 Multiplicity = 1

                         Standard orientation:
 ---------------------------------------------------------------------
 Center     Atomic      Atomic             Coordinates (Angstroms)
 Number     Number       Type             X           Y           Z
 ---------------------------------------------------------------------
      1          6           0        0.499101   -0.488768    0.231232
      2          6           0        1.825331   -0.158565   -0.216688
      3          8           0        2.838110   -0.671793    0.281558
      4          6           0       -0.611851   -0.059496   -0.472536
      5          6           0       -0.605485    2.417663    0.689442
      6          1           0        0.300927    1.977056    1.108553
      7          1           0       -0.355204    2.969141   -0.214458
      8          1           0       -1.046964    3.098537    1.414851
      9          7           0       -1.518594    1.330774    0.355093
     10          1           0       -1.923114    0.917764    1.188314
     11          1           0       -2.280986    1.633599   -0.241156
     12         17           0       -2.026360   -1.167413   -0.603783
     13          1           0       -0.472643    0.418222   -1.432766
     14          6           0        0.368166   -1.355167    1.454928
     15          1           0       -0.602136   -1.218988    1.936854
     16          1           0        0.468922   -2.422954    1.232356
     17          1           0        1.138890   -1.106579    2.185036
     18          7           0        1.998856    0.719140   -1.279807
     19          1           0        2.957643    0.999977   -1.403869
     20          1           0        1.344496    1.471178   -1.407150
 ---------------------------------------------------------------------

 SCF Done:  E(RwB97XD) =  -842.097265421     A.U. after    1 cycles

 The electronic state is 1-A.
 Alpha  occ. eigenvalues -- -101.69375 -19.19331 -14.49879 -14.43025 -10.38624
 Alpha  occ. eigenvalues --  -10.37001 -10.32189 -10.26669 -10.25583  -9.57969
 Alpha  occ. eigenvalues --   -7.32578  -7.31768  -7.31735  -1.11681  -1.05457
 Alpha  occ. eigenvalues --   -0.98409  -0.96031  -0.87101  -0.79705  -0.77958
 Alpha  occ. eigenvalues --   -0.71167  -0.65084  -0.62872  -0.60842  -0.58100
 Alpha  occ. eigenvalues --   -0.56642  -0.55572  -0.51914  -0.50170  -0.49178
 Alpha  occ. eigenvalues --   -0.48517  -0.46921  -0.46057  -0.45202  -0.44732
 Alpha  occ. eigenvalues --   -0.39815  -0.39019  -0.35219  -0.32935  -0.26668
 Alpha virt. eigenvalues --    0.06966   0.08383   0.10095   0.12430   0.13956
 Alpha virt. eigenvalues --    0.15347   0.16139   0.17220   0.17405   0.19671
 Alpha virt. eigenvalues --    0.19787   0.20809   0.21743   0.22911   0.23628

 Mulliken charges:
               1
     1  C   -0.177278
     2  C    0.302480
     3  O   -0.543818
     4  C   -0.110883
     5  C   -0.330500
     6  H    0.166710
     7  H    0.166895
     8  H    0.165925
     9  N   -0.263551
    10  H    0.287848
    11  H    0.295784
    12  Cl  -0.149394
    13  H    0.195152
    14  C   -0.381545
    15  H    0.119351
    16  H    0.117870
    17  H    0.121891
    18  N   -0.499058
    19  H    0.257314
    20  H    0.258807
 Sum of Mulliken charges =  -0.00000

 Dipole moment (field-independent basis, Debye):
    X=             -7.8383    Y=              9.0010    Z=             -0.0488  Tot=             11.9356
 Quadrupole moment (field-independent basis, Debye-Ang):
   XX=            -73.5205   YY=            -54.6989   ZZ=            -60.5499
   XY=              0.6291   XZ=             -6.7174   YZ=             -1.2025

  Exact polarizability: 168.216  -7.294 128.353   4.114  -5.087 108.212
 Approx polarizability: 131.467  -5.734 104.880   5.085  -4.532  93.736

 ******    1 imaginary frequencies (negative Signs) ******

                      1                      2                      3
                      A                      A                      A
 Frequencies --   -383.8444                61.0667                77.3036
 Red. masses --      6.0231                 1.2298                 2.9367
 Frc consts  --      0.5229                 0.0027                 0.0103
 IR Inten    --    845.4664                 0.4937                 7.2042

                      4                      5                      6
                      A                      A                      A
 Frequencies --     85.0466               113.6568               162.8208
 Red. masses --      2.8210                 3.2730                 2.5184
 Frc consts  --      0.0120                 0.0249                 0.0393
 IR Inten    --      2.1028                10.2155                15.3269

                      7                      8                      9
                      A                      A                      A
 Frequencies --    189.3382               213.4968               216.4900
 Red. masses --      4.4345                 1.2152                 4.6341
 Frc consts  --      0.0937                 0.0326                 0.1280
 IR Inten    --      4.2569                 5.7222                 2.5719

                     10                     11                     12
                      A                      A                      A
 Frequencies --    280.9848               332.9425               378.2243
 Red. masses --      2.7380                 3.8480                 6.0553
 Frc consts  --      0.1274                 0.2513                 0.5104
 IR Inten    --     13.1287                40.5015                 7.3625

                     13                     14                     15
                      A                      A                      A
 Frequencies --    404.4795               463.9929               495.0664
 Red. masses --      1.2010                 1.9317                 3.5709
 Frc consts  --      0.1158                 0.2450                 0.5157
 IR Inten    --     95.9044               214.9907                39.2342

                     16                     17                     18
                      A                      A                      A
 Frequencies --    518.3754               602.0921               701.8371
 Red. masses --      1.4606                 2.7055                 2.1941
 Frc consts  --      0.2312                 0.5779                 0.6368
 IR Inten    --    175.0451                55.2963                83.7146

                     19                     20                     21
                      A                      A                      A
 Frequencies --    764.8944               780.5478               830.5987
 Red. masses --      3.9200                 7.3925                 2.5368
 Frc consts  --      1.3513                 2.6536                 1.0311
 IR Inten    --    208.6454                51.7006                32.4632

                     22                     23                     24
                      A                      A                      A
 Frequencies --    995.4771              1021.3298              1050.1066
 Red. masses --      1.5407                 1.1550                 1.2542
 Frc consts  --      0.8996                 0.7099                 0.8149
 IR Inten    --    142.9926                17.3513                37.2984

                     25                     26                     27
                      A                      A                      A
 Frequencies --   1063.4540              1078.5857              1089.7663
 Red. masses --      1.3443                 2.0033                 3.7437
 Frc consts  --      0.8957                 1.3731                 2.6195
 IR Inten    --     29.3261               149.1151                95.9449

                     28                     29                     30
                      A                      A                      A
 Frequencies --   1149.9308              1168.6714              1236.2678
 Red. masses --      1.1571                 1.7767                 1.3683
 Frc consts  --      0.9015                 1.4297                 1.2321
 IR Inten    --     34.8453                40.8393                43.3655

                     31                     32                     33
                      A                      A                      A
 Frequencies --   1303.0180              1344.1055              1405.6089
 Red. masses --      1.4653                 1.3079                 2.0801
 Frc consts  --      1.4658                 1.3922                 2.4214
 IR Inten    --     69.6186                 2.6358               419.6714

                     34                     35                     36
                      A                      A                      A
 Frequencies --   1418.6630              1449.9036              1466.5370
 Red. masses --      1.6339                 1.6722                 1.1649
 Frc consts  --      1.9374                 2.0712                 1.4761
 IR Inten    --    229.0230               124.3955                53.2063

                     37                     38                     39
                      A                      A                      A
 Frequencies --   1474.6207              1500.9560              1505.7980
 Red. masses --      1.3993                 1.0398                 1.0633
 Frc consts  --      1.7927                 1.3802                 1.4205
 IR Inten    --     73.5116                34.0396                42.1840

                     40                     41                     42
                      A                      A                      A
 Frequencies --   1511.7197              1623.1025              1644.4008
 Red. masses --      1.3944                 2.0860                 1.0905
 Frc consts  --      1.8775                 3.2379                 1.7374
 IR Inten    --    265.0898               603.0467                78.9207

                     43                     44                     45
                      A                      A                      A
 Frequencies --   1652.6648              3024.4438              3065.0361
 Red. masses --      2.0027                 1.0467                 1.0346
 Frc consts  --      3.2228                 5.6412                 5.7265
 IR Inten    --    585.0854                89.0357                27.6244

                     46                     47                     48
                      A                      A                      A
 Frequencies --   3087.6412              3126.5000              3147.8023
 Red. masses --      1.0902                 1.1006                 1.1021
 Frc consts  --      6.1234                 6.3386                 6.4340
 IR Inten    --     45.3995                31.2402                 5.1157

                     49                     50                     51
                      A                      A                      A
 Frequencies --   3168.6655              3212.7496              3521.2185
 Red. masses --      1.1069                 1.0915                 1.0508
 Frc consts  --      6.5478                 6.6376                 7.6764
 IR Inten    --     14.7703                 3.5233                57.7108

                     52                     53                     54
                      A                      A                      A
 Frequencies --   3603.2725              3608.4034              3715.3932
 Red. masses --      1.0968                 1.0480                 1.0992
 Frc consts  --      8.3904                 8.0399                 8.9399
 IR Inten    --     56.5726                39.3138                34.7294

 - Thermochemistry -
 -------------------
 Temperature   298.150 Kelvin.  Pressure   1.00000 Atm.
 Atom     1 has atomic number  6 and mass  12.00000

 Molecular mass:   150.05599 amu.
 Principal axes and moments of inertia in atomic units:
                           1         2         3
     Eigenvalues --  1120.399041899.056322347.24587
           X            0.99902  -0.03937  -0.02036
           Y            0.03848   0.99835  -0.04258
           Z            0.02201   0.04176   0.99889
 This molecule is an asymmetric top.
 Rotational symmetry number  1.
 Warning -- assumption of classical behavior for rotation
           may cause significant error
 Rotational temperatures (Kelvin)      0.07731     0.04561     0.03690
 Rotational constants (GHZ):           1.61080     0.95034     0.76888
    1 imaginary frequencies ignored.
 Zero-point vibrational energy     437289.3 (Joules/Mol)
                                  104.51466 (Kcal/Mol)
 Warning -- explicit consideration of  16 degrees of freedom as
           vibrations may cause significant error
 Vibrational temperatures:     87.86   111.22   122.36   163.53   234.26
          (Kelvin)            272.42   307.17   311.48   404.27   479.03
                              544.18   581.96   667.58   712.29   745.83
                              866.28  1009.79  1100.51  1123.03  1195.05
                             1432.27  1469.47  1510.87  1530.07  1551.84
                             1567.93  1654.49  1681.46  1778.71  1874.75
                             1933.87  2022.36  2041.14  2086.09  2110.02
                             2121.65  2159.54  2166.51  2175.03  2335.28
                             2365.93  2377.82  4351.50  4409.90  4442.43
                             4498.34  4528.99  4559.00  4622.43  5066.25
                             5184.31  5191.69  5345.62

 Zero-point correction=                           0.166555 (Hartree/Particle)
 Thermal correction to Energy=                    0.177703
 Thermal correction to Enthalpy=                  0.178647
 Thermal correction to Gibbs Free Energy=         0.129231
 Sum of electronic and zero-point Energies=           -841.930711
 Sum of electronic and thermal Energies=              -841.919563
 Sum of electronic and thermal Enthalpies=            -841.918618
 Sum of electronic and thermal Free Energies=         -841.968034

                     E (Thermal)             CV                S
                      KCal/Mol        Cal/Mol-Kelvin    Cal/Mol-Kelvin
 Total                  111.510             38.821            104.005
 Electronic               0.000              0.000              0.000
 Translational            0.889              2.981             40.928
 Rotational               0.889              2.981             29.992
 Vibrational            109.733             32.859             33.085
 Vibration     1          0.597              1.973              4.422
 Vibration     2          0.599              1.964              3.958
 Vibration     3          0.601              1.960              3.771
 Vibration     4          0.607              1.938              3.205
 Vibration     5          0.623              1.888              2.517
 Vibration     6          0.633              1.855              2.234
 Vibration     7          0.644              1.820              2.014
 Vibration     8          0.645              1.816              1.988
 Vibration     9          0.681              1.709              1.528
 Vibration    10          0.715              1.610              1.246
 Vibration    11          0.749              1.517              1.046
 Vibration    12          0.770              1.460              0.946
 Vibration    13          0.822              1.330              0.755
 Vibration    14          0.851              1.261              0.671
 Vibration    15          0.873              1.209              0.614
 Vibration    16          0.960              1.027              0.446

 Optimization completed.
    -- Stationary point found.
 Normal termination of Gaussian 16 at Wed Feb 24 05:35:28 2021.
