 Gaussian 16, Revision A.03,
 Gaussian 16:  ES64L-G16RevA.03 25-Dec-2016

 ----------------------------------------------------------------------
 # wB97XD def2tzvp, opt=(ts, noeigen, calcfc, maxcycles=70, maxstep=8),
  freq=noraman, scrf=(iefpcm, solvent=water)
 ----------------------------------------------------------------------

 ------------------------
 1_iteration/TS-810-1.out
 ------------------------
 Symbolic Z-matrix:
 Charge =  0 Multiplicity = 1

 SCF Done:  E(RwB97XD) =  -1017.76328769     A.U. after   14 cycles
 Optimization completed.
    -- Stationary point found.
 Normal termination of Gaussian 16 at Fri Feb 26 02:10:23 2021.

 ---------------------------------------------------------------------
 #N Geom=AllCheck Guess=TCheck SCRF=Check GenChk RwB97XD/def2TZVP Freq
 ---------------------------------------------------------------------

 Structure from the checkpoint file:  "/beegfs/scratch/user/q/tla25/Gau-18533.chk"
 ------------------------
 1_iteration/TS-810-1.out
 ------------------------
 Charge =  0 Multiplicity = 1

                         Standard orientation:
 ---------------------------------------------------------------------
 Center     Atomic      Atomic             Coordinates (Angstroms)
 Number     Number       Type             X           Y           Z
 ---------------------------------------------------------------------
      1          6           0        1.651250    0.281060   -0.632490
      2          6           0        1.808409    1.617350   -0.161240
      3          8           0        2.796299    2.287731   -0.500820
      4          6           0        0.618320   -0.624200   -0.378350
      5          6           0        1.433690   -0.902210    2.301870
      6          1           0        1.987670   -1.500660    3.023490
      7          1           0        2.050630   -0.058960    1.991790
      8          1           0        0.521120   -0.531880    2.762770
      9          7           0        1.108430   -1.684100    1.112630
     10          1           0        0.456981   -2.437720    1.307130
     11          1           0        1.946881   -2.111070    0.733740
     12         17           0        0.613641   -2.011040   -1.546080
     13          6           0       -0.800070   -0.190531   -0.129800
     14          6           0       -1.335741    0.720609   -1.041160
     15          6           0       -2.642181    1.159118   -0.923040
     16          6           0       -3.443201    0.692818    0.109730
     17          6           0       -2.926360   -0.223392    1.010290
     18          6           0       -1.617960   -0.668991    0.886960
     19          1           0       -0.712081    1.088889   -1.844810
     20          1           0       -3.034151    1.869798   -1.639140
     21          1           0       -4.464031    1.038558    0.208530
     22          1           0       -3.540530   -0.599892    1.817910
     23          1           0       -1.263070   -1.386921    1.610500
     24          1           0        2.493030   -0.092950   -1.201890
     25          6           0        0.805819    2.292910    0.757770
     26          1           0        0.133389    2.910289    0.158070
     27          1           0        0.194979    1.608619    1.340900
     28          1           0        1.356039    2.951200    1.429280
 ---------------------------------------------------------------------

 SCF Done:  E(RwB97XD) =  -1017.76328769     A.U. after    1 cycles

 The electronic state is 1-A.
 Alpha  occ. eigenvalues -- -101.69834 -19.19786 -14.50028 -10.41204 -10.35198
 Alpha  occ. eigenvalues --  -10.32266 -10.31835 -10.30343 -10.29838 -10.29778
 Alpha  occ. eigenvalues --  -10.29711 -10.29634 -10.26974 -10.25388  -9.58429
 Alpha  occ. eigenvalues --   -7.33055  -7.32218  -7.32185  -1.10476  -1.05749
 Alpha  occ. eigenvalues --   -0.98989  -0.96001  -0.88216  -0.86169  -0.84772
 Alpha  occ. eigenvalues --   -0.81180  -0.79689  -0.73966  -0.71514  -0.68245
 Alpha  occ. eigenvalues --   -0.65471  -0.62203  -0.59717  -0.58433  -0.57169
 Alpha  occ. eigenvalues --   -0.55905  -0.54868  -0.54062  -0.53124  -0.51657
 Alpha  occ. eigenvalues --   -0.51271  -0.49687  -0.49077  -0.48168  -0.47214
 Alpha  occ. eigenvalues --   -0.46279  -0.45236  -0.43578  -0.43360  -0.42436
 Alpha  occ. eigenvalues --   -0.40528  -0.39551  -0.34600  -0.33917  -0.31862
 Alpha  occ. eigenvalues --   -0.28321
 Alpha virt. eigenvalues --    0.02251   0.04146   0.04971   0.09102   0.10557
 Alpha virt. eigenvalues --    0.12338   0.13368   0.14010   0.14731   0.16233
 Alpha virt. eigenvalues --    0.16774   0.17152   0.18123   0.18948   0.19386

 Mulliken charges:
               1
     1  C   -0.469214
     2  C    0.269492
     3  O   -0.531789
     4  C    0.248778
     5  C   -0.320688
     6  H    0.169319
     7  H    0.162513
     8  H    0.163975
     9  N   -0.292381
    10  H    0.289779
    11  H    0.285748
    12  Cl  -0.138139
    13  C    0.147911
    14  C   -0.287754
    15  C   -0.112899
    16  C   -0.142790
    17  C   -0.156460
    18  C   -0.192374
    19  H    0.162798
    20  H    0.148336
    21  H    0.148666
    22  H    0.148149
    23  H    0.141505
    24  H    0.115848
    25  C   -0.369954
    26  H    0.142399
    27  H    0.132180
    28  H    0.137045
 Sum of Mulliken charges =  -0.00000

 Dipole moment (field-independent basis, Debye):
    X=             -5.4140    Y=             -6.9233    Z=              6.6281  Tot=             11.0079
 Quadrupole moment (field-independent basis, Debye-Ang):
   XX=            -98.7489   YY=            -93.9313   ZZ=            -84.2412
   XY=            -22.5172   XZ=              8.0738   YZ=             -7.9051

  Exact polarizability: 231.456   5.713 228.563 -16.100 -19.678 196.779
 Approx polarizability: 184.229   4.097 184.996 -12.584 -18.159 168.432

 ******    1 imaginary frequencies (negative Signs) ******

                      1                      2                      3
                      A                      A                      A
 Frequencies --   -350.7138                35.5802                71.3774
 Red. masses --      5.4004                 3.4667                 6.7371
 Frc consts  --      0.3914                 0.0026                 0.0202
 IR Inten    --    782.3348                 1.7918                 6.5253

                      4                      5                      6
                      A                      A                      A
 Frequencies --     89.4115               108.2169               135.8750
 Red. masses --      4.2148                 3.5789                 3.0986
 Frc consts  --      0.0199                 0.0247                 0.0337
 IR Inten    --      2.9389                 0.7256                 2.3564

                      7                      8                      9
                      A                      A                      A
 Frequencies --    172.5744               183.4796               196.8720
 Red. masses --      2.2005                 1.4068                 3.0102
 Frc consts  --      0.0386                 0.0279                 0.0687
 IR Inten    --      3.1186                 3.9581                 4.7662

                     10                     11                     12
                      A                      A                      A
 Frequencies --    230.0798               257.1908               280.4449
 Red. masses --      1.8748                 2.3309                 4.1503
 Frc consts  --      0.0585                 0.0908                 0.1923
 IR Inten    --      1.2797                 4.1317                21.9159

                     13                     14                     15
                      A                      A                      A
 Frequencies --    285.7360               327.2685               350.2928
 Red. masses --      3.0483                 3.2167                 4.1267
 Frc consts  --      0.1466                 0.2030                 0.2983
 IR Inten    --     11.0664                 2.7544                27.3974

                     16                     17                     18
                      A                      A                      A
 Frequencies --    375.4359               423.0333               513.6272
 Red. masses --     10.2430                 2.8612                 3.2593
 Frc consts  --      0.8506                 0.3017                 0.5066
 IR Inten    --      2.6197                 0.9270                12.9853

                     19                     20                     21
                      A                      A                      A
 Frequencies --    532.8988               567.9078               588.7447
 Red. masses --      3.3362                 3.4978                 5.1446
 Frc consts  --      0.5582                 0.6647                 1.0507
 IR Inten    --     43.4528               115.8332                55.0950

                     22                     23                     24
                      A                      A                      A
 Frequencies --    595.8633               638.5464               709.0188
 Red. masses --      2.0413                 6.3774                 1.7465
 Frc consts  --      0.4270                 1.5321                 0.5173
 IR Inten    --     19.0333                 9.1964                32.4108

                     25                     26                     27
                      A                      A                      A
 Frequencies --    721.1460               749.7008               766.8994
 Red. masses --      1.6886                 2.1671                 2.1118
 Frc consts  --      0.5174                 0.7176                 0.7318
 IR Inten    --     46.3737               104.6370               246.2771

                     28                     29                     30
                      A                      A                      A
 Frequencies --    798.0411               841.3856               871.5035
 Red. masses --      2.2858                 3.2089                 1.2541
 Frc consts  --      0.8577                 1.3384                 0.5612
 IR Inten    --    102.9242                64.5872                 1.5993

                     31                     32                     33
                      A                      A                      A
 Frequencies --    886.9298               961.8953               999.4502
 Red. masses --      3.0161                 1.4831                 1.1211
 Frc consts  --      1.3979                 0.8085                 0.6598
 IR Inten    --     49.2041                 1.3202                45.1217

                     34                     35                     36
                      A                      A                      A
 Frequencies --   1015.7966              1025.3811              1032.7186
 Red. masses --      1.3612                 5.2492                 1.5500
 Frc consts  --      0.8276                 3.2517                 0.9740
 IR Inten    --      1.4771                 2.4402                59.9832

                     37                     38                     39
                      A                      A                      A
 Frequencies --   1035.7608              1046.8485              1066.1760
 Red. masses --      1.3311                 1.7641                 2.3988
 Frc consts  --      0.8414                 1.1390                 1.6065
 IR Inten    --      4.9104                33.1298                19.3871

                     40                     41                     42
                      A                      A                      A
 Frequencies --   1072.7230              1084.0350              1127.6471
 Red. masses --      2.1236                 1.6592                 1.5871
 Frc consts  --      1.4398                 1.1487                 1.1891
 IR Inten    --      5.1246               100.3866                15.2932

                     43                     44                     45
                      A                      A                      A
 Frequencies --   1162.5076              1187.5074              1222.7015
 Red. masses --      2.5085                 1.1287                 1.1335
 Frc consts  --      1.9973                 0.9378                 0.9985
 IR Inten    --    129.4678                 1.4271                 3.4386

                     46                     47                     48
                      A                      A                      A
 Frequencies --   1245.6700              1313.3643              1316.2549
 Red. masses --      1.3671                 1.9391                 3.8604
 Frc consts  --      1.2498                 1.9707                 3.9406
 IR Inten    --     31.2756               226.6688                22.5147

                     49                     50                     51
                      A                      A                      A
 Frequencies --   1338.8901              1364.1564              1365.8073
 Red. masses --      1.5861                 1.9300                 1.5497
 Frc consts  --      1.6752                 2.1162                 1.7032
 IR Inten    --     42.9263                68.0956                44.8821

                     52                     53                     54
                      A                      A                      A
 Frequencies --   1394.0836              1441.4313              1464.3035
 Red. masses --      1.3454                 1.8171                 1.1802
 Frc consts  --      1.5406                 2.2244                 1.4910
 IR Inten    --     74.5121               645.7051                63.2392

                     55                     56                     57
                      A                      A                      A
 Frequencies --   1473.8198              1490.7048              1493.5220
 Red. masses --      1.5332                 1.5235                 1.4764
 Frc consts  --      1.9622                 1.9947                 1.9403
 IR Inten    --    181.5141                41.3024               118.5251

                     58                     59                     60
                      A                      A                      A
 Frequencies --   1495.6224              1511.8876              1546.1786
 Red. masses --      1.0540                 1.0410                 2.3346
 Frc consts  --      1.3891                 1.4020                 3.2883
 IR Inten    --     37.6410                10.8831                30.2827

                     61                     62                     63
                      A                      A                      A
 Frequencies --   1619.5295              1649.4528              1656.9488
 Red. masses --      7.6865                 1.6289                 2.1483
 Frc consts  --     11.8784                 2.6111                 3.4751
 IR Inten    --    973.4362                40.7239                27.3057

                     64                     65                     66
                      A                      A                      A
 Frequencies --   1675.5852              3066.4045              3076.8140
 Red. masses --      5.6641                 1.0395                 1.0329
 Frc consts  --      9.3695                 5.7588                 5.7614
 IR Inten    --      1.2337                12.7448                27.1945

                     67                     68                     69
                      A                      A                      A
 Frequencies --   3138.0216              3154.8020              3177.0855
 Red. masses --      1.0990                 1.1045                 1.1042
 Frc consts  --      6.3764                 6.4769                 6.5668
 IR Inten    --     19.5487                 6.5103                24.4596

                     70                     71                     72
                      A                      A                      A
 Frequencies --   3178.2440              3191.9605              3201.8044
 Red. masses --      1.1020                 1.0876                 1.0864
 Frc consts  --      6.5584                 6.5287                 6.5618
 IR Inten    --     15.1278                 8.5504                 0.0948

                     73                     74                     75
                      A                      A                      A
 Frequencies --   3210.3823              3219.2790              3227.0190
 Red. masses --      1.0896                 1.0935                 1.0977
 Frc consts  --      6.6167                 6.6774                 6.7350
 IR Inten    --      5.7279                17.5157                17.9316

                     76                     77                     78
                      A                      A                      A
 Frequencies --   3246.8517              3514.3295              3591.6204
 Red. masses --      1.0925                 1.0516                 1.0957
 Frc consts  --      6.7854                 7.6524                 8.3278
 IR Inten    --     16.4714                48.8695                47.5748

 - Thermochemistry -
 -------------------
 Temperature   298.150 Kelvin.  Pressure   1.00000 Atm.
 Atom     1 has atomic number  6 and mass  12.00000

 Molecular mass:   211.07639 amu.
 Principal axes and moments of inertia in atomic units:
                           1         2         3
     Eigenvalues --  2560.322733517.578694178.88218
           X            0.99911  -0.03435   0.02459
           Y            0.03624   0.99606  -0.08092
           Z           -0.02171   0.08174   0.99642
 This molecule is an asymmetric top.
 Rotational symmetry number  1.
 Warning -- assumption of classical behavior for rotation
           may cause significant error
 Rotational temperatures (Kelvin)      0.03383     0.02462     0.02073
 Rotational constants (GHZ):           0.70489     0.51306     0.43187
    1 imaginary frequencies ignored.
 Zero-point vibrational energy     606495.1 (Joules/Mol)
                                  144.95581 (Kcal/Mol)
 Warning -- explicit consideration of  21 degrees of freedom as
           vibrations may cause significant error
 Vibrational temperatures:     51.19   102.70   128.64   155.70   195.49
          (Kelvin)            248.30   263.99   283.25   331.03   370.04
                              403.50   411.11   470.87   503.99   540.17
                              608.65   738.99   766.72   817.09   847.07
                              857.31   918.73  1020.12  1037.57  1078.65
                             1103.40  1148.20  1210.57  1253.90  1276.09
                             1383.95  1437.99  1461.50  1475.29  1485.85
                             1490.23  1506.18  1533.99  1543.41  1559.68
                             1622.43  1672.59  1708.56  1759.19  1792.24
                             1889.64  1893.80  1926.36  1962.72  1965.09
                             2005.78  2073.90  2106.81  2120.50  2144.79
                             2148.85  2151.87  2175.27  2224.61  2330.14
                             2373.19  2383.98  2410.79  4411.87  4426.85
                             4514.91  4539.06  4571.12  4572.78  4592.52
                             4606.68  4619.02  4631.82  4642.96  4671.50
                             5056.34  5167.54

 Zero-point correction=                           0.231002 (Hartree/Particle)
 Thermal correction to Energy=                    0.244879
 Thermal correction to Enthalpy=                  0.245823
 Thermal correction to Gibbs Free Energy=         0.190091
 Sum of electronic and zero-point Energies=          -1017.532286
 Sum of electronic and thermal Energies=             -1017.518409
 Sum of electronic and thermal Enthalpies=           -1017.517465
 Sum of electronic and thermal Free Energies=        -1017.573196

                     E (Thermal)             CV                S
                      KCal/Mol        Cal/Mol-Kelvin    Cal/Mol-Kelvin
 Total                  153.664             52.349            117.296
 Electronic               0.000              0.000              0.000
 Translational            0.889              2.981             41.945
 Rotational               0.889              2.981             31.998
 Vibrational            151.886             46.388             43.353
 Vibration     1          0.594              1.982              5.491
 Vibration     2          0.598              1.968              4.115
 Vibration     3          0.602              1.957              3.673
 Vibration     4          0.606              1.943              3.301
 Vibration     5          0.614              1.918              2.861
 Vibration     6          0.626              1.876              2.407
 Vibration     7          0.631              1.862              2.293
 Vibration     8          0.636              1.844              2.162
 Vibration     9          0.652              1.795              1.878
 Vibration    10          0.667              1.751              1.681
 Vibration    11          0.680              1.710              1.531
 Vibration    12          0.684              1.700              1.499
 Vibration    13          0.711              1.621              1.274
 Vibration    14          0.727              1.575              1.165
 Vibration    15          0.746              1.522              1.058
 Vibration    16          0.785              1.420              0.882
 Vibration    17          0.869              1.220              0.625
 Vibration    18          0.888              1.177              0.581
 Vibration    19          0.924              1.101              0.508
 Vibration    20          0.946              1.056              0.469
 Vibration    21          0.954              1.041              0.457

 Optimization completed.
    -- Stationary point found.
 Normal termination of Gaussian 16 at Fri Feb 26 02:57:07 2021.
