 Gaussian 16, Revision A.03,
 Gaussian 16:  ES64L-G16RevA.03 25-Dec-2016

 ----------------------------------------------------------------------
 # wB97XD def2tzvp, opt=(ts, noeigen, calcfc, maxcycles=70, maxstep=5),
  freq=noraman, scrf=(iefpcm, solvent=water)
 ----------------------------------------------------------------------

 ------------------------
 2_iteration/TS-818-2.out
 ------------------------
 Symbolic Z-matrix:
 Charge =  0 Multiplicity = 1

 SCF Done:  E(RwB97XD) =  -1057.07522153     A.U. after   15 cycles
 SCF Done:  E(RwB97XD) =  -1057.07544794     A.U. after   12 cycles
 SCF Done:  E(RwB97XD) =  -1057.07544786     A.U. after   12 cycles
 SCF Done:  E(RwB97XD) =  -1057.07547597     A.U. after   11 cycles
 SCF Done:  E(RwB97XD) =  -1057.07547873     A.U. after   10 cycles
 SCF Done:  E(RwB97XD) =  -1057.07548016     A.U. after   10 cycles
 SCF Done:  E(RwB97XD) =  -1057.07548027     A.U. after    7 cycles
 Optimization completed.
    -- Stationary point found.
 Normal termination of Gaussian 16 at Fri Feb 26 12:18:45 2021.

 ---------------------------------------------------------------------
 #N Geom=AllCheck Guess=TCheck SCRF=Check GenChk RwB97XD/def2TZVP Freq
 ---------------------------------------------------------------------

 Structure from the checkpoint file:  "/beegfs/scratch/user/q/tla25/Gau-41042.chk"
 ------------------------
 2_iteration/TS-818-2.out
 ------------------------
 Charge =  0 Multiplicity = 1

                         Standard orientation:
 ---------------------------------------------------------------------
 Center     Atomic      Atomic             Coordinates (Angstroms)
 Number     Number       Type             X           Y           Z
 ---------------------------------------------------------------------
      1          6           0        1.504578    0.297248   -0.312414
      2          6           0        1.375364    1.590663    0.285037
      3          8           0        0.442433    1.951042    1.019249
      4          6           0        0.435098   -0.610139   -0.242257
      5          6           0        1.093032   -1.113539    2.422576
      6          1           0        0.199100   -0.690048    2.872096
      7          1           0        1.568701   -1.799538    3.121823
      8          1           0        1.782656   -0.306218    2.177502
      9          7           0        0.745957   -1.796171    1.178343
     10          1           0        1.544698   -2.311758    0.825654
     11          1           0       -0.005440   -2.468435    1.293039
     12         17           0        0.456138   -1.901059   -1.528133
     13          6           0       -0.991513   -0.146281   -0.105319
     14          6           0       -1.447572    0.739287   -1.083111
     15          6           0       -2.754763    1.186884   -1.083732
     16          6           0       -3.642405    0.753029   -0.106850
     17          6           0       -3.203862   -0.136292    0.858084
     18          6           0       -1.890312   -0.589029    0.854396
     19          1           0       -0.757754    1.083003   -1.843043
     20          1           0       -3.083078    1.878362   -1.849421
     21          1           0       -4.666570    1.103425   -0.102881
     22          1           0       -3.882674   -0.487432    1.624776
     23          1           0       -1.597524   -1.277234    1.632502
     24          6           0        2.813948   -0.122758   -0.941221
     25          1           0        3.014369   -1.184448   -0.786432
     26          1           0        2.842253    0.046076   -2.023117
     27          1           0        3.655039    0.414134   -0.505446
     28          6           0        2.476344    2.602494    0.003387
     29          1           0        3.349036    2.392643    0.627582
     30          1           0        2.806081    2.585794   -1.035982
     31          1           0        2.107973    3.595132    0.255762
 ---------------------------------------------------------------------

 SCF Done:  E(RwB97XD) =  -1057.07548027     A.U. after    1 cycles

 The electronic state is 1-A.
 Alpha  occ. eigenvalues -- -101.69466 -19.19401 -14.50010 -10.40541 -10.34450
 Alpha  occ. eigenvalues --  -10.31900 -10.31295 -10.29608 -10.29230 -10.29162
 Alpha  occ. eigenvalues --  -10.29110 -10.29064 -10.27090 -10.26691 -10.25861
 Alpha  occ. eigenvalues --   -9.58072  -7.32685  -7.31872  -7.31829  -1.10137
 Alpha  occ. eigenvalues --   -1.05624  -0.98410  -0.95535  -0.88163  -0.86420
 Alpha  occ. eigenvalues --   -0.85459  -0.81397  -0.79545  -0.77731  -0.71646
 Alpha  occ. eigenvalues --   -0.70883  -0.67769  -0.65220  -0.61418  -0.58983
 Alpha  occ. eigenvalues --   -0.58112  -0.56538  -0.55607  -0.54030  -0.53194
 Alpha  occ. eigenvalues --   -0.52732  -0.51441  -0.51052  -0.49314  -0.48748
 Alpha  occ. eigenvalues --   -0.48327  -0.47419  -0.46377  -0.45772  -0.45615
 Alpha  occ. eigenvalues --   -0.45204  -0.43173  -0.42908  -0.41990  -0.39827
 Alpha  occ. eigenvalues --   -0.39355  -0.34195  -0.33729  -0.30422  -0.26857
 Alpha virt. eigenvalues --    0.03340   0.05005   0.05283   0.09430   0.10026
 Alpha virt. eigenvalues --    0.12169   0.13253   0.14111   0.15474   0.15638
 Alpha virt. eigenvalues --    0.16364   0.17048   0.18164   0.18319   0.18742

 Mulliken charges:
               1
     1  C   -0.303962
     2  C    0.305638
     3  O   -0.527566
     4  C    0.249466
     5  C   -0.284127
     6  H    0.153646
     7  H    0.163197
     8  H    0.157490
     9  N   -0.299548
    10  H    0.282904
    11  H    0.288246
    12  Cl  -0.140668
    13  C    0.271492
    14  C   -0.323067
    15  C   -0.122726
    16  C   -0.156530
    17  C   -0.162847
    18  C   -0.234729
    19  H    0.150347
    20  H    0.143068
    21  H    0.144268
    22  H    0.143573
    23  H    0.135038
    24  C   -0.413556
    25  H    0.123472
    26  H    0.134803
    27  H    0.135480
    28  C   -0.422202
    29  H    0.145316
    30  H    0.140766
    31  H    0.123318
 Sum of Mulliken charges =  -0.00000

 Dipole moment (field-independent basis, Debye):
    X=              1.5550    Y=             -6.2792    Z=              2.4965  Tot=              6.9339
 Quadrupole moment (field-independent basis, Debye-Ang):
   XX=            -85.7482   YY=            -96.0375   ZZ=            -93.1365
   XY=             -3.9189   XZ=              2.0638   YZ=            -17.6880

  Exact polarizability: 248.396  -2.453 238.894 -16.162 -12.543 213.229
 Approx polarizability: 195.442  -5.204 193.556 -13.277 -10.620 183.498

 ******    1 imaginary frequencies (negative Signs) ******

                      1                      2                      3
                      A                      A                      A
 Frequencies --   -364.0129                40.9081                64.8179
 Red. masses --      5.4570                 3.3837                 3.1847
 Frc consts  --      0.4260                 0.0033                 0.0079
 IR Inten    --    696.9330                 1.2365                 5.1626

                      4                      5                      6
                      A                      A                      A
 Frequencies --     72.6473                91.7607               100.9579
 Red. masses --      3.5776                 4.2320                 1.2613
 Frc consts  --      0.0111                 0.0210                 0.0076
 IR Inten    --      0.8265                 6.3698                 0.8583

                      7                      8                      9
                      A                      A                      A
 Frequencies --    125.8028               144.5541               175.6400
 Red. masses --      2.9674                 2.6094                 1.3058
 Frc consts  --      0.0277                 0.0321                 0.0237
 IR Inten    --      2.8008                 6.8921                 4.1394

                     10                     11                     12
                      A                      A                      A
 Frequencies --    192.6440               193.3852               216.8983
 Red. masses --      4.3331                 1.3245                 3.6949
 Frc consts  --      0.0947                 0.0292                 0.1024
 IR Inten    --     15.8097                 0.8661                 2.2389

                     13                     14                     15
                      A                      A                      A
 Frequencies --    240.2231               275.5072               291.8264
 Red. masses --      3.0202                 3.1849                 4.0897
 Frc consts  --      0.1027                 0.1424                 0.2052
 IR Inten    --      1.0530                10.9975                 9.3010

                     16                     17                     18
                      A                      A                      A
 Frequencies --    334.7206               344.7073               371.8680
 Red. masses --      3.7555                 4.5899                 2.9665
 Frc consts  --      0.2479                 0.3213                 0.2417
 IR Inten    --     16.9483                25.8035                 9.0403

                     19                     20                     21
                      A                      A                      A
 Frequencies --    390.0998               423.0875               514.3115
 Red. masses --      3.9543                 2.8788                 3.4960
 Frc consts  --      0.3545                 0.3036                 0.5448
 IR Inten    --      5.4300                 0.1743                39.1107

                     22                     23                     24
                      A                      A                      A
 Frequencies --    541.4183               554.3032               572.2536
 Red. masses --      3.6674                 3.8392                 3.6130
 Frc consts  --      0.6334                 0.6950                 0.6971
 IR Inten    --     89.1036                39.6620                40.5045

                     25                     26                     27
                      A                      A                      A
 Frequencies --    633.7831               639.5112               691.0472
 Red. masses --      2.5110                 5.1029                 5.2765
 Frc consts  --      0.5943                 1.2296                 1.4846
 IR Inten    --     68.8354                15.5610                64.9455

                     28                     29                     30
                      A                      A                      A
 Frequencies --    703.6016               720.1798               755.9789
 Red. masses --      1.9166                 1.7243                 2.5022
 Frc consts  --      0.5590                 0.5269                 0.8425
 IR Inten    --     61.7791                51.7212               248.0813

                     31                     32                     33
                      A                      A                      A
 Frequencies --    818.2293               867.2273               896.2774
 Red. masses --      2.8623                 1.2531                 3.0260
 Frc consts  --      1.1291                 0.5553                 1.4322
 IR Inten    --      5.9972                 0.5232               103.7330

                     34                     35                     36
                      A                      A                      A
 Frequencies --    948.9535               993.3453              1000.4266
 Red. masses --      1.4624                 1.4834                 1.1779
 Frc consts  --      0.7759                 0.8624                 0.6946
 IR Inten    --      1.8942                56.1008                56.3614

                     37                     38                     39
                      A                      A                      A
 Frequencies --   1009.0001              1024.6164              1026.7717
 Red. masses --      1.3366                 5.4119                 1.3169
 Frc consts  --      0.8017                 3.3475                 0.8180
 IR Inten    --      7.8826                 5.5074                 1.5958

                     40                     41                     42
                      A                      A                      A
 Frequencies --   1030.4978              1038.6825              1064.3000
 Red. masses --      1.8822                 2.0371                 1.5511
 Frc consts  --      1.1776                 1.2949                 1.0352
 IR Inten    --     33.3359                65.9966                13.1422

                     43                     44                     45
                      A                      A                      A
 Frequencies --   1068.1684              1074.0537              1084.1780
 Red. masses --      1.9877                 1.7396                 1.8657
 Frc consts  --      1.3362                 1.1824                 1.2921
 IR Inten    --      2.3845                 9.8866               119.9266

                     46                     47                     48
                      A                      A                      A
 Frequencies --   1127.1826              1139.0356              1185.8722
 Red. masses --      1.6973                 2.7612                 1.1384
 Frc consts  --      1.2706                 2.1107                 0.9432
 IR Inten    --      3.8650                18.3978                 0.5250

                     49                     50                     51
                      A                      A                      A
 Frequencies --   1216.3241              1226.6720              1246.2143
 Red. masses --      3.1491                 1.1678                 1.4369
 Frc consts  --      2.7449                 1.0353                 1.3148
 IR Inten    --     98.4348                 6.4963                26.2378

                     52                     53                     54
                      A                      A                      A
 Frequencies --   1319.8282              1338.2162              1361.1854
 Red. masses --      4.8848                 1.3544                 2.0782
 Frc consts  --      5.0134                 1.4291                 2.2687
 IR Inten    --     12.2343                 4.1211               187.8243

                     55                     56                     57
                      A                      A                      A
 Frequencies --   1369.8124              1384.7508              1405.7529
 Red. masses --      1.4141                 2.7333                 2.8040
 Frc consts  --      1.5633                 3.0880                 3.2647
 IR Inten    --      5.3685                23.8184               868.4504

                     58                     59                     60
                      A                      A                      A
 Frequencies --   1428.2839              1463.4220              1465.2294
 Red. masses --      1.2069                 1.0905                 1.1851
 Frc consts  --      1.4506                 1.3760                 1.4991
 IR Inten    --      1.5683                37.7567                 8.5477

                     61                     62                     63
                      A                      A                      A
 Frequencies --   1477.4738              1488.7135              1490.4618
 Red. masses --      1.0849                 1.0375                 2.1806
 Frc consts  --      1.3954                 1.3547                 2.8541
 IR Inten    --     51.0076                16.1964                26.6506

                     64                     65                     66
                      A                      A                      A
 Frequencies --   1492.4977              1501.7475              1504.7723
 Red. masses --      1.0538                 1.0715                 1.0443
 Frc consts  --      1.3831                 1.4238                 1.3932
 IR Inten    --     32.6686                93.4193                20.4889

                     67                     68                     69
                      A                      A                      A
 Frequencies --   1546.3828              1640.7556              1647.5729
 Red. masses --      2.2871                 1.7100                 2.4707
 Frc consts  --      3.2223                 2.7123                 3.9515
 IR Inten    --     30.2446               352.5729               230.1698

                     70                     71                     72
                      A                      A                      A
 Frequencies --   1657.0010              1676.4916              3027.0570
 Red. masses --      4.6753                 5.7415                 1.0502
 Frc consts  --      7.5632                 9.5078                 5.6700
 IR Inten    --     61.2667                 1.0809                90.3602

                     73                     74                     75
                      A                      A                      A
 Frequencies --   3052.9152              3076.7031              3094.3194
 Red. masses --      1.0383                 1.0333                 1.0896
 Frc consts  --      5.7019                 5.7632                 6.1467
 IR Inten    --     15.8467                32.8561                43.1863

                     76                     77                     78
                      A                      A                      A
 Frequencies --   3123.1003              3139.6636              3155.1600
 Red. masses --      1.0982                 1.0975                 1.1049
 Frc consts  --      6.3109                 6.3743                 6.4808
 IR Inten    --     20.4083                36.9629                 3.3346

                     79                     80                     81
                      A                      A                      A
 Frequencies --   3158.6584              3182.7633              3197.0688
 Red. masses --      1.1035                 1.1051                 1.0860
 Frc consts  --      6.4866                 6.5955                 6.5400
 IR Inten    --     27.7563                12.1617                 0.6413

                     82                     83                     84
                      A                      A                      A
 Frequencies --   3205.3245              3214.6986              3223.0517
 Red. masses --      1.0893                 1.0935                 1.0979
 Frc consts  --      6.5937                 6.6581                 6.7196
 IR Inten    --      5.2438                23.4108                23.4877

                     85                     86                     87
                      A                      A                      A
 Frequencies --   3246.7183              3518.8181              3593.1642
 Red. masses --      1.0918                 1.0518                 1.0951
 Frc consts  --      6.7808                 7.6730                 8.3303
 IR Inten    --     23.2790                49.5820                50.6975

 - Thermochemistry -
 -------------------
 Temperature   298.150 Kelvin.  Pressure   1.00000 Atm.
 Atom     1 has atomic number  6 and mass  12.00000

 Molecular mass:   225.09204 amu.
 Principal axes and moments of inertia in atomic units:
                           1         2         3
     Eigenvalues --  2646.724463952.352854542.69593
           X            0.99982   0.01894  -0.00190
           Y           -0.01901   0.98905  -0.14632
           Z           -0.00089   0.14633   0.98923
 This molecule is an asymmetric top.
 Rotational symmetry number  1.
 Warning -- assumption of classical behavior for rotation
           may cause significant error
 Rotational temperatures (Kelvin)      0.03272     0.02191     0.01907
 Rotational constants (GHZ):           0.68188     0.45662     0.39728
    1 imaginary frequencies ignored.
 Zero-point vibrational energy     678127.2 (Joules/Mol)
                                  162.07628 (Kcal/Mol)
 Warning -- explicit consideration of  23 degrees of freedom as
           vibrations may cause significant error
 Vibrational temperatures:     58.86    93.26   104.52   132.02   145.26
          (Kelvin)            181.00   207.98   252.71   277.17   278.24
                              312.07   345.63   396.39   419.87   481.59
                              495.96   535.04   561.27   608.73   739.98
                              778.98   797.52   823.35   911.87   920.11
                              994.26  1012.33  1036.18  1087.69  1177.25
                             1247.75  1289.54  1365.33  1429.20  1439.39
                             1451.73  1474.19  1477.30  1482.66  1494.43
                             1531.29  1536.86  1545.32  1559.89  1621.76
                             1638.82  1706.21  1750.02  1764.91  1793.02
                             1898.94  1925.39  1958.44  1970.85  1992.35
                             2022.56  2054.98  2105.54  2108.14  2125.76
                             2141.93  2144.44  2147.37  2160.68  2165.03
                             2224.90  2360.68  2370.49  2384.05  2412.10
                             4355.26  4392.46  4426.69  4452.04  4493.44
                             4517.28  4539.57  4544.60  4579.29  4599.87
                             4611.75  4625.23  4637.25  4671.30  5062.79
                             5169.76

 Zero-point correction=                           0.258285 (Hartree/Particle)
 Thermal correction to Energy=                    0.274023
 Thermal correction to Enthalpy=                  0.274967
 Thermal correction to Gibbs Free Energy=         0.215135
 Sum of electronic and zero-point Energies=          -1056.817195
 Sum of electronic and thermal Energies=             -1056.801457
 Sum of electronic and thermal Enthalpies=           -1056.800513
 Sum of electronic and thermal Free Energies=        -1056.860345

                     E (Thermal)             CV                S
                      KCal/Mol        Cal/Mol-Kelvin    Cal/Mol-Kelvin
 Total                  171.952             58.324            125.928
 Electronic               0.000              0.000              0.000
 Translational            0.889              2.981             42.136
 Rotational               0.889              2.981             32.230
 Vibrational            170.175             52.362             51.561
 Vibration     1          0.594              1.981              5.215
 Vibration     2          0.597              1.971              4.305
 Vibration     3          0.599              1.967              4.080
 Vibration     4          0.602              1.955              3.622
 Vibration     5          0.604              1.948              3.436
 Vibration     6          0.611              1.927              3.009
 Vibration     7          0.616              1.909              2.743
 Vibration     8          0.628              1.872              2.374
 Vibration     9          0.635              1.850              2.202
 Vibration    10          0.635              1.849              2.195
 Vibration    11          0.646              1.815              1.985
 Vibration    12          0.657              1.779              1.801
 Vibration    13          0.677              1.719              1.561
 Vibration    14          0.687              1.689              1.463
 Vibration    15          0.716              1.606              1.237
 Vibration    16          0.723              1.586              1.190
 Vibration    17          0.744              1.530              1.072
 Vibration    18          0.758              1.491              1.000
 Vibration    19          0.785              1.420              0.882
 Vibration    20          0.869              1.218              0.623
 Vibration    21          0.897              1.158              0.562
 Vibration    22          0.910              1.130              0.535
 Vibration    23          0.928              1.091              0.500

 Optimization completed.
    -- Stationary point found.
 Normal termination of Gaussian 16 at Fri Feb 26 13:29:35 2021.
