 Gaussian 16, Revision A.03,
 Gaussian 16:  ES64L-G16RevA.03 25-Dec-2016

 ----------------------------------------------------------------------
 # wB97XD def2tzvp, opt=(ts, noeigen, calcfc, maxcycles=70, maxstep=5),
  freq=noraman, scrf=(iefpcm, solvent=water)
 ----------------------------------------------------------------------

 ------------------------
 2_iteration/TS-886-2.out
 ------------------------
 Symbolic Z-matrix:
 Charge =  0 Multiplicity = 1

 SCF Done:  E(RwB97XD) =  -1151.75065243     A.U. after   15 cycles
 Optimization completed.
    -- Stationary point found.
 Normal termination of Gaussian 16 at Fri Feb 26 08:10:59 2021.

 ---------------------------------------------------------------------
 #N Geom=AllCheck Guess=TCheck SCRF=Check GenChk RwB97XD/def2TZVP Freq
 ---------------------------------------------------------------------

 Structure from the checkpoint file:  "/beegfs/scratch/user/q/tla25/Gau-6257.chk"
 ------------------------
 2_iteration/TS-886-2.out
 ------------------------
 Charge =  0 Multiplicity = 1

                         Standard orientation:
 ---------------------------------------------------------------------
 Center     Atomic      Atomic             Coordinates (Angstroms)
 Number     Number       Type             X           Y           Z
 ---------------------------------------------------------------------
      1          6           0       -0.282099   -0.209010   -0.035961
      2          6           0       -1.230897   -1.217672   -0.513141
      3          8           0       -0.942145   -2.012832   -1.416761
      4          6           0       -0.610312    1.134549    0.094499
      5          6           0        0.180623    3.494951   -1.393651
      6          1           0        0.870612    3.826432   -2.169371
      7          1           0       -0.830348    3.777459   -1.675101
      8          1           0        0.443682    3.966191   -0.449991
      9          7           0        0.256486    2.038531   -1.234691
     10          1           0       -0.089363    1.561720   -2.061691
     11          1           0        1.218757    1.740713   -1.104681
     12         17           0        0.223966    2.057711    1.506439
     13          6           0       -2.011003    1.666996   -0.030431
     14          1           0       -2.498982    1.253865   -0.912131
     15          1           0       -2.594063    1.406155    0.848619
     16          1           0       -2.003345    2.751916   -0.100401
     17          6           0        1.147682   -0.639067    0.014699
     18          6           0        1.912332   -0.801486   -1.142281
     19          6           0        3.238243   -1.209253   -1.080871
     20          6           0        3.831474   -1.465402    0.146389
     21          6           0        3.086123   -1.317063    1.308009
     22          6           0        1.761072   -0.912596    1.238659
     23          1           0        1.453072   -0.620397   -2.106191
     24          1           0        3.807643   -1.327182   -1.994791
     25          1           0        4.865734   -1.782229    0.197709
     26          1           0        3.536724   -1.521762    2.271609
     27          1           0        1.183182   -0.804847    2.148189
     28          7           0       -2.472007   -1.296405    0.075619
     29          6           0       -2.693477   -1.036655    1.483029
     30          6           0       -3.450645   -2.179947   -0.520911
     31          1           0       -1.836698   -0.521374    1.908459
     32          1           0       -3.590519   -0.430547    1.633269
     33          1           0       -2.833455   -1.981146    2.021149
     34          1           0       -3.378625   -2.140947   -1.604681
     35          1           0       -3.312713   -3.220087   -0.203341
     36          1           0       -4.447606   -1.857319   -0.216791
 ---------------------------------------------------------------------

 SCF Done:  E(RwB97XD) =  -1151.75065243     A.U. after    1 cycles

 The electronic state is 1-A.
 Alpha  occ. eigenvalues -- -101.67584 -19.19604 -14.50181 -14.44786 -10.40066
 Alpha  occ. eigenvalues --  -10.37163 -10.32248 -10.30419 -10.29974 -10.29389
 Alpha  occ. eigenvalues --  -10.28663 -10.28556 -10.28512 -10.28461 -10.28250
 Alpha  occ. eigenvalues --  -10.28165 -10.25121  -9.56197  -7.30748  -7.30026
 Alpha  occ. eigenvalues --   -7.29990  -1.12317  -1.05775  -1.02200  -0.96433
 Alpha  occ. eigenvalues --   -0.94576  -0.87817  -0.85029  -0.84446  -0.81318
 Alpha  occ. eigenvalues --   -0.80608  -0.79747  -0.76449  -0.69727  -0.69311
 Alpha  occ. eigenvalues --   -0.66996  -0.64250  -0.62335  -0.60165  -0.59848
 Alpha  occ. eigenvalues --   -0.56727  -0.56279  -0.56007  -0.54708  -0.53968
 Alpha  occ. eigenvalues --   -0.53526  -0.52488  -0.50490  -0.50204  -0.49939
 Alpha  occ. eigenvalues --   -0.48928  -0.48023  -0.47967  -0.47009  -0.46352
 Alpha  occ. eigenvalues --   -0.45682  -0.45050  -0.44951  -0.44217  -0.42114
 Alpha  occ. eigenvalues --   -0.41545  -0.38790  -0.38557  -0.34126  -0.33043
 Alpha  occ. eigenvalues --   -0.32615  -0.31150  -0.25904
 Alpha virt. eigenvalues --    0.05287   0.05710   0.06484   0.08785   0.09759
 Alpha virt. eigenvalues --    0.12214   0.13349   0.13798   0.14299   0.14826
 Alpha virt. eigenvalues --    0.15695   0.16471   0.16826   0.17665   0.17892

 Mulliken charges:
               1
     1  C   -0.173033
     2  C    0.256641
     3  O   -0.520549
     4  C    0.104060
     5  C   -0.304680
     6  H    0.163678
     7  H    0.163629
     8  H    0.155661
     9  N   -0.252201
    10  H    0.287434
    11  H    0.291235
    12  Cl  -0.229265
    13  C   -0.386242
    14  H    0.159299
    15  H    0.148542
    16  H    0.152587
    17  C    0.210367
    18  C   -0.343093
    19  C   -0.111859
    20  C   -0.166580
    21  C   -0.131155
    22  C   -0.268654
    23  H    0.139027
    24  H    0.138502
    25  H    0.140489
    26  H    0.137333
    27  H    0.142413
    28  N   -0.128145
    29  C   -0.331333
    30  C   -0.287879
    31  H    0.167168
    32  H    0.149217
    33  H    0.133546
    34  H    0.136733
    35  H    0.124764
    36  H    0.132342
 Sum of Mulliken charges =  -0.00000

 Dipole moment (field-independent basis, Debye):
    X=             -1.6015    Y=              7.2881    Z=             -1.9937  Tot=              7.7237
 Quadrupole moment (field-independent basis, Debye-Ang):
   XX=            -96.4276   YY=           -108.5443   ZZ=           -105.6544
   XY=             -1.1470   XZ=             -5.3039   YZ=            -20.6924

  Exact polarizability: 275.390  -1.571 256.014  -5.105   3.824 255.891
 Approx polarizability: 216.027  -3.905 199.946  -3.034   5.896 220.684

 ******    1 imaginary frequencies (negative Signs) ******

                      1                      2                      3
                      A                      A                      A
 Frequencies --   -359.3715                36.4405                47.6071
 Red. masses --      6.6590                 4.6976                 4.1738
 Frc consts  --      0.5067                 0.0037                 0.0056
 IR Inten    --    502.8370                 9.5631                 0.9100

                      4                      5                      6
                      A                      A                      A
 Frequencies --     59.7343                75.0915                83.3634
 Red. masses --      4.1453                 5.1664                 1.7653
 Frc consts  --      0.0087                 0.0172                 0.0072
 IR Inten    --      2.5841                 1.8419                 2.0234

                      7                      8                      9
                      A                      A                      A
 Frequencies --     99.2189               105.6278               153.2766
 Red. masses --      3.3204                 5.0461                 1.9544
 Frc consts  --      0.0193                 0.0332                 0.0271
 IR Inten    --      3.1874                13.6236                 6.4628

                     10                     11                     12
                      A                      A                      A
 Frequencies --    181.2502               183.1718               191.8046
 Red. masses --      2.1902                 1.8575                 1.2910
 Frc consts  --      0.0424                 0.0367                 0.0280
 IR Inten    --      5.0469                 0.1933                 3.6765

                     13                     14                     15
                      A                      A                      A
 Frequencies --    219.0347               229.7474               249.2057
 Red. masses --      2.6442                 2.3638                 2.7234
 Frc consts  --      0.0747                 0.0735                 0.0996
 IR Inten    --      9.1728                 9.0907                 2.5786

                     16                     17                     18
                      A                      A                      A
 Frequencies --    264.5703               288.5619               309.0785
 Red. masses --      2.0163                 2.4187                 1.6382
 Frc consts  --      0.0832                 0.1187                 0.0922
 IR Inten    --      5.5527                19.6952                37.2102

                     19                     20                     21
                      A                      A                      A
 Frequencies --    321.4899               329.3720               342.5756
 Red. masses --      4.1529                 3.2916                 2.6543
 Frc consts  --      0.2529                 0.2104                 0.1835
 IR Inten    --     42.2879                51.7041                 8.4790

                     22                     23                     24
                      A                      A                      A
 Frequencies --    392.1492               408.9437               428.7054
 Red. masses --      3.4721                 2.8060                 2.9394
 Frc consts  --      0.3146                 0.2765                 0.3183
 IR Inten    --     13.0265                18.9658                 1.4924

                     25                     26                     27
                      A                      A                      A
 Frequencies --    445.4753               461.6712               524.3344
 Red. masses --      3.8246                 3.2196                 3.6669
 Frc consts  --      0.4472                 0.4043                 0.5940
 IR Inten    --    137.8695                21.0199                43.6477

                     28                     29                     30
                      A                      A                      A
 Frequencies --    565.0820               620.7521               647.6920
 Red. masses --      4.0841                 5.7381                 6.1615
 Frc consts  --      0.7684                 1.3027                 1.5229
 IR Inten    --    163.6047                98.1432                34.2600

                     31                     32                     33
                      A                      A                      A
 Frequencies --    663.4987               723.2798               734.2124
 Red. masses --      6.0151                 2.3571                 1.5690
 Frc consts  --      1.5602                 0.7265                 0.4983
 IR Inten    --     13.9368                 8.6846               101.4040

                     34                     35                     36
                      A                      A                      A
 Frequencies --    747.7114               776.5592               816.8735
 Red. masses --      2.0161                 2.9446                 3.6938
 Frc consts  --      0.6641                 1.0462                 1.4522
 IR Inten    --    186.7925                 8.1209                27.9516

                     37                     38                     39
                      A                      A                      A
 Frequencies --    882.3491               891.3220               957.1831
 Red. masses --      1.2443                 4.5003                 1.4936
 Frc consts  --      0.5708                 2.1065                 0.8062
 IR Inten    --      0.8699                13.8730                15.1628

                     40                     41                     42
                      A                      A                      A
 Frequencies --    996.5016              1014.7363              1026.6054
 Red. masses --      2.8147                 1.3811                 3.7443
 Frc consts  --      1.6468                 0.8379                 2.3250
 IR Inten    --    124.9161                 0.1174                 0.9400

                     43                     44                     45
                      A                      A                      A
 Frequencies --   1027.8082              1037.5950              1043.3158
 Red. masses --      1.5041                 1.2157                 2.9723
 Frc consts  --      0.9362                 0.7712                 1.9062
 IR Inten    --      2.7330                39.3649                79.3946

                     46                     47                     48
                      A                      A                      A
 Frequencies --   1060.5941              1063.1571              1078.3876
 Red. masses --      1.7553                 1.7230                 1.4397
 Frc consts  --      1.1633                 1.1475                 0.9864
 IR Inten    --     32.2781                10.2813                44.0618

                     49                     50                     51
                      A                      A                      A
 Frequencies --   1081.9071              1101.8232              1106.4848
 Red. masses --      1.3717                 1.5885                 1.5637
 Frc consts  --      0.9460                 1.1362                 1.1279
 IR Inten    --     33.1723               253.8776                 8.9416

                     52                     53                     54
                      A                      A                      A
 Frequencies --   1126.8567              1132.4683              1174.6975
 Red. masses --      2.2174                 1.2329                 1.3880
 Frc consts  --      1.6589                 0.9316                 1.1284
 IR Inten    --    114.6696                 2.3082                32.0397

                     55                     56                     57
                      A                      A                      A
 Frequencies --   1180.9427              1203.0148              1205.3965
 Red. masses --      1.1316                 3.0516                 1.1350
 Frc consts  --      0.9299                 2.6021                 0.9716
 IR Inten    --      0.4827               111.7347                 1.2585

                     58                     59                     60
                      A                      A                      A
 Frequencies --   1277.1020              1290.0646              1304.2696
 Red. masses --      1.3371                 4.9170                 4.6321
 Frc consts  --      1.2849                 4.8214                 4.6426
 IR Inten    --     49.5605               116.9362                29.1601

                     61                     62                     63
                      A                      A                      A
 Frequencies --   1317.6402              1352.8285              1354.5615
 Red. masses --      4.7557                 1.2726                 1.4652
 Frc consts  --      4.8648                 1.3722                 1.5840
 IR Inten    --    238.6519                 4.9646                 2.9769

                     64                     65                     66
                      A                      A                      A
 Frequencies --   1399.8401              1419.2254              1440.3858
 Red. masses --      2.5301                 1.3375                 1.1801
 Frc consts  --      2.9211                 1.5872                 1.4425
 IR Inten    --    643.1931                17.2968                22.2995

                     67                     68                     69
                      A                      A                      A
 Frequencies --   1452.6624              1460.3856              1466.2177
 Red. masses --      1.2464                 1.1822                 1.3823
 Frc consts  --      1.5497                 1.4855                 1.7509
 IR Inten    --     45.8621                65.3265               229.8575

                     70                     71                     72
                      A                      A                      A
 Frequencies --   1477.7279              1481.4826              1486.3840
 Red. masses --      1.4137                 1.0845                 1.8399
 Frc consts  --      1.8189                 1.4024                 2.3950
 IR Inten    --    120.1046                15.2986                39.2995

                     73                     74                     75
                      A                      A                      A
 Frequencies --   1494.1862              1498.7595              1502.3316
 Red. masses --      1.1588                 1.0842                 1.1704
 Frc consts  --      1.5243                 1.4349                 1.5564
 IR Inten    --     40.5338                11.4400                27.0134

                     76                     77                     78
                      A                      A                      A
 Frequencies --   1505.7140              1519.2993              1531.7396
 Red. masses --      1.0499                 1.1400                 1.2753
 Frc consts  --      1.4025                 1.5504                 1.7630
 IR Inten    --     23.4659                40.6669               139.0790

                     79                     80                     81
                      A                      A                      A
 Frequencies --   1541.4913              1624.4048              1641.1653
 Red. masses --      2.4924                 7.8745                 1.1106
 Frc consts  --      3.4893                12.2422                 1.7624
 IR Inten    --     81.5635               683.5751                62.2145

                     82                     83                     84
                      A                      A                      A
 Frequencies --   1642.5509              1669.4546              3017.2705
 Red. masses --      5.4251                 5.9684                 1.0442
 Frc consts  --      8.6237                 9.8007                 5.6009
 IR Inten    --     32.6445                35.1699                61.5999

                     85                     86                     87
                      A                      A                      A
 Frequencies --   3020.8130              3077.3662              3081.3990
 Red. masses --      1.0497                 1.0958                 1.0352
 Frc consts  --      5.6435                 6.1144                 5.7915
 IR Inten    --    171.6653                74.0164                34.5310

                     88                     89                     90
                      A                      A                      A
 Frequencies --   3089.1399              3099.7353              3163.4039
 Red. masses --      1.0379                 1.0903                 1.1024
 Frc consts  --      5.8355                 6.1724                 6.5001
 IR Inten    --     11.0898                41.7549                 8.2367

                     91                     92                     93
                      A                      A                      A
 Frequencies --   3167.2097              3170.5412              3171.1412
 Red. masses --      1.0999                 1.1007                 1.0991
 Frc consts  --      6.5008                 6.5191                 6.5121
 IR Inten    --     17.1661                21.6510                 3.3262

                     94                     95                     96
                      A                      A                      A
 Frequencies --   3180.1961              3187.6398              3190.3072
 Red. masses --      1.1012                 1.0853                 1.1063
 Frc consts  --      6.5621                 6.4975                 6.6345
 IR Inten    --      3.3575                 3.7907                 7.1540

                     97                     98                     99
                      A                      A                      A
 Frequencies --   3193.5955              3204.0973              3209.3986
 Red. masses --      1.0881                 1.0918                 1.0947
 Frc consts  --      6.5386                 6.6040                 6.6435
 IR Inten    --      2.3265                26.3223                45.6612

                    100                    101                    102
                      A                      A                      A
 Frequencies --   3218.1743              3502.6582              3578.2900
 Red. masses --      1.0986                 1.0519                 1.0959
 Frc consts  --      6.7039                 7.6038                 8.2677
 IR Inten    --     14.1574                37.8282                70.3769

 - Thermochemistry -
 -------------------
 Temperature   298.150 Kelvin.  Pressure   1.00000 Atm.
 Atom     1 has atomic number  6 and mass  12.00000

 Molecular mass:   254.11859 amu.
 Principal axes and moments of inertia in atomic units:
                           1         2         3
     Eigenvalues --  3792.839194864.847686496.78683
           X            0.99985   0.01284  -0.01193
           Y           -0.01354   0.99810  -0.06018
           Z            0.01114   0.06033   0.99812
 This molecule is an asymmetric top.
 Rotational symmetry number  1.
 Warning -- assumption of classical behavior for rotation
           may cause significant error
 Rotational temperatures (Kelvin)      0.02284     0.01780     0.01333
 Rotational constants (GHZ):           0.47583     0.37098     0.27779
    1 imaginary frequencies ignored.
 Zero-point vibrational energy     800269.2 (Joules/Mol)
                                  191.26893 (Kcal/Mol)
 Warning -- explicit consideration of  28 degrees of freedom as
           vibrations may cause significant error
 Vibrational temperatures:     52.43    68.50    85.94   108.04   119.94
          (Kelvin)            142.75   151.97   220.53   260.78   263.54
                              275.96   315.14   330.56   358.55   380.66
                              415.18   444.70   462.55   473.89   492.89
                              564.22   588.38   616.81   640.94   664.24
                              754.40   813.03   893.12   931.88   954.63
                             1040.64  1056.37  1075.79  1117.30  1175.30
                             1269.50  1282.41  1377.17  1433.74  1459.98
                             1477.06  1478.79  1492.87  1501.10  1525.96
                             1529.65  1551.56  1556.62  1585.28  1591.98
                             1621.30  1629.37  1690.13  1699.11  1730.87
                             1734.30  1837.46  1856.12  1876.55  1895.79
                             1946.42  1948.91  2014.06  2041.95  2072.39
                             2090.06  2101.17  2109.56  2126.12  2131.52
                             2138.58  2149.80  2156.38  2161.52  2166.39
                             2185.93  2203.83  2217.86  2337.16  2361.27
                             2363.26  2401.97  4341.18  4346.28  4427.64
                             4433.45  4444.58  4459.83  4551.43  4556.91
                             4561.70  4562.56  4575.59  4586.30  4590.14
                             4594.87  4609.98  4617.61  4630.24  5039.54
                             5148.36

 Zero-point correction=                           0.304806 (Hartree/Particle)
 Thermal correction to Energy=                    0.323023
 Thermal correction to Enthalpy=                  0.323967
 Thermal correction to Gibbs Free Energy=         0.258293
 Sum of electronic and zero-point Energies=          -1151.445846
 Sum of electronic and thermal Energies=             -1151.427630
 Sum of electronic and thermal Enthalpies=           -1151.426685
 Sum of electronic and thermal Free Energies=        -1151.492359

                     E (Thermal)             CV                S
                      KCal/Mol        Cal/Mol-Kelvin    Cal/Mol-Kelvin
 Total                  202.700             67.303            138.222
 Electronic               0.000              0.000              0.000
 Translational            0.889              2.981             42.498
 Rotational               0.889              2.981             33.149
 Vibrational            200.922             61.341             62.574
 Vibration     1          0.594              1.982              5.444
 Vibration     2          0.595              1.978              4.914
 Vibration     3          0.597              1.974              4.466
 Vibration     4          0.599              1.966              4.015
 Vibration     5          0.600              1.961              3.810
 Vibration     6          0.604              1.950              3.470
 Vibration     7          0.605              1.945              3.348
 Vibration     8          0.619              1.899              2.631
 Vibration     9          0.630              1.865              2.315
 Vibration    10          0.631              1.863              2.296
 Vibration    11          0.634              1.851              2.210
 Vibration    12          0.647              1.812              1.967
 Vibration    13          0.652              1.796              1.881
 Vibration    14          0.662              1.764              1.736
 Vibration    15          0.671              1.738              1.631
 Vibration    16          0.685              1.695              1.482
 Vibration    17          0.698              1.656              1.367
 Vibration    18          0.707              1.632              1.303
 Vibration    19          0.712              1.617              1.263
 Vibration    20          0.722              1.590              1.200
 Vibration    21          0.760              1.487              0.992
 Vibration    22          0.773              1.451              0.930
 Vibration    23          0.790              1.408              0.863
 Vibration    24          0.805              1.371              0.810
 Vibration    25          0.819              1.335              0.761
 Vibration    26          0.879              1.196              0.600
 Vibration    27          0.921              1.107              0.514
 Vibration    28          0.981              0.988              0.415

 Optimization completed.
    -- Stationary point found.
 Normal termination of Gaussian 16 at Fri Feb 26 09:50:37 2021.
