 Gaussian 16, Revision A.03,
 Gaussian 16:  ES64L-G16RevA.03 25-Dec-2016

 ----------------------------------------------------------------------
 # wB97XD def2tzvp, opt=(ts, noeigen, calcfc, maxcycles=70, maxstep=8),
  freq=noraman, scrf=(iefpcm, solvent=water)
 ----------------------------------------------------------------------

 ------------------------
 1_iteration/TS-873-1.out
 ------------------------
 Symbolic Z-matrix:
 Charge =  0 Multiplicity = 1

 SCF Done:  E(RwB97XD) =  -1207.00249390     A.U. after   15 cycles
 SCF Done:  E(RwB97XD) =  -1207.00297348     A.U. after   14 cycles
 SCF Done:  E(RwB97XD) =  -1207.00324064     A.U. after   13 cycles
 SCF Done:  E(RwB97XD) =  -1207.00327060     A.U. after   12 cycles
 SCF Done:  E(RwB97XD) =  -1207.00327416     A.U. after   10 cycles
 SCF Done:  E(RwB97XD) =  -1207.00325385     A.U. after   10 cycles
 SCF Done:  E(RwB97XD) =  -1207.00327441     A.U. after   11 cycles
 Optimization completed.
    -- Stationary point found.
 Normal termination of Gaussian 16 at Thu Feb 25 08:41:42 2021.

 ---------------------------------------------------------------------
 #N Geom=AllCheck Guess=TCheck SCRF=Check GenChk RwB97XD/def2TZVP Freq
 ---------------------------------------------------------------------

 Structure from the checkpoint file:  "/beegfs/scratch/user/q/tla25/Gau-81395.chk"
 ------------------------
 1_iteration/TS-873-1.out
 ------------------------
 Charge =  0 Multiplicity = 1

                         Standard orientation:
 ---------------------------------------------------------------------
 Center     Atomic      Atomic             Coordinates (Angstroms)
 Number     Number       Type             X           Y           Z
 ---------------------------------------------------------------------
      1          6           0        1.020179    0.149333   -0.125395
      2          6           0        1.702410    1.395290   -0.270915
      3          8           0        1.210180    2.414548   -0.743977
      4          6           0       -0.286149    0.026354   -0.537794
      5          6           0       -2.928586    0.850543    0.562070
      6          1           0       -2.998543    1.502373   -0.307945
      7          1           0       -3.346150   -0.121701    0.306707
      8          1           0       -3.512615    1.283998    1.375736
      9          7           0       -1.524382    0.687400    0.922928
     10          1           0       -1.091726    1.569699    1.168339
     11          1           0       -1.400231    0.048067    1.698847
     12         17           0       -0.998454   -1.528248   -0.824004
     13          1           0       -0.647910    0.789463   -1.212576
     14         17           0        1.833070   -1.126005    0.742593
     15          1           0        2.750828    1.393092    0.078402
 ---------------------------------------------------------------------

 SCF Done:  E(RwB97XD) =  -1207.00327441     A.U. after    1 cycles

 The electronic state is 1-A.
 Alpha  occ. eigenvalues -- -101.71357-101.69790 -19.22816 -14.47635 -10.39763
 Alpha  occ. eigenvalues --  -10.36512 -10.32353 -10.31684  -9.59924  -9.58313
 Alpha  occ. eigenvalues --   -7.34581  -7.33717  -7.33649  -7.32954  -7.32099
 Alpha  occ. eigenvalues --   -7.32079  -1.13252  -1.03531  -0.99670  -0.95510
 Alpha  occ. eigenvalues --   -0.84686  -0.78636  -0.74660  -0.64402  -0.62715
 Alpha  occ. eigenvalues --   -0.59262  -0.56498  -0.54799  -0.54483  -0.51758
 Alpha  occ. eigenvalues --   -0.49608  -0.49110  -0.47853  -0.46119  -0.42865
 Alpha  occ. eigenvalues --   -0.41647  -0.39994  -0.38779  -0.34226  -0.28864
 Alpha virt. eigenvalues --    0.01555   0.07921   0.10388   0.13035   0.14468
 Alpha virt. eigenvalues --    0.14806   0.16205   0.17063   0.17757   0.19727
 Alpha virt. eigenvalues --    0.20694   0.22193   0.22910   0.24863   0.26640

 Mulliken charges:
               1
     1  C   -0.051141
     2  C    0.110091
     3  O   -0.472989
     4  C   -0.014385
     5  C   -0.264716
     6  H    0.149087
     7  H    0.146807
     8  H    0.149581
     9  N   -0.394232
    10  H    0.283163
    11  H    0.283129
    12  Cl  -0.062944
    13  H    0.191150
    14  Cl  -0.144635
    15  H    0.092034
 Sum of Mulliken charges =  -0.00000

 Dipole moment (field-independent basis, Debye):
    X=             -5.8980    Y=             -0.2916    Z=              3.2753  Tot=              6.7527
 Quadrupole moment (field-independent basis, Debye-Ang):
   XX=            -54.8164   YY=            -71.7241   ZZ=            -59.1118
   XY=             -5.5999   XZ=             -2.4673   YZ=              5.2190

  Exact polarizability: 157.144   8.764 127.393  -2.987  -4.732  92.727
 Approx polarizability: 116.019   3.929 109.926  -0.005  -5.211  83.524

 ******    1 imaginary frequencies (negative Signs) ******

                      1                      2                      3
                      A                      A                      A
 Frequencies --   -350.9442                39.6328                66.6111
 Red. masses --      6.3475                 3.1556                 2.5545
 Frc consts  --      0.4606                 0.0029                 0.0067
 IR Inten    --    806.9378                 0.3328                 6.7188

                      4                      5                      6
                      A                      A                      A
 Frequencies --    105.1935               148.2431               173.6685
 Red. masses --      4.5665                 1.9323                 2.8648
 Frc consts  --      0.0298                 0.0250                 0.0509
 IR Inten    --      6.9464                 5.1541                 2.1242

                      7                      8                      9
                      A                      A                      A
 Frequencies --    188.6640               211.4245               235.7002
 Red. masses --      5.7210                 6.2078                 2.6646
 Frc consts  --      0.1200                 0.1635                 0.0872
 IR Inten    --     16.2328                15.9815                14.7223

                     10                     11                     12
                      A                      A                      A
 Frequencies --    299.5078               420.6929               486.8583
 Red. masses --      3.5606                 9.1704                 6.4284
 Frc consts  --      0.1882                 0.9562                 0.8978
 IR Inten    --      8.9337                15.4330               179.8124

                     13                     14                     15
                      A                      A                      A
 Frequencies --    563.6100               606.3531               724.4331
 Red. masses --      4.6596                 1.6127                 4.8769
 Frc consts  --      0.8721                 0.3493                 1.5080
 IR Inten    --     63.4369                21.2449                99.8353

                     16                     17                     18
                      A                      A                      A
 Frequencies --    902.3536               995.4182              1008.9748
 Red. masses --      3.8141                 1.0950                 1.1015
 Frc consts  --      1.8298                 0.6393                 0.6607
 IR Inten    --     58.0642                46.3568                97.9722

                     19                     20                     21
                      A                      A                      A
 Frequencies --   1032.4364              1069.9667              1101.3444
 Red. masses --      1.6476                 3.2832                 1.2333
 Frc consts  --      1.0348                 2.2145                 0.8814
 IR Inten    --      7.4964               177.8019                30.8801

                     22                     23                     24
                      A                      A                      A
 Frequencies --   1193.2513              1202.5500              1241.7191
 Red. masses --      3.8329                 1.4217                 1.3320
 Frc consts  --      3.2155                 1.2113                 1.2101
 IR Inten    --     62.4958                13.9152                43.2757

                     25                     26                     27
                      A                      A                      A
 Frequencies --   1343.9205              1424.2526              1436.6046
 Red. masses --      1.3291                 1.5828                 2.7531
 Frc consts  --      1.4144                 1.8917                 3.3477
 IR Inten    --      3.2547               300.3742              1037.4742

                     28                     29                     30
                      A                      A                      A
 Frequencies --   1466.4002              1490.2770              1505.1396
 Red. masses --      1.3223                 1.0400                 1.0330
 Frc consts  --      1.6753                 1.3609                 1.3788
 IR Inten    --    163.6793                15.2744                 8.5442

                     31                     32                     33
                      A                      A                      A
 Frequencies --   1643.6132              1696.4080              2957.8486
 Red. masses --      1.0912                 7.7323                 1.0838
 Frc consts  --      1.7368                13.1106                 5.5866
 IR Inten    --     48.0780               413.3156               159.2611

                     34                     35                     36
                      A                      A                      A
 Frequencies --   3061.6620              3136.6591              3162.4867
 Red. masses --      1.0351                 1.1030                 1.1052
 Frc consts  --      5.7168                 6.3936                 6.5128
 IR Inten    --     55.2513                18.5443                15.5560

                     37                     38                     39
                      A                      A                      A
 Frequencies --   3224.8922              3530.2045              3615.4017
 Red. masses --      1.0911                 1.0502                 1.0967
 Frc consts  --      6.6856                 7.7113                 8.4460
 IR Inten    --      2.2720                25.0391                43.9486

 - Thermochemistry -
 -------------------
 Temperature   298.150 Kelvin.  Pressure   1.00000 Atm.
 Atom     1 has atomic number  6 and mass  12.00000

 Molecular mass:   154.99047 amu.
 Principal axes and moments of inertia in atomic units:
                           1         2         3
     Eigenvalues --  1235.494501724.848752391.72115
           X            0.99822  -0.05106  -0.03079
           Y            0.05146   0.99860   0.01227
           Z            0.03013  -0.01383   0.99945
 This molecule is an asymmetric top.
 Rotational symmetry number  1.
 Warning -- assumption of classical behavior for rotation
           may cause significant error
 Rotational temperatures (Kelvin)      0.07010     0.05022     0.03621
 Rotational constants (GHZ):           1.46074     1.04632     0.75458
    1 imaginary frequencies ignored.
 Zero-point vibrational energy     291376.7 (Joules/Mol)
                                   69.64070 (Kcal/Mol)
 Warning -- explicit consideration of  13 degrees of freedom as
           vibrations may cause significant error
 Vibrational temperatures:     57.02    95.84   151.35   213.29   249.87
          (Kelvin)            271.45   304.19   339.12   430.92   605.28
                              700.48   810.91   872.41  1042.30  1298.29
                             1432.18  1451.69  1485.45  1539.44  1584.59
                             1716.82  1730.20  1786.56  1933.60  2049.18
                             2066.95  2109.82  2144.18  2165.56  2364.79
                             2440.75  4255.68  4405.05  4512.95  4550.11
                             4639.90  5079.18  5201.76

 Zero-point correction=                           0.110980 (Hartree/Particle)
 Thermal correction to Energy=                    0.120761
 Thermal correction to Enthalpy=                  0.121705
 Thermal correction to Gibbs Free Energy=         0.074138
 Sum of electronic and zero-point Energies=          -1206.892295
 Sum of electronic and thermal Energies=             -1206.882514
 Sum of electronic and thermal Enthalpies=           -1206.881570
 Sum of electronic and thermal Free Energies=        -1206.929136

                     E (Thermal)             CV                S
                      KCal/Mol        Cal/Mol-Kelvin    Cal/Mol-Kelvin
 Total                   75.778             31.797            100.112
 Electronic               0.000              0.000              0.000
 Translational            0.889              2.981             41.024
 Rotational               0.889              2.981             30.012
 Vibrational             74.001             25.835             29.076
 Vibration     1          0.594              1.981              5.277
 Vibration     2          0.598              1.970              4.251
 Vibration     3          0.605              1.945              3.356
 Vibration     4          0.618              1.905              2.695
 Vibration     5          0.627              1.875              2.395
 Vibration     6          0.633              1.855              2.241
 Vibration     7          0.643              1.823              2.031
 Vibration     8          0.655              1.786              1.835
 Vibration     9          0.692              1.675              1.420
 Vibration    10          0.783              1.425              0.890
 Vibration    11          0.843              1.279              0.692
 Vibration    12          0.919              1.110              0.517
 Vibration    13          0.965              1.018              0.439

 Optimization completed.
    -- Stationary point found.
 Normal termination of Gaussian 16 at Thu Feb 25 08:47:55 2021.
