 Gaussian 16, Revision A.03,
 Gaussian 16:  ES64L-G16RevA.03 25-Dec-2016

 ----------------------------------------------------------------------
 # wB97XD def2tzvp, opt=(ts, noeigen, calcfc, maxcycles=70, maxstep=3),
  freq=noraman, scrf=(iefpcm, solvent=water)
 ----------------------------------------------------------------------

 ------------------------
 0_iteration/TS-833-0.out
 ------------------------
 Symbolic Z-matrix:
 Charge =  0 Multiplicity = 1

 SCF Done:  E(RwB97XD) =  -1438.05392919     A.U. after   15 cycles
 SCF Done:  E(RwB97XD) =  -1438.05367566     A.U. after   11 cycles
 SCF Done:  E(RwB97XD) =  -1438.05346110     A.U. after   11 cycles
 SCF Done:  E(RwB97XD) =  -1438.05328803     A.U. after   11 cycles
 SCF Done:  E(RwB97XD) =  -1438.05315639     A.U. after   11 cycles
 SCF Done:  E(RwB97XD) =  -1438.05306680     A.U. after   12 cycles
 SCF Done:  E(RwB97XD) =  -1438.05303989     A.U. after   12 cycles
 SCF Done:  E(RwB97XD) =  -1438.05307423     A.U. after   12 cycles
 SCF Done:  E(RwB97XD) =  -1438.05325942     A.U. after   12 cycles
 SCF Done:  E(RwB97XD) =  -1438.05348058     A.U. after   12 cycles
 SCF Done:  E(RwB97XD) =  -1438.05382302     A.U. after   10 cycles
 SCF Done:  E(RwB97XD) =  -1438.05381963     A.U. after   11 cycles
 SCF Done:  E(RwB97XD) =  -1438.05379981     A.U. after   12 cycles
 SCF Done:  E(RwB97XD) =  -1438.05382027     A.U. after   12 cycles
 SCF Done:  E(RwB97XD) =  -1438.05381409     A.U. after   11 cycles
 SCF Done:  E(RwB97XD) =  -1438.05382308     A.U. after   11 cycles
 SCF Done:  E(RwB97XD) =  -1438.05382309     A.U. after   10 cycles
 SCF Done:  E(RwB97XD) =  -1438.05382310     A.U. after    7 cycles
 SCF Done:  E(RwB97XD) =  -1438.05382312     A.U. after    6 cycles
 Optimization completed.
    -- Stationary point found.
 Normal termination of Gaussian 16 at Fri Mar 26 00:50:08 2021.

 ---------------------------------------------------------------------
 #N Geom=AllCheck Guess=TCheck SCRF=Check GenChk RwB97XD/def2TZVP Freq
 ---------------------------------------------------------------------

 Structure from the checkpoint file:  "/beegfs/scratch/user/q/tla25/Gau-110262.chk"
 ------------------------
 0_iteration/TS-833-0.out
 ------------------------
 Charge =  0 Multiplicity = 1

                         Standard orientation:
 ---------------------------------------------------------------------
 Center     Atomic      Atomic             Coordinates (Angstroms)
 Number     Number       Type             X           Y           Z
 ---------------------------------------------------------------------
      1          6           0        1.234422    0.481537   -0.458730
      2          6           0        0.893444    1.807458   -0.844075
      3          8           0        1.681461    2.684216   -1.183859
      4          6           0        0.318404   -0.496098   -0.067242
      5          6           0        1.087523    0.264501    2.624776
      6          1           0        1.381596    1.071338    1.946137
      7          1           0        0.270673    0.607816    3.253595
      8          1           0        1.940150    0.013336    3.252412
      9          7           0        0.671023   -0.885828    1.828458
     10          1           0        1.407020   -1.577385    1.762743
     11          1           0       -0.153876   -1.344508    2.196233
     12         17           0        0.661469   -2.167346   -0.600961
     13          6           0       -1.146668   -0.177082   -0.072440
     14          6           0       -2.008976   -0.780754   -0.982968
     15          6           0       -3.352597   -0.442204   -1.008139
     16          6           0       -3.855637    0.495411   -0.119509
     17          6           0       -3.003263    1.101160    0.791179
     18          6           0       -1.659106    0.769657    0.812295
     19          1           0       -1.631892   -1.513778   -1.681812
     20          1           0       -4.007456   -0.917381   -1.726847
     21          1           0       -4.906600    0.753377   -0.136521
     22          1           0       -3.382010    1.836741    1.488592
     23          1           0       -1.006349    1.265644    1.516073
     24         17           0        2.931640    0.071990   -0.481297
     25          1           0       -0.188244    2.011402   -0.851418
 ---------------------------------------------------------------------

 SCF Done:  E(RwB97XD) =  -1438.05382312     A.U. after    1 cycles

 The electronic state is 1-A.
 Alpha  occ. eigenvalues -- -101.70729-101.69536 -19.21944 -14.49445 -10.42136
 Alpha  occ. eigenvalues --  -10.35911 -10.32647 -10.32311 -10.32196 -10.30465
 Alpha  occ. eigenvalues --  -10.30293 -10.29974 -10.29901 -10.29847  -9.59333
 Alpha  occ. eigenvalues --   -9.58064  -7.33978  -7.33118  -7.33069  -7.32698
 Alpha  occ. eigenvalues --   -7.31856  -7.31832  -1.12468  -1.05365  -1.00336
 Alpha  occ. eigenvalues --   -0.97369  -0.94839  -0.88714  -0.86286  -0.83468
 Alpha  occ. eigenvalues --   -0.79712  -0.74973  -0.71711  -0.70385  -0.65336
 Alpha  occ. eigenvalues --   -0.63464  -0.60987  -0.58897  -0.58341  -0.56778
 Alpha  occ. eigenvalues --   -0.56501  -0.53970  -0.53460  -0.51990  -0.50695
 Alpha  occ. eigenvalues --   -0.49723  -0.48919  -0.48390  -0.47819  -0.46242
 Alpha  occ. eigenvalues --   -0.44418  -0.43773  -0.42593  -0.41077  -0.39773
 Alpha  occ. eigenvalues --   -0.39243  -0.35320  -0.34772  -0.32905  -0.29253
 Alpha virt. eigenvalues --    0.00362   0.04261   0.04842   0.07870   0.10669
 Alpha virt. eigenvalues --    0.11866   0.13340   0.13564   0.14328   0.14685
 Alpha virt. eigenvalues --    0.16425   0.17014   0.17886   0.18208   0.20137

 Mulliken charges:
               1
     1  C   -0.111324
     2  C    0.085483
     3  O   -0.474059
     4  C    0.267389
     5  C   -0.316091
     6  H    0.154666
     7  H    0.170125
     8  H    0.168292
     9  N   -0.341399
    10  H    0.286894
    11  H    0.300214
    12  Cl  -0.089562
    13  C    0.053609
    14  C   -0.235221
    15  C   -0.132183
    16  C   -0.141464
    17  C   -0.131708
    18  C   -0.261192
    19  H    0.150660
    20  H    0.149683
    21  H    0.150264
    22  H    0.149540
    23  H    0.181709
    24  Cl  -0.146389
    25  H    0.112064
 Sum of Mulliken charges =  -0.00000

 Dipole moment (field-independent basis, Debye):
    X=             -6.5098    Y=             -5.4672    Z=              7.8749  Tot=             11.5880
 Quadrupole moment (field-independent basis, Debye-Ang):
   XX=            -96.6953   YY=           -107.7427   ZZ=            -84.8556
   XY=            -13.3438   XZ=             11.4035   YZ=              6.3495

  Exact polarizability: 252.047   1.461 218.451  -1.206   2.869 194.867
 Approx polarizability: 197.398   0.345 186.519  -0.305   6.249 166.320

 ******    1 imaginary frequencies (negative Signs) ******

                      1                      2                      3
                      A                      A                      A
 Frequencies --   -312.9117                27.3367                71.7269
 Red. masses --      6.1916                 3.9380                 8.2651
 Frc consts  --      0.3572                 0.0017                 0.0251
 IR Inten    --    642.9886                 1.4867                 1.1479

                      4                      5                      6
                      A                      A                      A
 Frequencies --     83.1946                95.5980               128.5604
 Red. masses --      5.1118                 3.2950                 2.6683
 Frc consts  --      0.0208                 0.0177                 0.0260
 IR Inten    --      2.9141                 3.3200                14.1495

                      7                      8                      9
                      A                      A                      A
 Frequencies --    154.7285               174.3716               196.0195
 Red. masses --      4.3935                 1.9693                 2.0341
 Frc consts  --      0.0620                 0.0353                 0.0460
 IR Inten    --      2.8963                 0.5210                 1.2035

                     10                     11                     12
                      A                      A                      A
 Frequencies --    221.5686               233.0739               282.8314
 Red. masses --      9.5515                 5.7459                 6.1661
 Frc consts  --      0.2763                 0.1839                 0.2906
 IR Inten    --      9.1665                 2.2092                 1.8362

                     13                     14                     15
                      A                      A                      A
 Frequencies --    288.0677               309.7505               331.7207
 Red. masses --      4.7114                 3.8227                 4.0559
 Frc consts  --      0.2304                 0.2161                 0.2630
 IR Inten    --      4.3711                 6.3207                69.7140

                     16                     17                     18
                      A                      A                      A
 Frequencies --    375.2314               421.1974               426.2094
 Red. masses --      5.5670                 3.9884                 4.1867
 Frc consts  --      0.4618                 0.4169                 0.4481
 IR Inten    --     25.4484                 6.4170                 1.0622

                     19                     20                     21
                      A                      A                      A
 Frequencies --    505.1784               580.3609               609.8390
 Red. masses --      4.2033                 2.7102                 2.7760
 Frc consts  --      0.6320                 0.5378                 0.6083
 IR Inten    --     19.9100                96.6870               111.3343

                     22                     23                     24
                      A                      A                      A
 Frequencies --    638.0756               662.1507               677.1452
 Red. masses --      6.1269                 3.9922                 4.4159
 Frc consts  --      1.4697                 1.0313                 1.1930
 IR Inten    --     17.2549                98.4670                40.5458

                     25                     26                     27
                      A                      A                      A
 Frequencies --    724.8324               777.1459               835.3455
 Red. masses --      1.7004                 2.4574                 4.1031
 Frc consts  --      0.5263                 0.8744                 1.6869
 IR Inten    --     66.1393               172.8407                70.7023

                     28                     29                     30
                      A                      A                      A
 Frequencies --    877.8336               904.8328               970.7969
 Red. masses --      1.2455                 5.8049                 1.4267
 Frc consts  --      0.5655                 2.8002                 0.7922
 IR Inten    --      0.2177                85.6043                 0.4413

                     31                     32                     33
                      A                      A                      A
 Frequencies --   1018.4662              1020.7927              1027.8183
 Red. masses --      1.4284                 1.5776                 4.3444
 Frc consts  --      0.8729                 0.9686                 2.7041
 IR Inten    --      0.2856                 2.7035                 2.2053

                     34                     35                     36
                      A                      A                      A
 Frequencies --   1034.1200              1038.4572              1059.4985
 Red. masses --      1.1439                 1.3222                 1.9227
 Frc consts  --      0.7208                 0.8401                 1.2716
 IR Inten    --     19.3841                 0.2309               129.9834

                     37                     38                     39
                      A                      A                      A
 Frequencies --   1068.0404              1088.3333              1127.4855
 Red. masses --      2.1708                 1.7846                 1.5750
 Frc consts  --      1.4590                 1.2454                 1.1797
 IR Inten    --     13.7690                 7.1985                 4.5624

                     40                     41                     42
                      A                      A                      A
 Frequencies --   1188.6866              1190.6328              1205.7389
 Red. masses --      1.1376                 1.5227                 3.4543
 Frc consts  --      0.9471                 1.2718                 2.9588
 IR Inten    --      2.8953                34.6639                29.0370

                     43                     44                     45
                      A                      A                      A
 Frequencies --   1222.3584              1261.7384              1318.8013
 Red. masses --      1.1304                 4.1633                 1.4966
 Frc consts  --      0.9951                 3.9051                 1.5336
 IR Inten    --      5.9286               498.4112                12.4602

                     46                     47                     48
                      A                      A                      A
 Frequencies --   1326.5489              1368.4431              1393.2424
 Red. masses --      3.2464                 1.4582                 2.2765
 Frc consts  --      3.3659                 1.6088                 2.6036
 IR Inten    --      2.0496                15.7191               471.1389

                     49                     50                     51
                      A                      A                      A
 Frequencies --   1454.6059              1476.6250              1494.4778
 Red. masses --      1.2028                 1.9445                 1.9593
 Frc consts  --      1.4994                 2.4980                 2.5782
 IR Inten    --     35.0139               187.3004                68.9280

                     52                     53                     54
                      A                      A                      A
 Frequencies --   1496.0430              1506.8663              1547.1730
 Red. masses --      1.1420                 1.0370                 2.2786
 Frc consts  --      1.5059                 1.3873                 3.2136
 IR Inten    --     31.7852                17.7466                19.6659

                     55                     56                     57
                      A                      A                      A
 Frequencies --   1640.6027              1653.0856              1674.7489
 Red. masses --      1.0878                 5.6733                 5.8611
 Frc consts  --      1.7251                 9.1344                 9.6857
 IR Inten    --     69.6718                11.1536                13.3102

                     58                     59                     60
                      A                      A                      A
 Frequencies --   1679.8018              3006.4097              3044.5176
 Red. masses --      8.3849                 1.0833                 1.0450
 Frc consts  --     13.9400                 5.7688                 5.7071
 IR Inten    --   1051.7352                81.0703                22.0007

                     61                     62                     63
                      A                      A                      A
 Frequencies --   3133.5183              3178.6370              3203.6713
 Red. masses --      1.0907                 1.1065                 1.0868
 Frc consts  --      6.3099                 6.5869                 6.5719
 IR Inten    --      9.9664                11.3487                 0.2897

                     64                     65                     66
                      A                      A                      A
 Frequencies --   3213.9036              3224.1524              3237.3667
 Red. masses --      1.0907                 1.0954                 1.0939
 Frc consts  --      6.6376                 6.7090                 6.7547
 IR Inten    --     11.1174                19.3975                 5.5705

                     67                     68                     69
                      A                      A                      A
 Frequencies --   3244.7012              3536.9357              3619.1776
 Red. masses --      1.0930                 1.0513                 1.0969
 Frc consts  --      6.7799                 7.7489                 8.4653
 IR Inten    --      3.7834                80.8988                62.7328

 - Thermochemistry -
 -------------------
 Temperature   298.150 Kelvin.  Pressure   1.00000 Atm.
 Atom     1 has atomic number  6 and mass  12.00000

 Molecular mass:   231.02177 amu.
 Principal axes and moments of inertia in atomic units:
                           1         2         3
     Eigenvalues --  2343.194274495.607924936.41407
           X            0.99970  -0.00883   0.02299
           Y            0.00805   0.99940   0.03377
           Z           -0.02328  -0.03358   0.99916
 This molecule is an asymmetric top.
 Rotational symmetry number  1.
 Warning -- assumption of classical behavior for rotation
           may cause significant error
 Rotational temperatures (Kelvin)      0.03696     0.01927     0.01755
 Rotational constants (GHZ):           0.77021     0.40145     0.36560
    1 imaginary frequencies ignored.
 Zero-point vibrational energy     507282.1 (Joules/Mol)
                                  121.24334 (Kcal/Mol)
 Warning -- explicit consideration of  20 degrees of freedom as
           vibrations may cause significant error
 Vibrational temperatures:     39.33   103.20   119.70   137.54   184.97
          (Kelvin)            222.62   250.88   282.03   318.79   335.34
                              406.93   414.47   445.66   477.27   539.87
                              606.01   613.22   726.84   835.01   877.42
                              918.05   952.69   974.26  1042.87  1118.14
                             1201.88  1263.01  1301.85  1396.76  1465.35
                             1468.69  1478.80  1487.87  1494.11  1524.38
                             1536.67  1565.87  1622.20  1710.25  1713.06
                             1734.79  1758.70  1815.36  1897.46  1908.61
                             1968.88  2004.57  2092.85  2124.53  2150.22
                             2152.47  2168.04  2226.04  2360.46  2378.42
                             2409.59  2416.86  4325.55  4380.38  4508.43
                             4573.35  4609.37  4624.09  4638.84  4657.85
                             4668.40  5088.86  5207.19

 Zero-point correction=                           0.193214 (Hartree/Particle)
 Thermal correction to Energy=                    0.207105
 Thermal correction to Enthalpy=                  0.208049
 Thermal correction to Gibbs Free Energy=         0.151428
 Sum of electronic and zero-point Energies=          -1437.860610
 Sum of electronic and thermal Energies=             -1437.846718
 Sum of electronic and thermal Enthalpies=           -1437.845774
 Sum of electronic and thermal Free Energies=        -1437.902395

                     E (Thermal)             CV                S
                      KCal/Mol        Cal/Mol-Kelvin    Cal/Mol-Kelvin
 Total                  129.960             50.571            119.168
 Electronic               0.000              0.000              0.000
 Translational            0.889              2.981             42.214
 Rotational               0.889              2.981             32.320
 Vibrational            128.183             44.609             44.635
 Vibration     1          0.593              1.984              6.014
 Vibration     2          0.598              1.967              4.105
 Vibration     3          0.600              1.961              3.814
 Vibration     4          0.603              1.952              3.542
 Vibration     5          0.611              1.925              2.967
 Vibration     6          0.620              1.897              2.613
 Vibration     7          0.627              1.874              2.388
 Vibration     8          0.636              1.845              2.170
 Vibration     9          0.648              1.808              1.946
 Vibration    10          0.654              1.790              1.855
 Vibration    11          0.682              1.705              1.516
 Vibration    12          0.685              1.696              1.485
 Vibration    13          0.699              1.655              1.364
 Vibration    14          0.714              1.612              1.252
 Vibration    15          0.746              1.523              1.058
 Vibration    16          0.784              1.424              0.888
 Vibration    17          0.788              1.413              0.871
 Vibration    18          0.860              1.239              0.645
 Vibration    19          0.937              1.074              0.485
 Vibration    20          0.969              1.011              0.433

 Optimization completed.
    -- Stationary point found.
 Normal termination of Gaussian 16 at Fri Mar 26 01:35:29 2021.
