 Gaussian 16, Revision A.03,
 Gaussian 16:  ES64L-G16RevA.03 25-Dec-2016

 ----------------------------------------------------------------------
 # wB97XD def2tzvp, opt=(ts, noeigen, calcfc, maxcycles=70, maxstep=3),
  freq=noraman, scrf=(iefpcm, solvent=water)
 ----------------------------------------------------------------------

 ------------------------
 0_iteration/TS-826-0.out
 ------------------------
 Symbolic Z-matrix:
 Charge =  0 Multiplicity = 1

 SCF Done:  E(RwB97XD) =  -3591.37436699     A.U. after   15 cycles
 SCF Done:  E(RwB97XD) =  -3591.37436876     A.U. after   11 cycles
 SCF Done:  E(RwB97XD) =  -3591.37436913     A.U. after    9 cycles
 SCF Done:  E(RwB97XD) =  -3591.37436916     A.U. after    7 cycles
 Optimization completed.
    -- Stationary point found.
 Normal termination of Gaussian 16 at Sun Mar 28 06:37:47 2021.

 ---------------------------------------------------------------------
 #N Geom=AllCheck Guess=TCheck SCRF=Check GenChk RwB97XD/def2TZVP Freq
 ---------------------------------------------------------------------

 Structure from the checkpoint file:  "/beegfs/scratch/user/q/tla25/Gau-80919.chk"
 ------------------------
 0_iteration/TS-826-0.out
 ------------------------
 Charge =  0 Multiplicity = 1

                         Standard orientation:
 ---------------------------------------------------------------------
 Center     Atomic      Atomic             Coordinates (Angstroms)
 Number     Number       Type             X           Y           Z
 ---------------------------------------------------------------------
      1          6           0        0.874598    0.400724   -0.067591
      2          6           0        0.652682    1.735786    0.440942
      3          8           0       -0.402295    2.066048    0.980253
      4          6           0       -0.113107   -0.582444   -0.092709
      5          6           0        0.271934   -0.836137    2.738855
      6          1           0        0.693244   -1.420626    3.556431
      7          1           0        0.953380   -0.020632    2.496961
      8          1           0       -0.682305   -0.415075    3.044941
      9          7           0        0.093958   -1.650628    1.542176
     10          1           0        0.951357   -2.142798    1.316427
     11          1           0       -0.630644   -2.352268    1.644768
     12         17           0        0.136744   -1.968743   -1.196769
     13          6           0       -1.563635   -0.182943   -0.151505
     14          6           0       -1.947550    0.570443   -1.261439
     15          6           0       -3.265410    0.947170   -1.439570
     16          6           0       -4.229660    0.572259   -0.513164
     17          6           0       -3.857975   -0.186273    0.583270
     18          6           0       -2.534603   -0.567657    0.761008
     19          1           0       -1.198432    0.867055   -1.984280
     20          1           0       -3.540514    1.536262   -2.305107
     21          1           0       -5.262224    0.867118   -0.648854
     22          1           0       -4.598228   -0.489025    1.312627
     23          1           0       -2.292043   -1.153197    1.633992
     24         35           0        2.671929   -0.104524   -0.484589
     25          6           0        1.752997    2.764804    0.298457
     26          1           0        1.344517    3.739071    0.557666
     27          1           0        2.577798    2.534086    0.975760
     28          1           0        2.160969    2.788634   -0.712238
 ---------------------------------------------------------------------

 SCF Done:  E(RwB97XD) =  -3591.37436916     A.U. after    1 cycles

 The electronic state is 1-A.
 Alpha  occ. eigenvalues -- -483.12709-101.70494 -62.67538 -56.46649 -56.46306
 Alpha  occ. eigenvalues --  -56.46296 -19.21549 -14.49089 -10.41667 -10.36888
 Alpha  occ. eigenvalues --  -10.31875 -10.31835 -10.31700 -10.29877 -10.29530
 Alpha  occ. eigenvalues --  -10.29440 -10.29373 -10.29303 -10.27514  -9.59088
 Alpha  occ. eigenvalues --   -8.81650  -7.33735  -7.32874  -7.32822  -6.63778
 Alpha  occ. eigenvalues --   -6.62683  -6.62653  -2.74172  -2.73854  -2.73831
 Alpha  occ. eigenvalues --   -2.72944  -2.72944  -1.12654  -1.04941  -0.99518
 Alpha  occ. eigenvalues --   -0.96369  -0.91438  -0.87492  -0.85764  -0.83334
 Alpha  occ. eigenvalues --   -0.81534  -0.79268  -0.73002  -0.71214  -0.68782
 Alpha  occ. eigenvalues --   -0.64989  -0.62039  -0.59230  -0.58182  -0.56894
 Alpha  occ. eigenvalues --   -0.56361  -0.54418  -0.54137  -0.53196  -0.51977
 Alpha  occ. eigenvalues --   -0.51310  -0.50657  -0.48842  -0.47905  -0.47077
 Alpha  occ. eigenvalues --   -0.46659  -0.46293  -0.44271  -0.43742  -0.43333
 Alpha  occ. eigenvalues --   -0.41436  -0.39788  -0.39309  -0.36971  -0.34883
 Alpha  occ. eigenvalues --   -0.34152  -0.31652  -0.28510
 Alpha virt. eigenvalues --    0.02481   0.02924   0.04880   0.07237   0.10219
 Alpha virt. eigenvalues --    0.11229   0.12525   0.13428   0.13705   0.15076
 Alpha virt. eigenvalues --    0.15947   0.16666   0.17771   0.18372   0.18921

 Mulliken charges:
               1
     1  C   -0.279748
     2  C    0.292537
     3  O   -0.472617
     4  C    0.222857
     5  C   -0.276396
     6  H    0.161498
     7  H    0.152931
     8  H    0.152742
     9  N   -0.358407
    10  H    0.282253
    11  H    0.289501
    12  Cl  -0.093139
    13  C    0.259003
    14  C   -0.322191
    15  C   -0.113678
    16  C   -0.156457
    17  C   -0.158402
    18  C   -0.220795
    19  H    0.153884
    20  H    0.145609
    21  H    0.145924
    22  H    0.145250
    23  H    0.137302
    24  Br  -0.125774
    25  C   -0.384641
    26  H    0.129991
    27  H    0.146584
    28  H    0.144378
 Sum of Mulliken charges =  -0.00000

 Dipole moment (field-independent basis, Debye):
    X=             -0.8174    Y=             -4.7290    Z=              3.5353  Tot=              5.9607
 Quadrupole moment (field-independent basis, Debye-Ang):
   XX=           -102.5289   YY=           -106.6781   ZZ=            -98.9823
   XY=              3.3265   XZ=              3.0143   YZ=            -15.8871

  Exact polarizability: 279.802  -5.195 236.618 -14.928 -16.019 218.055
 Approx polarizability: 219.536  -7.873 195.088 -13.852 -12.503 189.156

 ******    1 imaginary frequencies (negative Signs) ******

                      1                      2                      3
                      A                      A                      A
 Frequencies --   -341.1812                39.1331                51.4074
 Red. masses --      5.3482                 4.6078                 4.5286
 Frc consts  --      0.3668                 0.0042                 0.0071
 IR Inten    --    620.6342                 0.7446                 0.6337

                      4                      5                      6
                      A                      A                      A
 Frequencies --     60.7877                86.1619               121.0760
 Red. masses --      4.1478                 5.5881                 3.6617
 Frc consts  --      0.0090                 0.0244                 0.0316
 IR Inten    --      3.2017                 5.3734                 5.6081

                      7                      8                      9
                      A                      A                      A
 Frequencies --    132.4595               145.9206               170.9186
 Red. masses --      3.7159                 1.1511                19.8667
 Frc consts  --      0.0384                 0.0144                 0.3419
 IR Inten    --      3.9581                 1.1116                 1.6570

                     10                     11                     12
                      A                      A                      A
 Frequencies --    179.3361               187.9966               212.2677
 Red. masses --      1.3315                 5.8571                 4.7889
 Frc consts  --      0.0252                 0.1220                 0.1271
 IR Inten    --      4.7049                 7.1886                 2.8782

                     13                     14                     15
                      A                      A                      A
 Frequencies --    224.3580               264.9751               292.6963
 Red. masses --      2.3761                 3.8488                 4.4397
 Frc consts  --      0.0705                 0.1592                 0.2241
 IR Inten    --      1.7576                 6.9458                 2.4422

                     16                     17                     18
                      A                      A                      A
 Frequencies --    310.5885               342.8528               369.9337
 Red. masses --      3.7745                 4.8405                 9.0092
 Frc consts  --      0.2145                 0.3352                 0.7264
 IR Inten    --     17.3976                23.9210                19.1047

                     19                     20                     21
                      A                      A                      A
 Frequencies --    405.0138               423.2560               521.8344
 Red. masses --      5.9007                 2.9130                 3.8442
 Frc consts  --      0.5703                 0.3075                 0.6168
 IR Inten    --      7.0986                 0.2084                27.1472

                     22                     23                     24
                      A                      A                      A
 Frequencies --    538.4115               565.2127               609.7805
 Red. masses --      3.9254                 2.6798                 2.6364
 Frc consts  --      0.6704                 0.5044                 0.5776
 IR Inten    --    122.5724                25.0516                55.0027

                     25                     26                     27
                      A                      A                      A
 Frequencies --    633.4110               648.2711               685.3640
 Red. masses --      5.4170                 5.2502                 2.1390
 Frc consts  --      1.2805                 1.3000                 0.5920
 IR Inten    --     19.3877                87.8065                36.3239

                     28                     29                     30
                      A                      A                      A
 Frequencies --    721.7749               755.4666               816.2879
 Red. masses --      1.7499                 2.4685                 3.0042
 Frc consts  --      0.5371                 0.8301                 1.1794
 IR Inten    --     54.4929               185.2551                15.6828

                     31                     32                     33
                      A                      A                      A
 Frequencies --    865.8369               869.7035               951.4071
 Red. masses --      4.0369                 1.3612                 1.4730
 Frc consts  --      1.7831                 0.6066                 0.7856
 IR Inten    --     82.0863                10.8774                 1.8230

                     34                     35                     36
                      A                      A                      A
 Frequencies --    990.0281               994.0537              1011.0631
 Red. masses --      1.6518                 1.5782                 1.3818
 Frc consts  --      0.9539                 0.9188                 0.8323
 IR Inten    --     37.8723                12.6667                 1.5318

                     37                     38                     39
                      A                      A                      A
 Frequencies --   1021.6092              1024.6493              1029.3493
 Red. masses --      1.9751                 5.1111                 1.3110
 Frc consts  --      1.2145                 3.1617                 0.8184
 IR Inten    --     25.2991                 3.6974                 0.8538

                     40                     41                     42
                      A                      A                      A
 Frequencies --   1044.1516              1060.4390              1071.3525
 Red. masses --      1.8176                 1.2955                 2.0708
 Frc consts  --      1.1676                 0.8583                 1.4004
 IR Inten    --     15.5873                67.0050                15.5483

                     43                     44                     45
                      A                      A                      A
 Frequencies --   1078.5979              1132.8909              1186.6771
 Red. masses --      4.8092                 1.6090                 1.2146
 Frc consts  --      3.2964                 1.2167                 1.0078
 IR Inten    --     40.6580                 9.6839                 8.6434

                     46                     47                     48
                      A                      A                      A
 Frequencies --   1197.5386              1225.7724              1236.7609
 Red. masses --      3.0101                 1.3968                 1.1878
 Frc consts  --      2.5433                 1.2365                 1.0704
 IR Inten    --    108.6831                20.0965                 0.8951

                     49                     50                     51
                      A                      A                      A
 Frequencies --   1295.3121              1321.0253              1342.4733
 Red. masses --      4.3401                 4.9578                 1.3327
 Frc consts  --      4.2904                 5.0976                 1.4151
 IR Inten    --    236.1536               133.7325                17.8299

                     52                     53                     54
                      A                      A                      A
 Frequencies --   1378.2551              1384.9022              1401.1695
 Red. masses --      1.7154                 1.4645                 2.5671
 Frc consts  --      1.9198                 1.6549                 2.9694
 IR Inten    --    129.1356                32.3092               789.0838

                     55                     56                     57
                      A                      A                      A
 Frequencies --   1454.0680              1468.7771              1471.1702
 Red. masses --      1.0687                 1.1030                 1.1610
 Frc consts  --      1.3313                 1.4020                 1.4806
 IR Inten    --     37.3848                 8.7334                25.0892

                     58                     59                     60
                      A                      A                      A
 Frequencies --   1489.4111              1491.7783              1509.8224
 Red. masses --      1.0631                 2.0790                 1.0467
 Frc consts  --      1.3895                 2.7259                 1.4058
 IR Inten    --     26.1427                22.2864                13.7387

                     61                     62                     63
                      A                      A                      A
 Frequencies --   1549.7344              1649.2894              1659.4269
 Red. masses --      2.2033                 1.6117                 2.1997
 Frc consts  --      3.1177                 2.5830                 3.5688
 IR Inten    --     25.4481                78.7259                19.2666

                     64                     65                     66
                      A                      A                      A
 Frequencies --   1676.0628              1677.4850              3063.6634
 Red. masses --      8.1805                 5.6210                 1.0368
 Frc consts  --     13.5398                 9.3192                 5.7336
 IR Inten    --    346.7038                69.6159                 5.4815

                     67                     68                     69
                      A                      A                      A
 Frequencies --   3073.5015              3135.4456              3147.8089
 Red. masses --      1.0337                 1.0994                 1.1044
 Frc consts  --      5.7534                 6.3679                 6.4476
 IR Inten    --     31.7137                10.1236                 9.1371

                     70                     71                     72
                      A                      A                      A
 Frequencies --   3168.1367              3178.4894              3198.9496
 Red. masses --      1.1042                 1.1045                 1.0861
 Frc consts  --      6.5302                 6.5747                 6.5486
 IR Inten    --     25.7735                13.8703                 0.5612

                     73                     74                     75
                      A                      A                      A
 Frequencies --   3206.5373              3215.2113              3224.6385
 Red. masses --      1.0893                 1.0939                 1.0983
 Frc consts  --      6.5990                 6.6627                 6.7285
 IR Inten    --      4.0816                22.6477                21.2764

                     76                     77                     78
                      A                      A                      A
 Frequencies --   3260.1223              3524.5989              3601.1151
 Red. masses --      1.0906                 1.0514                 1.0953
 Frc consts  --      6.8296                 7.6956                 8.3687
 IR Inten    --     16.6496                49.5153                50.1482

 - Thermochemistry -
 -------------------
 Temperature   298.150 Kelvin.  Pressure   1.00000 Atm.
 Atom     1 has atomic number  6 and mass  12.00000

 Molecular mass:   288.98690 amu.
 Principal axes and moments of inertia in atomic units:
                           1         2         3
     Eigenvalues --  2753.948796026.496656539.36817
           X            0.99975   0.01593   0.01574
           Y           -0.01346   0.98915  -0.14629
           Z           -0.01790   0.14604   0.98912
 This molecule is an asymmetric top.
 Rotational symmetry number  1.
 Warning -- assumption of classical behavior for rotation
           may cause significant error
 Rotational temperatures (Kelvin)      0.03145     0.01437     0.01324
 Rotational constants (GHZ):           0.65533     0.29947     0.27598
    1 imaginary frequencies ignored.
 Zero-point vibrational energy     578557.2 (Joules/Mol)
                                  138.27850 (Kcal/Mol)
 Warning -- explicit consideration of  23 degrees of freedom as
           vibrations may cause significant error
 Vibrational temperatures:     56.30    73.96    87.46   123.97   174.20
          (Kelvin)            190.58   209.95   245.91   258.02   270.49
                              305.41   322.80   381.24   421.12   446.87
                              493.29   532.25   582.72   608.97   750.80
                              774.65   813.21   877.34   911.34   932.72
                              986.09  1038.47  1086.95  1174.46  1245.75
                             1251.31  1368.86  1424.43  1430.22  1454.69
                             1469.87  1474.24  1481.00  1502.30  1525.74
                             1541.44  1551.86  1629.98  1707.36  1722.99
                             1763.61  1779.42  1863.67  1900.66  1931.52
                             1983.00  1992.57  2015.97  2092.08  2113.24
                             2116.69  2142.93  2146.34  2172.30  2229.72
                             2372.96  2387.55  2411.48  2413.53  4407.93
                             4422.08  4511.21  4528.99  4558.24  4573.14
                             4602.58  4613.49  4625.97  4639.54  4690.59
                             5071.11  5181.20

 Zero-point correction=                           0.220361 (Hartree/Particle)
 Thermal correction to Energy=                    0.236013
 Thermal correction to Enthalpy=                  0.236958
 Thermal correction to Gibbs Free Energy=         0.176119
 Sum of electronic and zero-point Energies=          -3591.154008
 Sum of electronic and thermal Energies=             -3591.138356
 Sum of electronic and thermal Enthalpies=           -3591.137412
 Sum of electronic and thermal Free Energies=        -3591.198251

                     E (Thermal)             CV                S
                      KCal/Mol        Cal/Mol-Kelvin    Cal/Mol-Kelvin
 Total                  148.101             56.763            128.046
 Electronic               0.000              0.000              0.000
 Translational            0.889              2.981             42.881
 Rotational               0.889              2.981             33.051
 Vibrational            146.323             50.801             52.115
 Vibration     1          0.594              1.981              5.302
 Vibration     2          0.596              1.977              4.762
 Vibration     3          0.597              1.973              4.431
 Vibration     4          0.601              1.959              3.745
 Vibration     5          0.609              1.932              3.083
 Vibration     6          0.613              1.921              2.910
 Vibration     7          0.617              1.907              2.725
 Vibration     8          0.626              1.878              2.425
 Vibration     9          0.629              1.868              2.335
 Vibration    10          0.633              1.856              2.247
 Vibration    11          0.643              1.822              2.024
 Vibration    12          0.649              1.804              1.924
 Vibration    13          0.671              1.737              1.629
 Vibration    14          0.688              1.687              1.458
 Vibration    15          0.699              1.654              1.359
 Vibration    16          0.722              1.590              1.199
 Vibration    17          0.742              1.534              1.080
 Vibration    18          0.770              1.459              0.944
 Vibration    19          0.785              1.420              0.881
 Vibration    20          0.877              1.202              0.606
 Vibration    21          0.893              1.165              0.569
 Vibration    22          0.921              1.107              0.514
 Vibration    23          0.969              1.011              0.433

 Optimization completed.
    -- Stationary point found.
 Normal termination of Gaussian 16 at Sun Mar 28 07:41:12 2021.
