 Gaussian 16, Revision A.03,
 Gaussian 16:  ES64L-G16RevA.03 25-Dec-2016

 ----------------------------------------------------------------------
 # wB97XD def2tzvp, opt=(ts, noeigen, calcfc, maxcycles=70, maxstep=5),
  freq=noraman, scrf=(iefpcm, solvent=water)
 ----------------------------------------------------------------------

 ------------------------
 2_iteration/TS-828-2.out
 ------------------------
 Symbolic Z-matrix:
 Charge =  0 Multiplicity = 1

 SCF Done:  E(RwB97XD) =  -3666.61225929     A.U. after   15 cycles
 SCF Done:  E(RwB97XD) =  -3666.61229065     A.U. after   11 cycles
 SCF Done:  E(RwB97XD) =  -3666.61228907     A.U. after   10 cycles
 SCF Done:  E(RwB97XD) =  -3666.61229164     A.U. after    9 cycles
 SCF Done:  E(RwB97XD) =  -3666.61229213     A.U. after    7 cycles
 Optimization completed.
    -- Stationary point found.
 Normal termination of Gaussian 16 at Fri Feb 26 08:14:38 2021.

 ---------------------------------------------------------------------
 #N Geom=AllCheck Guess=TCheck SCRF=Check GenChk RwB97XD/def2TZVP Freq
 ---------------------------------------------------------------------

 Structure from the checkpoint file:  "/beegfs/scratch/user/q/tla25/Gau-97571.chk"
 ------------------------
 2_iteration/TS-828-2.out
 ------------------------
 Charge =  0 Multiplicity = 1

                         Standard orientation:
 ---------------------------------------------------------------------
 Center     Atomic      Atomic             Coordinates (Angstroms)
 Number     Number       Type             X           Y           Z
 ---------------------------------------------------------------------
      1          6           0        0.819969    0.080086   -0.151492
      2          6           0        0.744062    1.484663    0.176214
      3          8           0       -0.225841    2.051700    0.650056
      4          6           0       -0.272146   -0.775449   -0.023426
      5          6           0        0.132479   -0.707932    2.786449
      6          1           0        0.477073   -1.236761    3.674330
      7          1           0        0.913351   -0.024653    2.453930
      8          1           0       -0.758238   -0.132814    3.025299
      9          7           0       -0.152604   -1.638104    1.698450
     10          1           0        0.640860   -2.249514    1.538966
     11          1           0       -0.949930   -2.235323    1.887452
     12         17           0       -0.208134   -2.309576   -0.956719
     13          6           0       -1.668742   -0.218881   -0.124921
     14          6           0       -1.988796    0.425432   -1.320384
     15          6           0       -3.256447    0.932595   -1.534234
     16          6           0       -4.234487    0.801325   -0.556988
     17          6           0       -3.928320    0.151558    0.625828
     18          6           0       -2.655570   -0.361738    0.839169
     19          1           0       -1.228544    0.532526   -2.083306
     20          1           0       -3.481466    1.433489   -2.467111
     21          1           0       -5.227451    1.199960   -0.720098
     22          1           0       -4.680361    0.037945    1.395912
     23          1           0       -2.465321   -0.856128    1.779032
     24         35           0        2.545206   -0.663432   -0.482380
     25          8           0        1.877465    2.156301   -0.103590
     26          6           0        1.874719    3.544098    0.209504
     27          1           0        1.690203    3.703102    1.271951
     28          1           0        2.864379    3.906887   -0.055541
     29          1           0        1.116432    4.072361   -0.368500
 ---------------------------------------------------------------------

 SCF Done:  E(RwB97XD) =  -3666.61229213     A.U. after    1 cycles

 The electronic state is 1-A.
 Alpha  occ. eigenvalues -- -483.12570-101.70361 -62.67396 -56.46513 -56.46161
 Alpha  occ. eigenvalues --  -56.46150 -19.28816 -19.22013 -14.49583 -10.41802
 Alpha  occ. eigenvalues --  -10.41058 -10.32887 -10.32082 -10.31877 -10.31782
 Alpha  occ. eigenvalues --  -10.29989 -10.29584 -10.29497 -10.29421 -10.29363
 Alpha  occ. eigenvalues --   -9.58956  -8.81506  -7.33602  -7.32740  -7.32693
 Alpha  occ. eigenvalues --   -6.63655  -6.62530  -6.62498  -2.74046  -2.73719
 Alpha  occ. eigenvalues --   -2.73694  -2.72784  -2.72784  -1.20505  -1.10823
 Alpha  occ. eigenvalues --   -1.05421  -0.99494  -0.96369  -0.91426  -0.87502
 Alpha  occ. eigenvalues --   -0.85832  -0.83271  -0.81121  -0.79547  -0.72972
 Alpha  occ. eigenvalues --   -0.71296  -0.69119  -0.65316  -0.63852  -0.61582
 Alpha  occ. eigenvalues --   -0.59093  -0.58143  -0.57346  -0.56741  -0.56184
 Alpha  occ. eigenvalues --   -0.54655  -0.53450  -0.52606  -0.51382  -0.51162
 Alpha  occ. eigenvalues --   -0.49121  -0.48147  -0.47976  -0.46928  -0.46527
 Alpha  occ. eigenvalues --   -0.44492  -0.43955  -0.43399  -0.41423  -0.39816
 Alpha  occ. eigenvalues --   -0.39536  -0.38701  -0.37413  -0.35911  -0.34252
 Alpha  occ. eigenvalues --   -0.32695  -0.28403
 Alpha virt. eigenvalues --    0.02478   0.04145   0.04858   0.07386   0.10385
 Alpha virt. eigenvalues --    0.11228   0.12715   0.13661   0.14412   0.15437
 Alpha virt. eigenvalues --    0.15665   0.16513   0.17208   0.17941   0.18851

 Mulliken charges:
               1
     1  C   -0.329026
     2  C    0.459486
     3  O   -0.474624
     4  C    0.220033
     5  C   -0.287884
     6  H    0.164758
     7  H    0.157649
     8  H    0.155163
     9  N   -0.337491
    10  H    0.284750
    11  H    0.291757
    12  Cl  -0.101237
    13  C    0.242874
    14  C   -0.316547
    15  C   -0.114686
    16  C   -0.154528
    17  C   -0.161400
    18  C   -0.219905
    19  H    0.155607
    20  H    0.146054
    21  H    0.146393
    22  H    0.145729
    23  H    0.139394
    24  Br  -0.119943
    25  O   -0.298236
    26  C   -0.194731
    27  H    0.129288
    28  H    0.141255
    29  H    0.130048
 Sum of Mulliken charges =  -0.00000

 Dipole moment (field-independent basis, Debye):
    X=             -2.3840    Y=             -2.8535    Z=              5.0222  Tot=              6.2488
 Quadrupole moment (field-independent basis, Debye-Ang):
   XX=           -109.0552   YY=           -106.5571   ZZ=            -99.8873
   XY=              4.2108   XZ=              1.6241   YZ=            -13.8791

  Exact polarizability: 279.597  -9.531 239.121 -15.719 -15.997 224.584
 Approx polarizability: 220.564 -10.224 195.724 -14.537 -11.965 194.696

 ******    1 imaginary frequencies (negative Signs) ******

                      1                      2                      3
                      A                      A                      A
 Frequencies --   -340.5231                33.0613                44.2964
 Red. masses --      5.3387                 3.9382                 5.4766
 Frc consts  --      0.3647                 0.0025                 0.0063
 IR Inten    --    640.3949                 0.4429                 1.7651

                      4                      5                      6
                      A                      A                      A
 Frequencies --     53.5010                82.6840               103.8606
 Red. masses --      5.6274                 5.3349                 3.6480
 Frc consts  --      0.0095                 0.0215                 0.0232
 IR Inten    --      1.2448                 3.7255                 2.9967

                      7                      8                      9
                      A                      A                      A
 Frequencies --    119.3600               135.7928               144.0168
 Red. masses --      2.9122                 4.2497                 1.4209
 Frc consts  --      0.0244                 0.0462                 0.0174
 IR Inten    --      0.9680                 3.4666                 3.0260

                     10                     11                     12
                      A                      A                      A
 Frequencies --    164.0011               167.6120               176.1027
 Red. masses --      4.1403                 1.9779                 2.0644
 Frc consts  --      0.0656                 0.0327                 0.0377
 IR Inten    --      2.9029                 0.9147                 2.5488

                     13                     14                     15
                      A                      A                      A
 Frequencies --    205.5472               209.2175               255.3970
 Red. masses --      5.0958                 3.1529                 4.5664
 Frc consts  --      0.1268                 0.0813                 0.1755
 IR Inten    --      9.6425                 2.4292                 5.1920

                     16                     17                     18
                      A                      A                      A
 Frequencies --    277.4555               300.2227               316.8622
 Red. masses --      4.9091                 3.8810                 5.1815
 Frc consts  --      0.2227                 0.2061                 0.3065
 IR Inten    --      2.3998                14.7891                23.9603

                     19                     20                     21
                      A                      A                      A
 Frequencies --    346.9104               380.6389               417.2668
 Red. masses --      6.0566                 7.6496                 9.7417
 Frc consts  --      0.4295                 0.6530                 0.9993
 IR Inten    --     18.1281                37.8432                14.3771

                     22                     23                     24
                      A                      A                      A
 Frequencies --    420.7183               526.0172               565.2408
 Red. masses --      2.8621                 3.6641                 3.6075
 Frc consts  --      0.2985                 0.5973                 0.6791
 IR Inten    --      0.1421                 5.1344               151.7011

                     25                     26                     27
                      A                      A                      A
 Frequencies --    600.9777               639.4395               682.4437
 Red. masses --      3.5345                 6.3745                 2.5199
 Frc consts  --      0.7521                 1.5357                 0.6915
 IR Inten    --     44.8308                12.7097                51.6088

                     28                     29                     30
                      A                      A                      A
 Frequencies --    718.6161               723.4465               775.3505
 Red. masses --      2.1731                 2.3666                 2.7922
 Frc consts  --      0.6612                 0.7298                 0.9890
 IR Inten    --      4.1136               240.7569                83.4042

                     31                     32                     33
                      A                      A                      A
 Frequencies --    787.8326               826.8632               866.1231
 Red. masses --     10.6467                 3.5677                 1.2728
 Frc consts  --      3.8934                 1.4371                 0.5626
 IR Inten    --     64.8672                48.4855                 1.2956

                     34                     35                     36
                      A                      A                      A
 Frequencies --    877.7264               951.9805               993.9009
 Red. masses --      4.7038                 1.4905                 1.1297
 Frc consts  --      2.1351                 0.7959                 0.6575
 IR Inten    --     85.8746                 0.6148                30.7636

                     37                     38                     39
                      A                      A                      A
 Frequencies --   1004.7614              1010.4103              1024.8843
 Red. masses --      4.5067                 1.4059                 5.2381
 Frc consts  --      2.6806                 0.8456                 3.2417
 IR Inten    --     13.6870                 0.1910                 2.0669

                     40                     41                     42
                      A                      A                      A
 Frequencies --   1030.9362              1062.6584              1066.2513
 Red. masses --      1.3145                 2.1126                 1.3423
 Frc consts  --      0.8231                 1.4056                 0.8991
 IR Inten    --      0.2173                20.9208                60.9612

                     43                     44                     45
                      A                      A                      A
 Frequencies --   1077.7650              1102.0780              1123.2025
 Red. masses --      4.1905                 5.4994                 1.5600
 Frc consts  --      2.8679                 3.9354                 1.1595
 IR Inten    --     67.8361               207.7028                10.1130

                     46                     47                     48
                      A                      A                      A
 Frequencies --   1182.6737              1186.3180              1204.3443
 Red. masses --      1.2817                 1.1313                 2.2185
 Frc consts  --      1.0563                 0.9380                 1.8959
 IR Inten    --      1.9229                 0.0704                45.3001

                     49                     50                     51
                      A                      A                      A
 Frequencies --   1213.2949              1223.7809              1233.8714
 Red. masses --      1.1900                 1.8658                 1.5405
 Frc consts  --      1.0321                 1.6463                 1.3818
 IR Inten    --     30.3046                73.9200                41.2587

                     52                     53                     54
                      A                      A                      A
 Frequencies --   1295.5695              1320.1430              1341.5883
 Red. masses --      6.9157                 4.1525                 1.3222
 Frc consts  --      6.8392                 4.2638                 1.4022
 IR Inten    --    985.3612                97.3827                15.0154

                     55                     56                     57
                      A                      A                      A
 Frequencies --   1357.1660              1415.8489              1461.1294
 Red. masses --      1.5063                 4.7418                 1.2822
 Frc consts  --      1.6346                 5.6006                 1.6128
 IR Inten    --      9.2174               601.4806                25.9166

                     58                     59                     60
                      A                      A                      A
 Frequencies --   1479.4294              1482.4115              1488.8663
 Red. masses --      1.1932                 1.0485                 1.1373
 Frc consts  --      1.5387                 1.3575                 1.4854
 IR Inten    --     78.6135                15.3529                 3.5606

                     61                     62                     63
                      A                      A                      A
 Frequencies --   1490.2417              1496.7439              1502.2297
 Red. masses --      1.8463                 1.0681                 1.0485
 Frc consts  --      2.4159                 1.4098                 1.3941
 IR Inten    --     43.8692                 8.4416                16.4528

                     64                     65                     66
                      A                      A                      A
 Frequencies --   1542.9838              1651.0450              1658.2494
 Red. masses --      2.3565                 1.9834                 1.7175
 Frc consts  --      3.3055                 3.1855                 2.7825
 IR Inten    --     25.6304                54.7351                37.5406

                     67                     68                     69
                      A                      A                      A
 Frequencies --   1675.0318              1706.7131              3064.5301
 Red. masses --      5.8551                11.4104                 1.0308
 Frc consts  --      9.6791                19.5827                 5.7038
 IR Inten    --      0.7755               582.5815                57.0140

                     70                     71                     72
                      A                      A                      A
 Frequencies --   3075.7845              3141.0277              3151.9311
 Red. masses --      1.0336                 1.1068                 1.1046
 Frc consts  --      5.7614                 6.4340                 6.4658
 IR Inten    --     29.2091                35.4745                 7.4053

                     73                     74                     75
                      A                      A                      A
 Frequencies --   3175.7692              3179.9554              3199.2309
 Red. masses --      1.1054                 1.1051                 1.0862
 Frc consts  --      6.5686                 6.5839                 6.5499
 IR Inten    --     24.6421                12.9026                 0.4491

                     76                     77                     78
                      A                      A                      A
 Frequencies --   3206.9335              3215.5987              3224.5979
 Red. masses --      1.0893                 1.0938                 1.0980
 Frc consts  --      6.6002                 6.6635                 6.7267
 IR Inten    --      3.8011                20.6782                21.6975

                     79                     80                     81
                      A                      A                      A
 Frequencies --   3246.1118              3520.9216              3596.7183
 Red. masses --      1.0926                 1.0515                 1.0956
 Frc consts  --      6.7835                 7.6805                 8.3504
 IR Inten    --     17.4238                48.4218                51.6229

 - Thermochemistry -
 -------------------
 Temperature   298.150 Kelvin.  Pressure   1.00000 Atm.
 Atom     1 has atomic number  6 and mass  12.00000

 Molecular mass:   304.98182 amu.
 Principal axes and moments of inertia in atomic units:
                           1         2         3
     Eigenvalues --  3514.589806115.499067424.04929
           X            0.99929   0.03534   0.01276
           Y           -0.03458   0.99786  -0.05543
           Z           -0.01469   0.05495   0.99838
 This molecule is an asymmetric top.
 Rotational symmetry number  1.
 Warning -- assumption of classical behavior for rotation
           may cause significant error
 Rotational temperatures (Kelvin)      0.02464     0.01416     0.01167
 Rotational constants (GHZ):           0.51350     0.29511     0.24309
    1 imaginary frequencies ignored.
 Zero-point vibrational energy     592164.8 (Joules/Mol)
                                  141.53077 (Kcal/Mol)
 Warning -- explicit consideration of  24 degrees of freedom as
           vibrations may cause significant error
 Vibrational temperatures:     47.57    63.73    76.98   118.96   149.43
          (Kelvin)            171.73   195.38   207.21   235.96   241.16
                              253.37   295.74   301.02   367.46   399.20
                              431.95   455.89   499.13   547.65   600.35
                              605.32   756.82   813.26   864.67   920.01
                              981.88  1033.93  1040.88  1115.56  1133.52
                             1189.67  1246.16  1262.85  1369.69  1430.00
                             1445.63  1453.76  1474.58  1483.29  1528.93
                             1534.10  1550.66  1585.64  1616.04  1701.60
                             1706.85  1732.78  1745.66  1760.75  1775.27
                             1864.04  1899.39  1930.25  1952.66  2037.09
                             2102.24  2128.57  2132.86  2142.15  2144.13
                             2153.48  2161.37  2220.01  2375.49  2385.85
                             2410.00  2455.58  4409.18  4425.37  4519.24
                             4534.93  4569.22  4575.25  4602.98  4614.06
                             4626.53  4639.48  4670.43  5065.82  5174.88

 Zero-point correction=                           0.225544 (Hartree/Particle)
 Thermal correction to Energy=                    0.242310
 Thermal correction to Enthalpy=                  0.243255
 Thermal correction to Gibbs Free Energy=         0.179403
 Sum of electronic and zero-point Energies=          -3666.386748
 Sum of electronic and thermal Energies=             -3666.369982
 Sum of electronic and thermal Enthalpies=           -3666.369038
 Sum of electronic and thermal Free Energies=        -3666.432889

                     E (Thermal)             CV                S
                      KCal/Mol        Cal/Mol-Kelvin    Cal/Mol-Kelvin
 Total                  152.052             59.705            134.387
 Electronic               0.000              0.000              0.000
 Translational            0.889              2.981             43.042
 Rotational               0.889              2.981             33.434
 Vibrational            150.275             53.744             57.912
 Vibration     1          0.594              1.983              5.637
 Vibration     2          0.595              1.980              5.057
 Vibration     3          0.596              1.976              4.684
 Vibration     4          0.600              1.961              3.826
 Vibration     5          0.605              1.946              3.381
 Vibration     6          0.609              1.933              3.111
 Vibration     7          0.614              1.918              2.862
 Vibration     8          0.616              1.909              2.750
 Vibration     9          0.623              1.887              2.503
 Vibration    10          0.624              1.882              2.462
 Vibration    11          0.628              1.872              2.369
 Vibration    12          0.640              1.832              2.083
 Vibration    13          0.642              1.827              2.050
 Vibration    14          0.666              1.754              1.693
 Vibration    15          0.678              1.715              1.549
 Vibration    16          0.693              1.673              1.416
 Vibration    17          0.704              1.641              1.326
 Vibration    18          0.725              1.582              1.180
 Vibration    19          0.750              1.511              1.037
 Vibration    20          0.780              1.433              0.901
 Vibration    21          0.783              1.425              0.890
 Vibration    22          0.881              1.192              0.596
 Vibration    23          0.921              1.106              0.513
 Vibration    24          0.959              1.030              0.448

 Optimization completed.
    -- Stationary point found.
 Normal termination of Gaussian 16 at Fri Feb 26 09:26:22 2021.
