 Gaussian 16, Revision A.03,
 Gaussian 16:  ES64L-G16RevA.03 25-Dec-2016

 ----------------------------------------------------------------------
 # wB97XD def2tzvp, opt=(ts, noeigen, calcfc, maxcycles=70, maxstep=3),
  freq=noraman, scrf=(iefpcm, solvent=water)
 ----------------------------------------------------------------------

 ------------------------
 0_iteration/TS-892-0.out
 ------------------------
 Symbolic Z-matrix:
 Charge =  0 Multiplicity = 1

 SCF Done:  E(RwB97XD) =  -901.276141784     A.U. after   14 cycles
 SCF Done:  E(RwB97XD) =  -901.276640349     A.U. after   11 cycles
 SCF Done:  E(RwB97XD) =  -901.277072103     A.U. after   11 cycles
 SCF Done:  E(RwB97XD) =  -901.277398206     A.U. after   11 cycles
 SCF Done:  E(RwB97XD) =  -901.277583693     A.U. after   11 cycles
 SCF Done:  E(RwB97XD) =  -901.277631871     A.U. after   11 cycles
 SCF Done:  E(RwB97XD) =  -901.277641283     A.U. after   10 cycles
 SCF Done:  E(RwB97XD) =  -901.277642915     A.U. after   10 cycles
 SCF Done:  E(RwB97XD) =  -901.277643011     A.U. after    8 cycles
 Optimization completed.
    -- Stationary point found.
 Normal termination of Gaussian 16 at Mon Apr 12 07:19:07 2021.

 ---------------------------------------------------------------------
 #N Geom=AllCheck Guess=TCheck SCRF=Check GenChk RwB97XD/def2TZVP Freq
 ---------------------------------------------------------------------

 Structure from the checkpoint file:  "/beegfs/scratch/user/q/tla25/Gau-405599.chk"
 ------------------------
 0_iteration/TS-892-0.out
 ------------------------
 Charge =  0 Multiplicity = 1

                         Standard orientation:
 ---------------------------------------------------------------------
 Center     Atomic      Atomic             Coordinates (Angstroms)
 Number     Number       Type             X           Y           Z
 ---------------------------------------------------------------------
      1          6           0       -0.219470   -0.572768   -0.396696
      2          6           0       -1.483660   -0.181361    0.127349
      3          8           0       -1.740207    0.422792    1.162697
      4          6           0        1.004551   -0.284561    0.205059
      5          6           0        0.853765    2.400553   -0.524227
      6          1           0        1.159659    3.184672   -1.215418
      7          1           0       -0.145871    2.056055   -0.791213
      8          1           0        0.841409    2.797215    0.487994
      9          7           0        1.756578    1.255880   -0.588294
     10          1           0        1.907021    0.965773   -1.548176
     11          1           0        2.663016    1.460602   -0.180896
     12         17           0        2.321405   -1.404250   -0.304145
     13          6           0        1.138644    0.076613    1.657368
     14          1           0        0.460547    0.890079    1.900874
     15          1           0        0.853596   -0.784793    2.261576
     16          1           0        2.163229    0.350464    1.902273
     17          1           0       -0.217853   -1.071010   -1.354854
     18          8           0       -2.493935   -0.584608   -0.698785
     19          6           0       -3.811289   -0.259010   -0.285619
     20          1           0       -4.050193   -0.716206    0.675624
     21          1           0       -3.945352    0.820785   -0.205620
     22          1           0       -4.471253   -0.654817   -1.054347
 ---------------------------------------------------------------------

 SCF Done:  E(RwB97XD) =  -901.277643011     A.U. after    1 cycles

 The electronic state is 1-A.
 Alpha  occ. eigenvalues -- -101.69433 -19.27399 -19.20644 -14.49325 -10.40287
 Alpha  occ. eigenvalues --  -10.39164 -10.32255 -10.31846 -10.28476 -10.25050
 Alpha  occ. eigenvalues --   -9.58042  -7.32654  -7.31839  -7.31805  -1.18620
 Alpha  occ. eigenvalues --   -1.09166  -1.05080  -0.96999  -0.87114  -0.83440
 Alpha  occ. eigenvalues --   -0.79268  -0.78592  -0.68722  -0.63706  -0.62733
 Alpha  occ. eigenvalues --   -0.59026  -0.57607  -0.56811  -0.55869  -0.54801
 Alpha  occ. eigenvalues --   -0.53477  -0.50352  -0.49798  -0.48427  -0.46760
 Alpha  occ. eigenvalues --   -0.46572  -0.46094  -0.44526  -0.42991  -0.39801
 Alpha  occ. eigenvalues --   -0.38942  -0.37505  -0.34540  -0.28030
 Alpha virt. eigenvalues --    0.06106   0.08299   0.10535   0.13162   0.14588
 Alpha virt. eigenvalues --    0.15314   0.15844   0.16967   0.17129   0.18490
 Alpha virt. eigenvalues --    0.19239   0.20189   0.20886   0.21298   0.21579

 Mulliken charges:
               1
     1  C   -0.517382
     2  C    0.448836
     3  O   -0.525733
     4  C    0.224275
     5  C   -0.304394
     6  H    0.162107
     7  H    0.153482
     8  H    0.160939
     9  N   -0.295757
    10  H    0.283459
    11  H    0.291036
    12  Cl  -0.145069
    13  C   -0.385042
    14  H    0.155477
    15  H    0.149317
    16  H    0.143105
    17  H    0.128061
    18  O   -0.317286
    19  C   -0.186282
    20  H    0.121671
    21  H    0.120904
    22  H    0.134275
 Sum of Mulliken charges =  -0.00000

 Dipole moment (field-independent basis, Debye):
    X=              4.9201    Y=              4.9076    Z=             -2.3133  Tot=              7.3241
 Quadrupole moment (field-independent basis, Debye-Ang):
   XX=            -59.5332   YY=            -64.0223   ZZ=            -68.0676
   XY=             10.0894   XZ=              2.0154   YZ=             -4.6062

  Exact polarizability: 179.355   2.192 133.564  -4.706   3.621 120.674
 Approx polarizability: 133.394   0.073 111.102  -3.834   5.550 106.183

 ******    1 imaginary frequencies (negative Signs) ******

                      1                      2                      3
                      A                      A                      A
 Frequencies --   -360.9133                56.8916                70.1093
 Red. masses --      5.5734                 2.9153                 4.2396
 Frc consts  --      0.4277                 0.0056                 0.0123
 IR Inten    --    812.8555                 3.7887                 1.6112

                      4                      5                      6
                      A                      A                      A
 Frequencies --     73.6424               134.7154               156.8263
 Red. masses --      2.4194                 2.7840                 4.0821
 Frc consts  --      0.0077                 0.0298                 0.0592
 IR Inten    --     11.5122                 7.3082                 5.9327

                      7                      8                      9
                      A                      A                      A
 Frequencies --    179.4038               195.4621               212.9499
 Red. masses --      1.2439                 1.3290                 2.6078
 Frc consts  --      0.0236                 0.0299                 0.0697
 IR Inten    --      0.7740                 0.6110                 3.7814

                     10                     11                     12
                      A                      A                      A
 Frequencies --    250.8287               287.3011               291.1155
 Red. masses --      1.3008                 3.3464                 2.6382
 Frc consts  --      0.0482                 0.1627                 0.1317
 IR Inten    --      4.4037                11.3906                 7.7131

                     13                     14                     15
                      A                      A                      A
 Frequencies --    308.8121               342.1392               366.7236
 Red. masses --      3.4110                 3.5119                 5.3007
 Frc consts  --      0.1917                 0.2422                 0.4200
 IR Inten    --     29.8754                18.5923                22.6903

                     16                     17                     18
                      A                      A                      A
 Frequencies --    440.7531               501.6235               658.0408
 Red. masses --      3.8265                 3.0872                 2.2974
 Frc consts  --      0.4380                 0.4577                 0.5861
 IR Inten    --     39.1567                55.7620                79.1249

                     19                     20                     21
                      A                      A                      A
 Frequencies --    698.0354               733.1585               747.9021
 Red. masses --      1.4354                 1.7100                 4.2762
 Frc consts  --      0.4121                 0.5416                 1.4093
 IR Inten    --     74.2340                73.4231                60.7400

                     22                     23                     24
                      A                      A                      A
 Frequencies --    798.7106               913.8974               981.3196
 Red. masses --      7.7091                 4.6216                 2.5055
 Frc consts  --      2.8976                 2.2743                 1.4216
 IR Inten    --     88.5200               197.6272                43.9315

                     25                     26                     27
                      A                      A                      A
 Frequencies --   1009.9679              1049.1743              1067.9623
 Red. masses --      1.1643                 1.1708                 1.6897
 Frc consts  --      0.6997                 0.7593                 1.1355
 IR Inten    --     28.2044                20.7957               112.6201

                     28                     29                     30
                      A                      A                      A
 Frequencies --   1081.9429              1109.1363              1112.4908
 Red. masses --      2.9926                 2.1772                 2.6907
 Frc consts  --      2.0640                 1.5780                 1.9620
 IR Inten    --      2.5998                26.6222               276.1488

                     31                     32                     33
                      A                      A                      A
 Frequencies --   1182.3080              1204.0768              1215.6334
 Red. masses --      1.2828                 3.5637                 1.5039
 Frc consts  --      1.0565                 3.0441                 1.3094
 IR Inten    --      1.6335               677.6497                23.7764

                     34                     35                     36
                      A                      A                      A
 Frequencies --   1237.5853              1337.8709              1361.7473
 Red. masses --      1.3876                 1.4247                 1.7526
 Frc consts  --      1.2522                 1.5025                 1.9148
 IR Inten    --     55.2112                 0.4239                 7.4721

                     37                     38                     39
                      A                      A                      A
 Frequencies --   1423.0669              1448.6770              1460.9042
 Red. masses --      1.3613                 1.3043                 1.1305
 Frc consts  --      1.6243                 1.6128                 1.4215
 IR Inten    --     61.0094               275.7816               124.0698

                     40                     41                     42
                      A                      A                      A
 Frequencies --   1466.6953              1481.6343              1483.6395
 Red. masses --      1.3011                 1.0861                 1.1324
 Frc consts  --      1.6491                 1.4047                 1.4686
 IR Inten    --    134.7774                93.7453               140.2557

                     43                     44                     45
                      A                      A                      A
 Frequencies --   1491.4367              1497.3468              1508.3712
 Red. masses --      1.0958                 1.0596                 1.0961
 Frc consts  --      1.4361                 1.3998                 1.4694
 IR Inten    --     81.7036                31.4661                69.5194

                     46                     47                     48
                      A                      A                      A
 Frequencies --   1510.6547              1640.0793              1693.4336
 Red. masses --      1.4913                 1.0886                10.1545
 Frc consts  --      2.0051                 1.7252                17.1571
 IR Inten    --    417.1536                72.4984               728.8635

                     49                     50                     51
                      A                      A                      A
 Frequencies --   3054.9310              3071.5188              3079.4091
 Red. masses --      1.0312                 1.0332                 1.0365
 Frc consts  --      5.6701                 5.7431                 5.7909
 IR Inten    --     69.2564                31.6641                13.7039

                     52                     53                     54
                      A                      A                      A
 Frequencies --   3126.4862              3149.0929              3154.3929
 Red. masses --      1.1062                 1.1046                 1.1028
 Frc consts  --      6.3707                 6.4538                 6.4649
 IR Inten    --     47.0666                 5.9718                19.4351

                     55                     56                     57
                      A                      A                      A
 Frequencies --   3162.5008              3173.0650              3184.0622
 Red. masses --      1.1046                 1.1057                 1.1021
 Frc consts  --      6.5090                 6.5591                 6.5834
 IR Inten    --     30.8036                13.4358                 1.6416

                     58                     59                     60
                      A                      A                      A
 Frequencies --   3225.1623              3514.5283              3598.9958
 Red. masses --      1.0889                 1.0508                 1.0968
 Frc consts  --      6.6732                 7.6471                 8.3700
 IR Inten    --      1.9998                50.9503                49.3186

 - Thermochemistry -
 -------------------
 Temperature   298.150 Kelvin.  Pressure   1.00000 Atm.
 Atom     1 has atomic number  6 and mass  12.00000

 Molecular mass:   165.05566 amu.
 Principal axes and moments of inertia in atomic units:
                           1         2         3
     Eigenvalues --  1075.457812809.241983185.88885
           X            0.99929   0.03656   0.00955
           Y           -0.03618   0.99865  -0.03729
           Z           -0.01090   0.03692   0.99926
 This molecule is an asymmetric top.
 Rotational symmetry number  1.
 Warning -- assumption of classical behavior for rotation
           may cause significant error
 Rotational temperatures (Kelvin)      0.08054     0.03083     0.02719
 Rotational constants (GHZ):           1.67811     0.64243     0.56648
    1 imaginary frequencies ignored.
 Zero-point vibrational energy     478328.9 (Joules/Mol)
                                  114.32334 (Kcal/Mol)
 Warning -- explicit consideration of  16 degrees of freedom as
           vibrations may cause significant error
 Vibrational temperatures:     81.85   100.87   105.95   193.83   225.64
          (Kelvin)            258.12   281.23   306.39   360.89   413.36
                              418.85   444.31   492.26   527.63   634.15
                              721.72   946.77  1004.32  1054.85  1076.06
                             1149.17  1314.89  1411.90  1453.12  1509.53
                             1536.56  1556.67  1595.80  1600.63  1701.08
                             1732.40  1749.03  1780.61  1924.90  1959.25
                             2047.48  2084.32  2101.92  2110.25  2131.74
                             2134.63  2145.84  2154.35  2170.21  2173.50
                             2359.71  2436.47  4395.36  4419.23  4430.58
                             4498.32  4530.84  4538.47  4550.13  4565.33
                             4581.16  4640.29  5056.62  5178.15

 Zero-point correction=                           0.182186 (Hartree/Particle)
 Thermal correction to Energy=                    0.194313
 Thermal correction to Enthalpy=                  0.195257
 Thermal correction to Gibbs Free Energy=         0.143542
 Sum of electronic and zero-point Energies=           -901.095457
 Sum of electronic and thermal Energies=              -901.083331
 Sum of electronic and thermal Enthalpies=            -901.082386
 Sum of electronic and thermal Free Energies=         -901.134101

                     E (Thermal)             CV                S
                      KCal/Mol        Cal/Mol-Kelvin    Cal/Mol-Kelvin
 Total                  121.933             42.353            108.842
 Electronic               0.000              0.000              0.000
 Translational            0.889              2.981             41.212
 Rotational               0.889              2.981             30.643
 Vibrational            120.155             36.392             36.987
 Vibration     1          0.596              1.975              4.562
 Vibration     2          0.598              1.968              4.150
 Vibration     3          0.599              1.966              4.054
 Vibration     4          0.613              1.919              2.878
 Vibration     5          0.620              1.895              2.588
 Vibration     6          0.629              1.868              2.335
 Vibration     7          0.636              1.846              2.175
 Vibration     8          0.644              1.821              2.018
 Vibration     9          0.663              1.761              1.725
 Vibration    10          0.684              1.697              1.490
 Vibration    11          0.687              1.690              1.467
 Vibration    12          0.698              1.657              1.369
 Vibration    13          0.721              1.591              1.202
 Vibration    14          0.740              1.541              1.093
 Vibration    15          0.801              1.381              0.824
 Vibration    16          0.857              1.246              0.654

 Optimization completed.
    -- Stationary point found.
 Normal termination of Gaussian 16 at Mon Apr 12 07:25:25 2021.
