 Gaussian 16, Revision A.03,
 Gaussian 16:  ES64L-G16RevA.03 25-Dec-2016

 ----------------------------------------------------------------------
 # wB97XD def2tzvp, opt=(ts, noeigen, calcfc, maxcycles=70, maxstep=5),
  freq=noraman, scrf=(iefpcm, solvent=water)
 ----------------------------------------------------------------------

 ------------------------
 2_iteration/TS-820-2.out
 ------------------------
 Symbolic Z-matrix:
 Charge =  0 Multiplicity = 1

 SCF Done:  E(RwB97XD) =  -1132.31461736     A.U. after   14 cycles
 SCF Done:  E(RwB97XD) =  -1132.31466181     A.U. after   12 cycles
 SCF Done:  E(RwB97XD) =  -1132.31466799     A.U. after   10 cycles
 SCF Done:  E(RwB97XD) =  -1132.31466859     A.U. after   11 cycles
 SCF Done:  E(RwB97XD) =  -1132.31466963     A.U. after   10 cycles
 SCF Done:  E(RwB97XD) =  -1132.31466974     A.U. after    7 cycles
 Optimization completed on the basis of negligible forces.
    -- Stationary point found.
 Normal termination of Gaussian 16 at Fri Feb 26 09:16:36 2021.

 ---------------------------------------------------------------------
 #N Geom=AllCheck Guess=TCheck SCRF=Check GenChk RwB97XD/def2TZVP Freq
 ---------------------------------------------------------------------

 Structure from the checkpoint file:  "/beegfs/scratch/user/q/tla25/Gau-45693.chk"
 ------------------------
 2_iteration/TS-820-2.out
 ------------------------
 Charge =  0 Multiplicity = 1

                         Standard orientation:
 ---------------------------------------------------------------------
 Center     Atomic      Atomic             Coordinates (Angstroms)
 Number     Number       Type             X           Y           Z
 ---------------------------------------------------------------------
      1          6           0       -1.285282    0.444460   -0.367050
      2          6           0       -1.614008   -0.873414    0.081915
      3          8           0       -0.929017   -1.646880    0.742965
      4          6           0        0.022599    0.919314   -0.190743
      5          6           0       -0.552047    1.426478    2.459505
      6          1           0        0.094668    0.666182    2.888540
      7          1           0       -0.767632    2.191121    3.203449
      8          1           0       -1.481428    0.960304    2.133477
      9          7           0        0.085106    2.016690    1.283441
     10          1           0       -0.442105    2.822939    0.966085
     11          1           0        1.028810    2.342179    1.466101
     12         17           0        0.497930    2.235738   -1.377256
     13          6           0        1.196777   -0.019416   -0.081855
     14          6           0        2.119533   -0.032882    0.954302
     15          6           0        3.192467   -0.915894    0.936580
     16          6           0        3.366114   -1.787933   -0.123077
     17          6           0        2.456748   -1.770038   -1.173515
     18          6           0        1.388342   -0.894443   -1.152103
     19          1           0        2.029160    0.620139    1.809391
     20          1           0        3.892694   -0.914352    1.762059
     21          1           0        4.203375   -2.473862   -0.135346
     22          1           0        2.580808   -2.442484   -2.012891
     23          1           0        0.679937   -0.886058   -1.970407
     24          6           0       -2.360423    1.347016   -0.924327
     25          1           0       -2.231628    2.382019   -0.598614
     26          1           0       -2.376645    1.363442   -2.019096
     27          1           0       -3.343494    1.025795   -0.587745
     28          8           0       -2.867157   -1.249702   -0.309336
     29          6           0       -3.306349   -2.521986    0.135524
     30          1           0       -3.306430   -2.582367    1.224768
     31          1           0       -4.321319   -2.634652   -0.239472
     32          1           0       -2.676727   -3.319621   -0.260992
 ---------------------------------------------------------------------

 SCF Done:  E(RwB97XD) =  -1132.31466974     A.U. after    1 cycles

 The electronic state is 1-A.
 Alpha  occ. eigenvalues -- -101.69259 -19.27276 -19.20201 -14.50607 -10.40684
 Alpha  occ. eigenvalues --  -10.38753 -10.32188 -10.32166 -10.31366 -10.29756
 Alpha  occ. eigenvalues --  -10.29306 -10.29241 -10.29192 -10.29143 -10.26860
 Alpha  occ. eigenvalues --  -10.25969  -9.57867  -7.32475  -7.31667  -7.31629
 Alpha  occ. eigenvalues --   -1.18506  -1.08840  -1.06249  -0.98374  -0.95450
 Alpha  occ. eigenvalues --   -0.88345  -0.86359  -0.85539  -0.80653  -0.79905
 Alpha  occ. eigenvalues --   -0.77816  -0.71670  -0.70993  -0.68256  -0.65595
 Alpha  occ. eigenvalues --   -0.62859  -0.60883  -0.59172  -0.57859  -0.56822
 Alpha  occ. eigenvalues --   -0.55699  -0.55088  -0.54284  -0.52902  -0.51719
 Alpha  occ. eigenvalues --   -0.51161  -0.50528  -0.49195  -0.48615  -0.47559
 Alpha  occ. eigenvalues --   -0.46443  -0.46135  -0.45972  -0.45602  -0.43794
 Alpha  occ. eigenvalues --   -0.42993  -0.42141  -0.39851  -0.39501  -0.37334
 Alpha  occ. eigenvalues --   -0.35332  -0.34004  -0.32219  -0.26749
 Alpha virt. eigenvalues --    0.03162   0.05040   0.06713   0.09336   0.10158
 Alpha virt. eigenvalues --    0.12544   0.13161   0.14152   0.15408   0.15667
 Alpha virt. eigenvalues --    0.16533   0.16846   0.17836   0.18519   0.18689

 Mulliken charges:
               1
     1  C   -0.327104
     2  C    0.452863
     3  O   -0.518116
     4  C    0.238372
     5  C   -0.294112
     6  H    0.156648
     7  H    0.167093
     8  H    0.162126
     9  N   -0.275842
    10  H    0.285749
    11  H    0.291417
    12  Cl  -0.152770
    13  C    0.257675
    14  C   -0.232430
    15  C   -0.166998
    16  C   -0.155627
    17  C   -0.120739
    18  C   -0.324582
    19  H    0.138328
    20  H    0.144195
    21  H    0.144844
    22  H    0.143823
    23  H    0.151972
    24  C   -0.400743
    25  H    0.114070
    26  H    0.123946
    27  H    0.130427
    28  O   -0.319626
    29  C   -0.188603
    30  H    0.119764
    31  H    0.133159
    32  H    0.120819
 Sum of Mulliken charges =  -0.00000

 Dipole moment (field-independent basis, Debye):
    X=              1.3526    Y=              4.9166    Z=              4.4046  Tot=              6.7382
 Quadrupole moment (field-independent basis, Debye-Ang):
   XX=            -96.3263   YY=            -93.2309   ZZ=            -94.6736
   XY=             -2.0546   XZ=              1.4774   YZ=             16.2242

  Exact polarizability: 247.029  -4.958 243.925  18.570   7.407 219.694
 Approx polarizability: 194.443  -5.862 197.013  15.963   6.178 189.105

 ******    1 imaginary frequencies (negative Signs) ******

                      1                      2                      3
                      A                      A                      A
 Frequencies --   -346.0929                32.3905                46.0108
 Red. masses --      5.5062                 3.4001                 2.9089
 Frc consts  --      0.3886                 0.0021                 0.0036
 IR Inten    --    677.6900                 1.0755                 0.5207

                      4                      5                      6
                      A                      A                      A
 Frequencies --     59.1272                86.2517                96.9431
 Red. masses --      4.7414                 4.8406                 1.2355
 Frc consts  --      0.0098                 0.0212                 0.0068
 IR Inten    --      2.1265                 4.9557                 1.0601

                      7                      8                      9
                      A                      A                      A
 Frequencies --    119.9717               128.8275               137.3242
 Red. masses --      2.4636                 2.3962                 2.3014
 Frc consts  --      0.0209                 0.0234                 0.0256
 IR Inten    --      1.3899                 5.3133                 6.8799

                     10                     11                     12
                      A                      A                      A
 Frequencies --    161.6410               174.3040               180.5840
 Red. masses --      1.9659                 1.4825                 2.3805
 Frc consts  --      0.0303                 0.0265                 0.0457
 IR Inten    --      1.5336                 0.1789                 5.0857

                     13                     14                     15
                      A                      A                      A
 Frequencies --    212.6548               226.5094               269.0408
 Red. masses --      5.5925                 3.4178                 3.1996
 Frc consts  --      0.1490                 0.1033                 0.1365
 IR Inten    --      5.6743                12.6662                11.2771

                     16                     17                     18
                      A                      A                      A
 Frequencies --    287.3142               309.9082               344.1835
 Red. masses --      3.7951                 4.6704                 3.2677
 Frc consts  --      0.1846                 0.2643                 0.2281
 IR Inten    --     12.6582                16.1925                 7.8649

                     19                     20                     21
                      A                      A                      A
 Frequencies --    350.8031               374.4916               387.1689
 Red. masses --      4.3635                 4.0165                 5.4667
 Frc consts  --      0.3164                 0.3319                 0.4828
 IR Inten    --     26.7243                39.0588                 6.7220

                     22                     23                     24
                      A                      A                      A
 Frequencies --    423.2945               516.1772               551.3925
 Red. masses --      2.8672                 3.8139                 4.6172
 Frc consts  --      0.3027                 0.5987                 0.8271
 IR Inten    --      0.2619                23.5719                17.5448

                     25                     26                     27
                      A                      A                      A
 Frequencies --    582.7529               635.1462               644.1402
 Red. masses --      4.0778                 3.8539                 4.0936
 Frc consts  --      0.8159                 0.9160                 1.0007
 IR Inten    --    166.1937                22.3917                78.4338

                     28                     29                     30
                      A                      A                      A
 Frequencies --    692.9120               716.2973               726.5619
 Red. masses --      4.6771                 2.1591                 1.6198
 Frc consts  --      1.3231                 0.6527                 0.5038
 IR Inten    --     94.9211                 5.9387               223.3047

                     31                     32                     33
                      A                      A                      A
 Frequencies --    783.2419               794.0612               833.3728
 Red. masses --      2.5827                 8.0192                 3.9531
 Frc consts  --      0.9335                 2.9791                 1.6176
 IR Inten    --    106.3226                82.5383                98.1730

                     34                     35                     36
                      A                      A                      A
 Frequencies --    866.0214               901.5080               949.7760
 Red. masses --      1.2565                 3.0184                 1.4731
 Frc consts  --      0.5552                 1.4453                 0.7830
 IR Inten    --      0.2267                88.3499                 1.1886

                     37                     38                     39
                      A                      A                      A
 Frequencies --   1004.7988              1008.5922              1024.9379
 Red. masses --      1.1956                 1.3413                 5.0593
 Frc consts  --      0.7112                 0.8039                 3.1314
 IR Inten    --     38.4240                10.2204                18.4623

                     40                     41                     42
                      A                      A                      A
 Frequencies --   1028.1624              1033.5599              1054.6895
 Red. masses --      1.3145                 1.9741                 3.9408
 Frc consts  --      0.8187                 1.2425                 2.5828
 IR Inten    --      0.3110               146.6991                28.1261

                     43                     44                     45
                      A                      A                      A
 Frequencies --   1063.4559              1067.7941              1076.4931
 Red. masses --      1.5713                 2.0199                 2.0766
 Frc consts  --      1.0470                 1.3569                 1.4179
 IR Inten    --     21.7674                 1.0906                18.0841

                     46                     47                     48
                      A                      A                      A
 Frequencies --   1094.0483              1126.2485              1167.7021
 Red. masses --      1.5902                 1.5874                 5.5130
 Frc consts  --      1.1215                 1.1863                 4.4290
 IR Inten    --    138.1340                15.2203               437.5332

                     49                     50                     51
                      A                      A                      A
 Frequencies --   1182.6580              1185.2733              1213.6311
 Red. masses --      1.2906                 1.1321                 1.5888
 Frc consts  --      1.0635                 0.9371                 1.3787
 IR Inten    --      6.4835                 0.6849               178.2608

                     52                     53                     54
                      A                      A                      A
 Frequencies --   1220.7706              1221.7243              1252.2015
 Red. masses --      1.1754                 3.0779                 1.4326
 Frc consts  --      1.0320                 2.7068                 1.3235
 IR Inten    --      6.7841                43.0066                45.5438

                     55                     56                     57
                      A                      A                      A
 Frequencies --   1321.1196              1338.8855              1348.1734
 Red. masses --      4.6154                 1.9841                 2.2859
 Frc consts  --      4.7462                 2.0956                 2.4480
 IR Inten    --      2.8348               206.7568               356.0964

                     58                     59                     60
                      A                      A                      A
 Frequencies --   1363.9432              1420.4389              1426.1290
 Red. masses --      1.4269                 2.9938                 1.3234
 Frc consts  --      1.5639                 3.5589                 1.5858
 IR Inten    --      5.3836               445.0259                62.3099

                     61                     62                     63
                      A                      A                      A
 Frequencies --   1460.0922              1477.5583              1480.5885
 Red. masses --      1.2791                 1.1611                 1.0508
 Frc consts  --      1.6066                 1.4935                 1.3572
 IR Inten    --     25.9131                42.6924                 3.9565

                     64                     65                     66
                      A                      A                      A
 Frequencies --   1482.0170              1488.1016              1490.4653
 Red. masses --      1.0576                 1.0523                 2.1372
 Frc consts  --      1.3686                 1.3730                 2.7973
 IR Inten    --     23.6987                13.3911                30.6087

                     67                     68                     69
                      A                      A                      A
 Frequencies --   1496.9481              1503.0832              1504.4170
 Red. masses --      1.0525                 1.1215                 1.0510
 Frc consts  --      1.3896                 1.4928                 1.4015
 IR Inten    --     32.0647               115.3891                24.3140

                     70                     71                     72
                      A                      A                      A
 Frequencies --   1545.6858              1647.7332              1657.7503
 Red. masses --      2.3493                 1.4936                 2.4178
 Frc consts  --      3.3070                 2.3892                 3.9148
 IR Inten    --     30.0688               106.1407                15.8033

                     73                     74                     75
                      A                      A                      A
 Frequencies --   1676.7154              1689.4819              3027.3434
 Red. masses --      5.5915                11.1941                 1.0469
 Frc consts  --      9.2618                18.8255                 5.6528
 IR Inten    --      0.6676               725.0458                96.7959

                     76                     77                     78
                      A                      A                      A
 Frequencies --   3054.8790              3079.8554              3080.6428
 Red. masses --      1.0310                 1.0335                 1.0951
 Frc consts  --      5.6690                 5.7761                 6.1231
 IR Inten    --     71.4985                27.3706                53.3174

                     79                     80                     81
                      A                      A                      A
 Frequencies --   3126.7094              3150.2337              3160.5297
 Red. masses --      1.1062                 1.0955                 1.1045
 Frc consts  --      6.3717                 6.4057                 6.5004
 IR Inten    --     46.1895                25.0946                 2.5866

                     82                     83                     84
                      A                      A                      A
 Frequencies --   3160.8806              3186.1308              3197.6679
 Red. masses --      1.1047                 1.1059                 1.0860
 Frc consts  --      6.5032                 6.6144                 6.5425
 IR Inten    --     32.2859                11.0107                 0.4146

                     85                     86                     87
                      A                      A                      A
 Frequencies --   3205.5605              3214.4820              3223.2249
 Red. masses --      1.0891                 1.0935                 1.0977
 Frc consts  --      6.5939                 6.6573                 6.7190
 IR Inten    --      4.2236                22.7583                24.1644

                     88                     89                     90
                      A                      A                      A
 Frequencies --   3240.0092              3517.2874              3590.3435
 Red. masses --      1.0928                 1.0521                 1.0951
 Frc consts  --      6.7593                 7.6691                 8.3169
 IR Inten    --     17.5047                51.7551                56.6669

 - Thermochemistry -
 -------------------
 Temperature   298.150 Kelvin.  Pressure   1.00000 Atm.
 Atom     1 has atomic number  6 and mass  12.00000

 Molecular mass:   241.08696 amu.
 Principal axes and moments of inertia in atomic units:
                           1         2         3
     Eigenvalues --  3190.171294371.394395526.99333
           X            0.99981  -0.01786   0.00759
           Y            0.01736   0.99795   0.06158
           Z           -0.00867  -0.06143   0.99807
 This molecule is an asymmetric top.
 Rotational symmetry number  1.
 Warning -- assumption of classical behavior for rotation
           may cause significant error
 Rotational temperatures (Kelvin)      0.02715     0.01981     0.01567
 Rotational constants (GHZ):           0.56572     0.41285     0.32653
    1 imaginary frequencies ignored.
 Zero-point vibrational energy     691824.1 (Joules/Mol)
                                  165.34993 (Kcal/Mol)
 Warning -- explicit consideration of  24 degrees of freedom as
           vibrations may cause significant error
 Vibrational temperatures:     46.60    66.20    85.07   124.10   139.48
          (Kelvin)            172.61   185.35   197.58   232.57   250.78
                              259.82   305.96   325.90   387.09   413.38
                              445.89   495.20   504.73   538.81   557.05
                              609.03   742.66   793.33   838.45   913.83
                              926.77   996.95  1030.59  1045.36  1126.91
                             1142.48  1199.04  1246.01  1297.07  1366.52
                             1445.68  1451.14  1474.66  1479.30  1487.06
                             1517.46  1530.08  1536.32  1548.83  1574.09
                             1620.42  1680.06  1701.58  1705.34  1746.14
                             1756.42  1757.79  1801.64  1900.80  1926.36
                             1939.72  1962.41  2043.69  2051.88  2100.75
                             2125.88  2130.24  2132.29  2141.05  2144.45
                             2153.77  2162.60  2164.52  2223.90  2370.72
                             2385.13  2412.42  2430.79  4355.67  4395.29
                             4431.22  4432.36  4498.64  4532.48  4547.30
                             4547.80  4584.13  4600.73  4612.09  4624.92
                             4637.50  4661.65  5060.59  5165.70

 Zero-point correction=                           0.263502 (Hartree/Particle)
 Thermal correction to Energy=                    0.280393
 Thermal correction to Enthalpy=                  0.281337
 Thermal correction to Gibbs Free Energy=         0.218143
 Sum of electronic and zero-point Energies=          -1132.051168
 Sum of electronic and thermal Energies=             -1132.034276
 Sum of electronic and thermal Enthalpies=           -1132.033332
 Sum of electronic and thermal Free Energies=        -1132.096527

                     E (Thermal)             CV                S
                      KCal/Mol        Cal/Mol-Kelvin    Cal/Mol-Kelvin
 Total                  175.949             61.296            133.003
 Electronic               0.000              0.000              0.000
 Translational            0.889              2.981             42.341
 Rotational               0.889              2.981             32.711
 Vibrational            174.172             55.334             57.952
 Vibration     1          0.594              1.983              5.677
 Vibration     2          0.595              1.979              4.982
 Vibration     3          0.596              1.974              4.486
 Vibration     4          0.601              1.959              3.743
 Vibration     5          0.603              1.951              3.515
 Vibration     6          0.609              1.933              3.101
 Vibration     7          0.611              1.924              2.963
 Vibration     8          0.614              1.916              2.841
 Vibration     9          0.622              1.889              2.531
 Vibration    10          0.627              1.874              2.389
 Vibration    11          0.630              1.866              2.322
 Vibration    12          0.644              1.822              2.021
 Vibration    13          0.650              1.801              1.906
 Vibration    14          0.673              1.730              1.602
 Vibration    15          0.684              1.697              1.490
 Vibration    16          0.699              1.655              1.363
 Vibration    17          0.723              1.587              1.193
 Vibration    18          0.728              1.574              1.163
 Vibration    19          0.746              1.524              1.061
 Vibration    20          0.756              1.498              1.011
 Vibration    21          0.785              1.420              0.881
 Vibration    22          0.871              1.214              0.619
 Vibration    23          0.907              1.137              0.541
 Vibration    24          0.940              1.069              0.480

 Optimization completed on the basis of negligible forces.
    -- Stationary point found.
 Normal termination of Gaussian 16 at Fri Feb 26 10:52:24 2021.
