 Gaussian 16, Revision A.03,
 Gaussian 16:  ES64L-G16RevA.03 25-Dec-2016

 ----------------------------------------------------------------------
 # wB97XD def2tzvp, opt=(ts, noeigen, calcfc, maxcycles=70, maxstep=1),
  freq=noraman, scrf=(iefpcm, solvent=water)
 ----------------------------------------------------------------------

 ------------------------
 0_iteration/TS-877-0.out
 ------------------------
 Symbolic Z-matrix:
 Charge =  0 Multiplicity = 1

 SCF Done:  E(RwB97XD) =  -1301.70232308     A.U. after   15 cycles
 SCF Done:  E(RwB97XD) =  -1301.70229890     A.U. after   10 cycles
 SCF Done:  E(RwB97XD) =  -1301.70227895     A.U. after   10 cycles
 SCF Done:  E(RwB97XD) =  -1301.70226326     A.U. after   10 cycles
 SCF Done:  E(RwB97XD) =  -1301.70225186     A.U. after   10 cycles
 SCF Done:  E(RwB97XD) =  -1301.70224485     A.U. after   10 cycles
 SCF Done:  E(RwB97XD) =  -1301.70224272     A.U. after   10 cycles
 SCF Done:  E(RwB97XD) =  -1301.70224652     A.U. after    9 cycles
 SCF Done:  E(RwB97XD) =  -1301.70225589     A.U. after    9 cycles
 SCF Done:  E(RwB97XD) =  -1301.70226947     A.U. after    9 cycles
 SCF Done:  E(RwB97XD) =  -1301.70276514     A.U. after    9 cycles
 SCF Done:  E(RwB97XD) =  -1301.70278113     A.U. after    9 cycles
 SCF Done:  E(RwB97XD) =  -1301.70279458     A.U. after    9 cycles
 SCF Done:  E(RwB97XD) =  -1301.70280537     A.U. after    9 cycles
 SCF Done:  E(RwB97XD) =  -1301.70281371     A.U. after    9 cycles
 SCF Done:  E(RwB97XD) =  -1301.70281995     A.U. after    9 cycles
 SCF Done:  E(RwB97XD) =  -1301.70282413     A.U. after    9 cycles
 SCF Done:  E(RwB97XD) =  -1301.70282613     A.U. after    9 cycles
 SCF Done:  E(RwB97XD) =  -1301.70282628     A.U. after    8 cycles
 Optimization completed.
    -- Stationary point found.
 Normal termination of Gaussian 16 at Wed Feb 24 03:20:23 2021.

 ---------------------------------------------------------------------
 #N Geom=AllCheck Guess=TCheck SCRF=Check GenChk RwB97XD/def2TZVP Freq
 ---------------------------------------------------------------------

 Structure from the checkpoint file:  "/beegfs/scratch/user/q/tla25/Gau-23389.chk"
 ------------------------
 0_iteration/TS-877-0.out
 ------------------------
 Charge =  0 Multiplicity = 1

                         Standard orientation:
 ---------------------------------------------------------------------
 Center     Atomic      Atomic             Coordinates (Angstroms)
 Number     Number       Type             X           Y           Z
 ---------------------------------------------------------------------
      1          6           0        0.077123   -0.378934   -0.119915
      2          6           0        1.371881    0.184219   -0.465442
      3          8           0        1.478085    1.126476   -1.264394
      4          6           0       -1.070546    0.196903   -0.610098
      5          6           0       -0.850300    2.308623    1.164573
      6          1           0       -1.242814    2.898042    1.992262
      7          1           0       -0.018615    1.699081    1.518357
      8          1           0       -0.490010    2.971567    0.381420
      9          7           0       -1.866072    1.421413    0.610945
     10          1           0       -2.598000    1.927651    0.125639
     11          1           0       -2.301498    0.855895    1.331064
     12         17           0       -2.510943   -0.783957   -0.909467
     13          1           0       -0.903937    0.917283   -1.398946
     14         17           0       -0.035848   -1.663628    1.069362
     15          7           0        2.469561   -0.363350    0.106031
     16          6           0        3.801304    0.094371   -0.209730
     17          1           0        2.356902   -1.140552    0.730417
     18          1           0        3.917312    1.155707    0.016562
     19          1           0        4.512012   -0.469617    0.390435
     20          1           0        4.038222   -0.055439   -1.265436
 ---------------------------------------------------------------------

 SCF Done:  E(RwB97XD) =  -1301.70282628     A.U. after    1 cycles

 The electronic state is 1-A.
 Alpha  occ. eigenvalues -- -101.70181-101.69466 -19.19942 -14.49066 -14.44702
 Alpha  occ. eigenvalues --  -10.38887 -10.38126 -10.31782 -10.30983 -10.30737
 Alpha  occ. eigenvalues --   -9.58763  -9.57988  -7.33403  -7.32606  -7.32549
 Alpha  occ. eigenvalues --   -7.32512  -7.31796  -7.31760  -1.12839  -1.04736
 Alpha  occ. eigenvalues --   -1.01578  -0.98274  -0.94376  -0.84002  -0.80388
 Alpha  occ. eigenvalues --   -0.79140  -0.70234  -0.65820  -0.64390  -0.60664
 Alpha  occ. eigenvalues --   -0.57650  -0.56411  -0.55109  -0.53440  -0.52293
 Alpha  occ. eigenvalues --   -0.51567  -0.48553  -0.47795  -0.47516  -0.46939
 Alpha  occ. eigenvalues --   -0.46158  -0.42519  -0.41176  -0.39756  -0.38869
 Alpha  occ. eigenvalues --   -0.34029  -0.33484  -0.27424
 Alpha virt. eigenvalues --    0.05706   0.08672   0.10254   0.12437   0.13574
 Alpha virt. eigenvalues --    0.14963   0.15603   0.15975   0.16928   0.18017
 Alpha virt. eigenvalues --    0.18868   0.19955   0.21245   0.21502   0.22894

 Mulliken charges:
               1
     1  C   -0.208972
     2  C    0.364787
     3  O   -0.559421
     4  C   -0.008182
     5  C   -0.291423
     6  H    0.161058
     7  H    0.157461
     8  H    0.155995
     9  N   -0.328133
    10  H    0.293781
    11  H    0.285229
    12  Cl  -0.113554
    13  H    0.190291
    14  Cl  -0.171501
    15  N   -0.325310
    16  C   -0.244997
    17  H    0.248049
    18  H    0.127390
    19  H    0.140785
    20  H    0.126667
 Sum of Mulliken charges =  -0.00000

 Dipole moment (field-independent basis, Debye):
    X=             -3.0506    Y=              3.2063    Z=              4.6186  Tot=              6.3967
 Quadrupole moment (field-independent basis, Debye-Ang):
   XX=            -60.5835   YY=            -70.9849   ZZ=            -76.0927
   XY=            -15.1621   XZ=              1.4663   YZ=              5.5569

  Exact polarizability: 182.881  -6.896 142.365   1.229  -5.512 122.019
 Approx polarizability: 137.433  -3.703 121.857   1.517  -8.639 109.028

 ******    1 imaginary frequencies (negative Signs) ******

                      1                      2                      3
                      A                      A                      A
 Frequencies --   -363.4916                47.0620                67.2150
 Red. masses --      6.1183                 3.2320                 2.7198
 Frc consts  --      0.4763                 0.0042                 0.0072
 IR Inten    --    810.9612                19.2203                 1.0792

                      4                      5                      6
                      A                      A                      A
 Frequencies --     74.1699                89.9613               122.9674
 Red. masses --      1.7593                 2.3386                 1.9783
 Frc consts  --      0.0057                 0.0112                 0.0176
 IR Inten    --      1.2680                17.0168                17.2962

                      7                      8                      9
                      A                      A                      A
 Frequencies --    134.0525               140.6102               155.8497
 Red. masses --      2.8804                 3.3912                 1.8061
 Frc consts  --      0.0305                 0.0395                 0.0258
 IR Inten    --      6.9516                 8.3086                10.3392

                     10                     11                     12
                      A                      A                      A
 Frequencies --    190.6116               214.3782               277.9120
 Red. masses --     10.4260                 4.4960                 4.0478
 Frc consts  --      0.2232                 0.1217                 0.1842
 IR Inten    --      4.6372                12.3426                 4.1844

                     13                     14                     15
                      A                      A                      A
 Frequencies --    312.2337               357.7712               393.2300
 Red. masses --      4.6156                 7.0542                 1.2227
 Frc consts  --      0.2651                 0.5320                 0.1114
 IR Inten    --     43.9732                44.3913                60.3146

                     16                     17                     18
                      A                      A                      A
 Frequencies --    453.0704               470.8851               573.2400
 Red. masses --     11.4332                 3.4510                 2.5959
 Frc consts  --      1.3828                 0.4508                 0.5026
 IR Inten    --     10.2486               118.4247                14.7032

                     19                     20                     21
                      A                      A                      A
 Frequencies --    724.4305               737.0471               775.4858
 Red. masses --      3.9101                 2.7264                 6.6314
 Frc consts  --      1.2090                 0.8726                 2.3496
 IR Inten    --    144.5314                40.8533                37.8956

                     22                     23                     24
                      A                      A                      A
 Frequencies --    821.1023               994.2785              1009.3463
 Red. masses --      4.0312                 2.1232                 1.2660
 Frc consts  --      1.6013                 1.2367                 0.7599
 IR Inten    --     84.1304                 8.1297                31.7608

                     25                     26                     27
                      A                      A                      A
 Frequencies --   1031.5647              1084.5591              1145.5468
 Red. masses --      1.1324                 5.0524                 1.1346
 Frc consts  --      0.7100                 3.5015                 0.8772
 IR Inten    --     67.1989                42.1485                68.5434

                     28                     29                     30
                      A                      A                      A
 Frequencies --   1157.8732              1160.4441              1187.5785
 Red. masses --      1.2894                 3.9978                 1.7223
 Frc consts  --      1.0185                 3.1719                 1.4311
 IR Inten    --      0.7405                22.6226                16.8890

                     31                     32                     33
                      A                      A                      A
 Frequencies --   1219.0730              1226.0949              1310.9928
 Red. masses --      1.3986                 1.3185                 2.2378
 Frc consts  --      1.2247                 1.1679                 2.2660
 IR Inten    --     32.0206                66.5720               306.5660

                     34                     35                     36
                      A                      A                      A
 Frequencies --   1343.0429              1437.7773              1458.7009
 Red. masses --      1.3221                 1.9790                 1.2191
 Frc consts  --      1.4051                 2.4104                 1.5284
 IR Inten    --      1.6941               535.3884                56.1777

                     37                     38                     39
                      A                      A                      A
 Frequencies --   1468.1627              1476.3742              1490.1906
 Red. masses --      1.9634                 1.0444                 1.0379
 Frc consts  --      2.4935                 1.3412                 1.3580
 IR Inten    --    358.4368                14.7625                22.1310

                     40                     41                     42
                      A                      A                      A
 Frequencies --   1498.2802              1507.4507              1563.9207
 Red. masses --      1.0421                 1.0745                 2.0802
 Frc consts  --      1.3784                 1.4387                 2.9976
 IR Inten    --     23.0685                19.6542               722.0818

                     43                     44                     45
                      A                      A                      A
 Frequencies --   1644.1211              1649.4435              3049.6417
 Red. masses --      1.1094                 7.0273                 1.0361
 Frc consts  --      1.7669                11.2646                 5.6776
 IR Inten    --     76.6349               419.6165                80.7266

                     46                     47                     48
                      A                      A                      A
 Frequencies --   3070.6742              3106.7841              3147.7769
 Red. masses --      1.0335                 1.1040                 1.1049
 Frc consts  --      5.7414                 6.2782                 6.4502
 IR Inten    --     28.5607                44.4796                 9.9543

                     49                     50                     51
                      A                      A                      A
 Frequencies --   3160.4117              3173.1509              3227.0547
 Red. masses --      1.1014                 1.1055                 1.0899
 Frc consts  --      6.4814                 6.5580                 6.6870
 IR Inten    --     22.9902                11.3386                 4.6975

                     52                     53                     54
                      A                      A                      A
 Frequencies --   3523.8379              3608.2654              3684.6500
 Red. masses --      1.0505                 1.0967                 1.0777
 Frc consts  --      7.6859                 8.4128                 8.6210
 IR Inten    --     59.8364                54.3268                83.3351

 - Thermochemistry -
 -------------------
 Temperature   298.150 Kelvin.  Pressure   1.00000 Atm.
 Atom     1 has atomic number  6 and mass  12.00000

 Molecular mass:   184.01702 amu.
 Principal axes and moments of inertia in atomic units:
                           1         2         3
     Eigenvalues --  1423.763912915.632403371.93866
           X            0.99930  -0.03317  -0.01733
           Y            0.03444   0.99627   0.07916
           Z            0.01464  -0.07970   0.99671
 This molecule is an asymmetric top.
 Rotational symmetry number  1.
 Warning -- assumption of classical behavior for rotation
           may cause significant error
 Rotational temperatures (Kelvin)      0.06083     0.02971     0.02569
 Rotational constants (GHZ):           1.26758     0.61899     0.53522
    1 imaginary frequencies ignored.
 Zero-point vibrational energy     412414.7 (Joules/Mol)
                                   98.56947 (Kcal/Mol)
 Warning -- explicit consideration of  17 degrees of freedom as
           vibrations may cause significant error
 Vibrational temperatures:     67.71    96.71   106.71   129.43   176.92
          (Kelvin)            192.87   202.31   224.23   274.25   308.44
                              399.85   449.23   514.75   565.77   651.87
                              677.50   824.76  1042.29  1060.45  1115.75
                             1181.38  1430.55  1452.22  1484.19  1560.44
                             1648.19  1665.92  1669.62  1708.66  1753.97
                             1764.08  1886.23  1932.34  2068.64  2098.75
                             2112.36  2124.17  2144.05  2155.69  2168.89
                             2250.13  2365.52  2373.18  4387.75  4418.02
                             4469.97  4528.95  4547.13  4565.46  4643.01
                             5070.02  5191.49  5301.39

 Zero-point correction=                           0.157080 (Hartree/Particle)
 Thermal correction to Energy=                    0.169737
 Thermal correction to Enthalpy=                  0.170681
 Thermal correction to Gibbs Free Energy=         0.116635
 Sum of electronic and zero-point Energies=          -1301.545746
 Sum of electronic and thermal Energies=             -1301.533090
 Sum of electronic and thermal Enthalpies=           -1301.532146
 Sum of electronic and thermal Free Energies=        -1301.586192

                     E (Thermal)             CV                S
                      KCal/Mol        Cal/Mol-Kelvin    Cal/Mol-Kelvin
 Total                  106.511             41.863            113.749
 Electronic               0.000              0.000              0.000
 Translational            0.889              2.981             41.536
 Rotational               0.889              2.981             31.016
 Vibrational            104.734             35.902             41.198
 Vibration     1          0.595              1.979              4.937
 Vibration     2          0.598              1.970              4.233
 Vibration     3          0.599              1.966              4.040
 Vibration     4          0.602              1.956              3.661
 Vibration     5          0.610              1.930              3.053
 Vibration     6          0.613              1.919              2.887
 Vibration     7          0.615              1.913              2.796
 Vibration     8          0.620              1.896              2.600
 Vibration     9          0.634              1.853              2.222
 Vibration    10          0.644              1.819              2.006
 Vibration    11          0.679              1.714              1.546
 Vibration    12          0.701              1.650              1.350
 Vibration    13          0.733              1.559              1.132
 Vibration    14          0.760              1.485              0.988
 Vibration    15          0.812              1.354              0.787
 Vibration    16          0.828              1.315              0.735
 Vibration    17          0.929              1.089              0.498

 Optimization completed.
    -- Stationary point found.
 Normal termination of Gaussian 16 at Wed Feb 24 03:32:34 2021.
