 Gaussian 16, Revision A.03,
 Gaussian 16:  ES64L-G16RevA.03 25-Dec-2016

 ----------------------------------------------------------------------
 # wB97XD def2tzvp, opt=(ts, noeigen, calcfc, maxcycles=70, maxstep=8),
  freq=noraman, scrf=(iefpcm, solvent=water)
 ----------------------------------------------------------------------

 ------------------------
 1_iteration/TS-821-1.out
 ------------------------
 Symbolic Z-matrix:
 Charge =  0 Multiplicity = 1

 SCF Done:  E(RwB97XD) =  -1112.44530373     A.U. after   15 cycles
 SCF Done:  E(RwB97XD) =  -1112.44530604     A.U. after   13 cycles
 SCF Done:  E(RwB97XD) =  -1112.44533407     A.U. after   12 cycles
 SCF Done:  E(RwB97XD) =  -1112.44533572     A.U. after   10 cycles
 SCF Done:  E(RwB97XD) =  -1112.44533410     A.U. after   10 cycles
 SCF Done:  E(RwB97XD) =  -1112.44533589     A.U. after    9 cycles
 Optimization completed.
    -- Stationary point found.
 Normal termination of Gaussian 16 at Fri Feb 26 03:34:22 2021.

 ---------------------------------------------------------------------
 #N Geom=AllCheck Guess=TCheck SCRF=Check GenChk RwB97XD/def2TZVP Freq
 ---------------------------------------------------------------------

 Structure from the checkpoint file:  "/beegfs/scratch/user/q/tla25/Gau-63760.chk"
 ------------------------
 1_iteration/TS-821-1.out
 ------------------------
 Charge =  0 Multiplicity = 1

                         Standard orientation:
 ---------------------------------------------------------------------
 Center     Atomic      Atomic             Coordinates (Angstroms)
 Number     Number       Type             X           Y           Z
 ---------------------------------------------------------------------
      1          6           0        1.467884    0.482298   -0.221060
      2          6           0        0.950007    1.852950   -0.168633
      3          8           0        1.570733    2.753993    0.410617
      4          6           0        0.685724   -0.647145   -0.222943
      5          6           0        1.329524   -1.128035    2.468322
      6          1           0        2.110635   -1.579053    3.078014
      7          1           0        1.558422   -0.071644    2.312401
      8          1           0        0.375875   -1.216952    2.980637
      9          7           0        1.254777   -1.774898    1.161214
     10          1           0        2.167432   -2.080508    0.845262
     11          1           0        0.644197   -2.583900    1.156876
     12         17           0        1.188072   -1.995404   -1.522620
     13          6           0       -0.800499   -0.630536   -0.040441
     14          6           0       -1.686725   -1.225508   -0.932842
     15          6           0       -3.057682   -1.144023   -0.730413
     16          6           0       -3.565914   -0.478509    0.372214
     17          6           0       -2.691636    0.114278    1.273055
     18          6           0       -1.326289    0.039473    1.068490
     19          1           0       -1.308813   -1.748095   -1.798602
     20          1           0       -3.727879   -1.606799   -1.443373
     21          1           0       -4.635166   -0.419387    0.529981
     22          1           0       -3.073517    0.643058    2.136821
     23          1           0       -0.660425    0.534472    1.760784
     24          6           0        2.969651    0.351913   -0.188148
     25          1           0        3.359984    0.138948    0.814593
     26          1           0        3.306177   -0.453904   -0.843649
     27          1           0        3.442026    1.276321   -0.516467
     28          7           0       -0.193027    2.152957   -0.840047
     29          6           0       -0.904538    3.389152   -0.619158
     30          1           0       -0.680256    1.411488   -1.307533
     31          1           0       -1.253931    3.477230    0.414295
     32          1           0       -0.269729    4.247736   -0.837701
     33          1           0       -1.767398    3.416645   -1.281552
 ---------------------------------------------------------------------

 SCF Done:  E(RwB97XD) =  -1112.44533589     A.U. after    1 cycles

 The electronic state is 1-A.
 Alpha  occ. eigenvalues -- -101.67103 -19.19742 -14.49905 -14.44197 -10.39931
 Alpha  occ. eigenvalues --  -10.37368 -10.32095 -10.31531 -10.30462 -10.29872
 Alpha  occ. eigenvalues --  -10.29720 -10.29643 -10.29528 -10.29502 -10.27006
 Alpha  occ. eigenvalues --  -10.26238  -9.55718  -7.30239  -7.29556  -7.29535
 Alpha  occ. eigenvalues --   -1.12390  -1.05493  -1.00995  -0.97971  -0.93755
 Alpha  occ. eigenvalues --   -0.87912  -0.86204  -0.85661  -0.80073  -0.79786
 Alpha  occ. eigenvalues --   -0.77540  -0.71523  -0.70861  -0.67979  -0.65346
 Alpha  occ. eigenvalues --   -0.64772  -0.62046  -0.58402  -0.57724  -0.56388
 Alpha  occ. eigenvalues --   -0.55794  -0.55050  -0.53829  -0.53038  -0.51523
 Alpha  occ. eigenvalues --   -0.51247  -0.50291  -0.48842  -0.48148  -0.47541
 Alpha  occ. eigenvalues --   -0.47216  -0.46404  -0.45827  -0.45273  -0.44226
 Alpha  occ. eigenvalues --   -0.42966  -0.42474  -0.38714  -0.38235  -0.34830
 Alpha  occ. eigenvalues --   -0.34404  -0.33749  -0.32384  -0.26510
 Alpha virt. eigenvalues --    0.01861   0.04692   0.06797   0.08287   0.10139
 Alpha virt. eigenvalues --    0.12119   0.13222   0.13995   0.14221   0.15261
 Alpha virt. eigenvalues --    0.15605   0.16658   0.17084   0.17458   0.18262

 Mulliken charges:
               1
     1  C   -0.121342
     2  C    0.275057
     3  O   -0.535671
     4  C    0.232664
     5  C   -0.332744
     6  H    0.170272
     7  H    0.160258
     8  H    0.173004
     9  N   -0.280005
    10  H    0.291345
    11  H    0.295030
    12  Cl  -0.265289
    13  C   -0.054354
    14  C   -0.179064
    15  C   -0.139161
    16  C   -0.126737
    17  C   -0.162591
    18  C   -0.235213
    19  H    0.139938
    20  H    0.145772
    21  H    0.147307
    22  H    0.145661
    23  H    0.189878
    24  C   -0.440460
    25  H    0.123501
    26  H    0.132843
    27  H    0.132613
    28  N   -0.275940
    29  C   -0.254731
    30  H    0.255434
    31  H    0.122899
    32  H    0.129248
    33  H    0.140578
 Sum of Mulliken charges =  -0.00000

 Dipole moment (field-independent basis, Debye):
    X=             -4.4865    Y=             -6.3711    Z=              3.9707  Tot=              8.7456
 Quadrupole moment (field-independent basis, Debye-Ang):
   XX=            -96.6166   YY=           -111.8405   ZZ=            -96.9866
   XY=            -15.4587   XZ=              6.4811   YZ=            -11.6960

  Exact polarizability: 271.092   3.418 252.427   3.558  26.119 226.981
 Approx polarizability: 212.362   4.296 202.165   4.534  24.892 194.307

 ******    1 imaginary frequencies (negative Signs) ******

                      1                      2                      3
                      A                      A                      A
 Frequencies --   -414.9500                34.1534                53.5925
 Red. masses --      6.5933                 3.7557                 2.8078
 Frc consts  --      0.6689                 0.0026                 0.0048
 IR Inten    --    414.2381                 1.5306                 0.6712

                      4                      5                      6
                      A                      A                      A
 Frequencies --     58.1498                85.5301                95.8146
 Red. masses --      4.1406                 2.5297                 2.0102
 Frc consts  --      0.0082                 0.0109                 0.0109
 IR Inten    --     10.4083                10.3064                24.3478

                      7                      8                      9
                      A                      A                      A
 Frequencies --    101.0988               123.5211               127.3603
 Red. masses --      1.3650                 2.1125                 2.0094
 Frc consts  --      0.0082                 0.0190                 0.0192
 IR Inten    --      1.9757                 0.4825                14.7034

                     10                     11                     12
                      A                      A                      A
 Frequencies --    172.8172               191.0051               198.5320
 Red. masses --      3.8186                 3.8447                 1.9795
 Frc consts  --      0.0672                 0.0826                 0.0460
 IR Inten    --      3.0738                13.7028                 6.3420

                     13                     14                     15
                      A                      A                      A
 Frequencies --    225.2294               245.1153               261.5543
 Red. masses --      5.8317                 1.3571                 4.1600
 Frc consts  --      0.1743                 0.0480                 0.1677
 IR Inten    --      6.9238                 6.4845                40.4433

                     16                     17                     18
                      A                      A                      A
 Frequencies --    286.7674               292.9368               315.2523
 Red. masses --      6.1328                 4.8192                 3.1009
 Frc consts  --      0.2971                 0.2437                 0.1816
 IR Inten    --    133.2908                45.2346                 9.4984

                     19                     20                     21
                      A                      A                      A
 Frequencies --    332.7177               344.7475               360.7428
 Red. masses --      3.3915                 4.0170                 5.3373
 Frc consts  --      0.2212                 0.2813                 0.4092
 IR Inten    --     18.4310                15.0904                 6.4559

                     22                     23                     24
                      A                      A                      A
 Frequencies --    428.7746               471.2647               511.2253
 Red. masses --      2.9260                 4.6772                 2.2180
 Frc consts  --      0.3169                 0.6120                 0.3415
 IR Inten    --      0.1167                27.0616                36.8958

                     25                     26                     27
                      A                      A                      A
 Frequencies --    527.6347               614.8020               629.7307
 Red. masses --      1.5100                 2.8500                 4.2088
 Frc consts  --      0.2477                 0.6347                 0.9834
 IR Inten    --    108.1876               101.6512               152.4367

                     28                     29                     30
                      A                      A                      A
 Frequencies --    632.0703               644.9846               708.3868
 Red. masses --      3.2576                 6.2446                 2.3256
 Frc consts  --      0.7668                 1.5306                 0.6876
 IR Inten    --    227.1418               126.4942                95.8920

                     31                     32                     33
                      A                      A                      A
 Frequencies --    727.2294               796.3624               800.8779
 Red. masses --      1.6282                 2.8240                 3.7269
 Frc consts  --      0.5073                 1.0552                 1.4084
 IR Inten    --     94.7502                50.7913                24.0654

                     34                     35                     36
                      A                      A                      A
 Frequencies --    838.9771               882.0473               902.8640
 Red. masses --      3.7160                 1.2483                 2.6103
 Frc consts  --      1.5411                 0.5722                 1.2537
 IR Inten    --    132.2768                 0.5888                26.0043

                     37                     38                     39
                      A                      A                      A
 Frequencies --    972.2062              1012.6023              1022.5539
 Red. masses --      1.4250                 2.1366                 1.5642
 Frc consts  --      0.7936                 1.2908                 0.9636
 IR Inten    --      3.6322                98.0526                 1.3048

                     40                     41                     42
                      A                      A                      A
 Frequencies --   1026.4331              1037.2585              1038.9865
 Red. masses --      3.7186                 1.2512                 1.3232
 Frc consts  --      2.3083                 0.7932                 0.8416
 IR Inten    --      1.0405                 3.8085                 4.9159

                     43                     44                     45
                      A                      A                      A
 Frequencies --   1057.5117              1066.8405              1074.0757
 Red. masses --      2.3823                 1.5629                 1.9920
 Frc consts  --      1.5697                 1.0481                 1.3540
 IR Inten    --     55.7167                 2.6962                33.7301

                     46                     47                     48
                      A                      A                      A
 Frequencies --   1082.3237              1086.2438              1127.6454
 Red. masses --      2.9055                 1.2657                 1.5791
 Frc consts  --      2.0053                 0.8799                 1.1831
 IR Inten    --     12.1139               124.7762                 1.5266

                     49                     50                     51
                      A                      A                      A
 Frequencies --   1151.3568              1185.9531              1187.8233
 Red. masses --      1.3045                 1.7162                 1.1272
 Frc consts  --      1.0189                 1.4222                 0.9371
 IR Inten    --      7.5004                64.5800                 0.1742

                     52                     53                     54
                      A                      A                      A
 Frequencies --   1214.7287              1222.3587              1222.9314
 Red. masses --      2.7889                 1.4384                 1.2611
 Frc consts  --      2.4246                 1.2663                 1.1112
 IR Inten    --     50.9617                12.9178                 9.6814

                     55                     56                     57
                      A                      A                      A
 Frequencies --   1244.0581              1319.7816              1329.7918
 Red. masses --      2.8734                 4.3967                 1.4622
 Frc consts  --      2.6202                 4.5121                 1.5234
 IR Inten    --     17.7779                61.0328                71.9179

                     58                     59                     60
                      A                      A                      A
 Frequencies --   1331.1819              1367.7691              1410.6120
 Red. masses --      2.4739                 1.4094                 1.2385
 Frc consts  --      2.5829                 1.5535                 1.4519
 IR Inten    --    500.0299                 5.9453                 1.4249

                     61                     62                     63
                      A                      A                      A
 Frequencies --   1455.5218              1456.3466              1477.0255
 Red. masses --      1.2002                 1.2219                 1.0755
 Frc consts  --      1.4981                 1.5269                 1.3824
 IR Inten    --     60.9428                12.5883                48.3322

                     64                     65                     66
                      A                      A                      A
 Frequencies --   1479.5325              1486.4191              1493.4871
 Red. masses --      1.0608                 1.9346                 1.3766
 Frc consts  --      1.3682                 2.5184                 1.8091
 IR Inten    --     30.6529                26.4722                73.9464

                     67                     68                     69
                      A                      A                      A
 Frequencies --   1496.7777              1504.4626              1512.9684
 Red. masses --      1.0713                 1.0872                 1.1098
 Frc consts  --      1.4141                 1.4498                 1.4967
 IR Inten    --      1.0909                 9.2756                59.8053

                     70                     71                     72
                      A                      A                      A
 Frequencies --   1522.6569              1548.9083              1560.1939
 Red. masses --      1.7297                 2.2198                 2.5535
 Frc consts  --      2.3627                 3.1378                 3.6622
 IR Inten    --    359.5203               255.5120               285.0964

                     73                     74                     75
                      A                      A                      A
 Frequencies --   1636.9970              1647.7660              1650.7714
 Red. masses --      1.0897                 6.4564                 5.8265
 Frc consts  --      1.7204                10.3284                 9.3547
 IR Inten    --     77.1035               602.6813               185.2261

                     76                     77                     78
                      A                      A                      A
 Frequencies --   1674.4798              3012.6894              3035.7189
 Red. masses --      5.8637                 1.0530                 1.0447
 Frc consts  --      9.6868                 5.6311                 5.6725
 IR Inten    --      0.6785                99.5499                82.3420

                     79                     80                     81
                      A                      A                      A
 Frequencies --   3064.5468              3086.8912              3109.6985
 Red. masses --      1.0371                 1.0840                 1.0926
 Frc consts  --      5.7384                 6.0858                 6.2250
 IR Inten    --     34.1122                38.6424                46.2411

                     82                     83                     84
                      A                      A                      A
 Frequencies --   3143.8158              3144.7582              3157.8346
 Red. masses --      1.0994                 1.1005                 1.1027
 Frc consts  --      6.4022                 6.4121                 6.4785
 IR Inten    --     23.7963                 3.6562                22.1023

                     85                     86                     87
                      A                      A                      A
 Frequencies --   3181.4660              3200.4169              3210.3367
 Red. masses --      1.1056                 1.0866                 1.0908
 Frc consts  --      6.5933                 6.5573                 6.6237
 IR Inten    --      9.7100                 0.2677                14.9048

                     88                     89                     90
                      A                      A                      A
 Frequencies --   3221.7538              3238.3639              3248.2072
 Red. masses --      1.0960                 1.0936                 1.0922
 Frc consts  --      6.7026                 6.7570                 6.7898
 IR Inten    --     23.5474                 6.6768                 2.6619

                     91                     92                     93
                      A                      A                      A
 Frequencies --   3530.7921              3611.4335              3689.7723
 Red. masses --      1.0513                 1.0967                 1.0777
 Frc consts  --      7.7222                 8.4276                 8.6450
 IR Inten    --     59.5477                62.6206                57.9493

 - Thermochemistry -
 -------------------
 Temperature   298.150 Kelvin.  Pressure   1.00000 Atm.
 Atom     1 has atomic number  6 and mass  12.00000

 Molecular mass:   240.10294 amu.
 Principal axes and moments of inertia in atomic units:
                           1         2         3
     Eigenvalues --  3463.695513903.127795312.65840
           X            0.99731  -0.06785   0.02775
           Y            0.06902   0.99666  -0.04355
           Z           -0.02470   0.04534   0.99867
 This molecule is an asymmetric top.
 Rotational symmetry number  1.
 Warning -- assumption of classical behavior for rotation
           may cause significant error
 Rotational temperatures (Kelvin)      0.02501     0.02219     0.01630
 Rotational constants (GHZ):           0.52104     0.46238     0.33971
    1 imaginary frequencies ignored.
 Zero-point vibrational energy     725593.2 (Joules/Mol)
                                  173.42093 (Kcal/Mol)
 Warning -- explicit consideration of  25 degrees of freedom as
           vibrations may cause significant error
 Vibrational temperatures:     49.14    77.11    83.66   123.06   137.86
          (Kelvin)            145.46   177.72   183.24   248.65   274.81
                              285.64   324.05   352.67   376.32   412.59
                              421.47   453.58   478.71   496.01   519.03
                              616.91   678.04   735.54   759.15   884.56
                              906.04   909.41   927.99  1019.21  1046.32
                             1145.79  1152.28  1207.10  1269.07  1299.02
                             1398.79  1456.91  1471.23  1476.81  1492.38
                             1494.87  1521.52  1534.95  1545.36  1557.22
                             1562.86  1622.43  1656.55  1706.32  1709.01
                             1747.72  1758.70  1759.53  1789.92  1898.87
                             1913.27  1915.27  1967.91  2029.56  2094.17
                             2095.36  2125.11  2128.72  2138.63  2148.79
                             2153.53  2164.59  2176.82  2190.76  2228.53
                             2244.77  2355.27  2370.77  2375.09  2409.20
                             4334.59  4367.72  4409.20  4441.35  4474.16
                             4523.25  4524.61  4543.42  4577.42  4604.69
                             4618.96  4635.39  4659.28  4673.45  5080.02
                             5196.05  5308.76

 Zero-point correction=                           0.276364 (Hartree/Particle)
 Thermal correction to Energy=                    0.293589
 Thermal correction to Enthalpy=                  0.294533
 Thermal correction to Gibbs Free Energy=         0.230954
 Sum of electronic and zero-point Energies=          -1112.168972
 Sum of electronic and thermal Energies=             -1112.151747
 Sum of electronic and thermal Enthalpies=           -1112.150803
 Sum of electronic and thermal Free Energies=        -1112.214382

                     E (Thermal)             CV                S
                      KCal/Mol        Cal/Mol-Kelvin    Cal/Mol-Kelvin
 Total                  184.230             62.843            133.813
 Electronic               0.000              0.000              0.000
 Translational            0.889              2.981             42.329
 Rotational               0.889              2.981             32.640
 Vibrational            182.452             56.881             58.843
 Vibration     1          0.594              1.983              5.572
 Vibration     2          0.596              1.976              4.680
 Vibration     3          0.596              1.974              4.519
 Vibration     4          0.601              1.959              3.760
 Vibration     5          0.603              1.952              3.538
 Vibration     6          0.604              1.948              3.433
 Vibration     7          0.610              1.929              3.045
 Vibration     8          0.611              1.926              2.986
 Vibration     9          0.626              1.876              2.405
 Vibration    10          0.634              1.852              2.218
 Vibration    11          0.637              1.842              2.147
 Vibration    12          0.650              1.803              1.917
 Vibration    13          0.660              1.771              1.765
 Vibration    14          0.669              1.743              1.651
 Vibration    15          0.684              1.698              1.493
 Vibration    16          0.688              1.687              1.457
 Vibration    17          0.703              1.645              1.335
 Vibration    18          0.715              1.610              1.247
 Vibration    19          0.723              1.586              1.190
 Vibration    20          0.735              1.553              1.119
 Vibration    21          0.790              1.408              0.863
 Vibration    22          0.828              1.314              0.734
 Vibration    23          0.866              1.225              0.631
 Vibration    24          0.883              1.189              0.593
 Vibration    25          0.974              1.001              0.425

 Optimization completed.
    -- Stationary point found.
 Normal termination of Gaussian 16 at Fri Feb 26 05:02:55 2021.
