 Gaussian 16, Revision A.03,
 Gaussian 16:  ES64L-G16RevA.03 25-Dec-2016

 ----------------------------------------------------------------------
 # wB97XD def2tzvp, opt=(ts, noeigen, calcfc, maxcycles=70, maxstep=5),
  freq=noraman, scrf=(iefpcm, solvent=water)
 ----------------------------------------------------------------------

 ------------------------
 2_iteration/TS-836-2.out
 ------------------------
 Symbolic Z-matrix:
 Charge =  0 Multiplicity = 1

 SCF Done:  E(RwB97XD) =  -1552.60759620     A.U. after   15 cycles
 Optimization completed.
    -- Stationary point found.
 Normal termination of Gaussian 16 at Wed Mar 31 08:28:42 2021.

 ---------------------------------------------------------------------
 #N Geom=AllCheck Guess=TCheck SCRF=Check GenChk RwB97XD/def2TZVP Freq
 ---------------------------------------------------------------------

 Structure from the checkpoint file:  "/beegfs/scratch/user/q/tla25/Gau-108258.chk"
 ------------------------
 2_iteration/TS-836-2.out
 ------------------------
 Charge =  0 Multiplicity = 1

                         Standard orientation:
 ---------------------------------------------------------------------
 Center     Atomic      Atomic             Coordinates (Angstroms)
 Number     Number       Type             X           Y           Z
 ---------------------------------------------------------------------
      1          6           0        1.132441   -0.187138   -0.301009
      2          6           0        1.330429    1.185472    0.095801
      3          8           0        0.503078    1.898111    0.639101
      4          6           0       -0.080049   -0.855359   -0.141709
      5          6           0        0.504361   -1.059669    2.621221
      6          1           0        1.356661   -0.475268    2.275751
      7          1           0       -0.268989   -0.380510    2.970211
      8          1           0        0.822942   -1.703418    3.440051
      9          7           0        0.006912   -1.848089    1.497941
     10          1           0        0.680953   -2.561219    1.241241
     11          1           0       -0.863507   -2.326140    1.704091
     12         17           0       -0.322757   -2.307750   -1.176559
     13          6           0       -1.365890   -0.073511   -0.106639
     14          6           0       -2.299100   -0.124502    0.918351
     15          6           0       -3.480360    0.601127    0.832311
     16          6           0       -3.749271    1.374737   -0.283009
     17          6           0       -2.827371    1.416938   -1.321069
     18          6           0       -1.650350    0.698269   -1.233769
     19          1           0       -2.133639   -0.709832    1.809381
     20          1           0       -4.190330    0.554846    1.647971
     21          1           0       -4.671012    1.938455   -0.347319
     22          1           0       -3.025652    2.013337   -2.202409
     23          1           0       -0.933091    0.735840   -2.043459
     24         17           0        2.546722   -1.119497   -0.751649
     25          8           0        2.561778    1.644623   -0.202919
     26          6           0        2.834187    2.989244    0.173391
     27          1           0        2.165376    3.681113   -0.338639
     28          1           0        2.729157    3.121464    1.250331
     29          1           0        3.862337    3.175625   -0.125869
 ---------------------------------------------------------------------

 SCF Done:  E(RwB97XD) =  -1552.60759620     A.U. after    1 cycles

 The electronic state is 1-A.
 Alpha  occ. eigenvalues -- -101.70286-101.69151 -19.28736 -19.21904 -14.49765
 Alpha  occ. eigenvalues --  -10.41720 -10.40932 -10.32853 -10.32156 -10.32063
 Alpha  occ. eigenvalues --  -10.31867 -10.30015 -10.29598 -10.29506 -10.29429
 Alpha  occ. eigenvalues --  -10.29373  -9.58878  -9.57678  -7.33524  -7.32664
 Alpha  occ. eigenvalues --   -7.32617  -7.32323  -7.31460  -7.31443  -1.20401
 Alpha  occ. eigenvalues --   -1.10718  -1.05629  -0.99867  -0.96927  -0.94399
 Alpha  occ. eigenvalues --   -0.87846  -0.85853  -0.84055  -0.81272  -0.79646
 Alpha  occ. eigenvalues --   -0.73091  -0.71314  -0.69228  -0.65424  -0.63845
 Alpha  occ. eigenvalues --   -0.61701  -0.59246  -0.58279  -0.57471  -0.56846
 Alpha  occ. eigenvalues --   -0.56222  -0.54720  -0.53567  -0.53046  -0.51632
 Alpha  occ. eigenvalues --   -0.51399  -0.49232  -0.48874  -0.48118  -0.47284
 Alpha  occ. eigenvalues --   -0.46551  -0.44608  -0.44076  -0.43539  -0.42492
 Alpha  occ. eigenvalues --   -0.41295  -0.39708  -0.39213  -0.38418  -0.36423
 Alpha  occ. eigenvalues --   -0.34280  -0.32797  -0.28318
 Alpha virt. eigenvalues --    0.02677   0.04313   0.04859   0.08491   0.10478
 Alpha virt. eigenvalues --    0.12480   0.13111   0.14054   0.14713   0.15517
 Alpha virt. eigenvalues --    0.15926   0.16560   0.17301   0.18050   0.18893

 Mulliken charges:
               1
     1  C   -0.259816
     2  C    0.431459
     3  O   -0.479207
     4  C    0.206294
     5  C   -0.289109
     6  H    0.159260
     7  H    0.155817
     8  H    0.165279
     9  N   -0.332276
    10  H    0.285372
    11  H    0.293312
    12  Cl  -0.107526
    13  C    0.243154
    14  C   -0.221033
    15  C   -0.160637
    16  C   -0.154864
    17  C   -0.113326
    18  C   -0.314673
    19  H    0.139996
    20  H    0.145950
    21  H    0.146527
    22  H    0.146208
    23  H    0.156034
    24  Cl  -0.147969
    25  O   -0.300412
    26  C   -0.193301
    27  H    0.129682
    28  H    0.128859
    29  H    0.140945
 Sum of Mulliken charges =  -0.00000

 Dipole moment (field-independent basis, Debye):
    X=             -2.4897    Y=             -2.9543    Z=              5.1042  Tot=              6.4015
 Quadrupole moment (field-independent basis, Debye-Ang):
   XX=           -103.1684   YY=            -99.7729   ZZ=            -96.5524
   XY=              2.9363   XZ=              1.8614   YZ=            -15.2604

  Exact polarizability: 256.062 -10.811 235.920 -18.915 -12.146 216.334
 Approx polarizability: 203.955 -11.409 193.493 -16.961  -8.828 188.223

 ******    1 imaginary frequencies (negative Signs) ******

                      1                      2                      3
                      A                      A                      A
 Frequencies --   -341.6685                36.3782                48.2978
 Red. masses --      5.3810                 3.9184                 4.7641
 Frc consts  --      0.3701                 0.0031                 0.0065
 IR Inten    --    653.5262                 0.4613                 3.0471

                      4                      5                      6
                      A                      A                      A
 Frequencies --     59.2577                81.8811               113.6671
 Red. masses --      6.7462                 5.3585                 3.5907
 Frc consts  --      0.0140                 0.0212                 0.0273
 IR Inten    --      0.3626                 3.6430                 2.5576

                      7                      8                      9
                      A                      A                      A
 Frequencies --    127.2729               141.9994               159.3614
 Red. masses --      2.8199                 3.1947                 1.8509
 Frc consts  --      0.0269                 0.0380                 0.0277
 IR Inten    --      2.3767                 6.5721                 1.0175

                     10                     11                     12
                      A                      A                      A
 Frequencies --    172.7429               180.4317               209.0900
 Red. masses --      1.5040                 2.0003                 6.4375
 Frc consts  --      0.0264                 0.0384                 0.1658
 IR Inten    --      0.3667                 3.0738                 3.6243

                     13                     14                     15
                      A                      A                      A
 Frequencies --    212.4028               234.5652               276.6341
 Red. masses --      5.8534                 2.9255                 5.1179
 Frc consts  --      0.1556                 0.0948                 0.2308
 IR Inten    --      9.2392                 2.6786                 7.8363

                     16                     17                     18
                      A                      A                      A
 Frequencies --    282.0077               310.3056               340.1532
 Red. masses --      4.5369                 4.1715                 5.4282
 Frc consts  --      0.2126                 0.2367                 0.3700
 IR Inten    --      6.0240                10.6860                26.0443

                     19                     20                     21
                      A                      A                      A
 Frequencies --    360.2662               390.2561               422.3621
 Red. masses --      5.2515                 8.3664                 2.8873
 Frc consts  --      0.4016                 0.7507                 0.3035
 IR Inten    --     33.4079                29.6245                 0.2461

                     22                     23                     24
                      A                      A                      A
 Frequencies --    461.6376               526.2503               567.4040
 Red. masses --     13.6891                 3.6866                 3.7209
 Frc consts  --      1.7188                 0.6015                 0.7058
 IR Inten    --      7.4864                 4.8529               146.4213

                     25                     26                     27
                      A                      A                      A
 Frequencies --    614.9611               641.0580               686.5580
 Red. masses --      3.4000                 6.2397                 2.7068
 Frc consts  --      0.7576                 1.5108                 0.7517
 IR Inten    --     43.2999                15.9748                58.3467

                     28                     29                     30
                      A                      A                      A
 Frequencies --    718.9620               726.8367               779.7284
 Red. masses --      2.2595                 2.1662                 2.6829
 Frc consts  --      0.6881                 0.6742                 0.9611
 IR Inten    --      2.0625               260.6498                71.2165

                     31                     32                     33
                      A                      A                      A
 Frequencies --    787.1397               836.5083               867.3055
 Red. masses --     10.1333                 3.9604                 1.2563
 Frc consts  --      3.6992                 1.6328                 0.5568
 IR Inten    --     66.1602                63.3043                 0.5104

                     34                     35                     36
                      A                      A                      A
 Frequencies --    885.7801               952.9378              1001.9902
 Red. masses --      4.9779                 1.4781                 1.1601
 Frc consts  --      2.3012                 0.7908                 0.6862
 IR Inten    --     99.7071                 0.3995                24.8042

                     37                     38                     39
                      A                      A                      A
 Frequencies --   1011.2392              1013.2363              1026.1355
 Red. masses --      1.4239                 4.0456                 5.3357
 Frc consts  --      0.8579                 2.4471                 3.3102
 IR Inten    --     10.7263                10.5596                 1.6626

                     40                     41                     42
                      A                      A                      A
 Frequencies --   1030.2955              1066.7241              1069.1528
 Red. masses --      1.3150                 2.0528                 1.6302
 Frc consts  --      0.8224                 1.3763                 1.0979
 IR Inten    --      0.5118                16.4614                32.7114

                     43                     44                     45
                      A                      A                      A
 Frequencies --   1079.9350              1108.0897              1131.2136
 Red. masses --      2.8702                 5.3398                 1.6114
 Frc consts  --      1.9722                 3.8630                 1.2149
 IR Inten    --     97.8916               228.7752                10.0102

                     46                     47                     48
                      A                      A                      A
 Frequencies --   1182.5879              1187.4185              1208.7686
 Red. masses --      1.2821                 1.1400                 2.0952
 Frc consts  --      1.0564                 0.9470                 1.8037
 IR Inten    --      1.8963                 0.3037                83.5747

                     49                     50                     51
                      A                      A                      A
 Frequencies --   1224.9865              1227.3396              1238.5009
 Red. masses --      2.1224                 1.1549                 1.5158
 Frc consts  --      1.8764                 1.0250                 1.3699
 IR Inten    --     92.5049                 4.7710                37.4559

                     52                     53                     54
                      A                      A                      A
 Frequencies --   1303.0191              1321.5301              1344.1224
 Red. masses --      6.5912                 4.9294                 1.3214
 Frc consts  --      6.5935                 5.0722                 1.4066
 IR Inten    --    907.2535               161.2013                19.7793

                     55                     56                     57
                      A                      A                      A
 Frequencies --   1371.4853              1423.8046              1472.9357
 Red. masses --      1.3909                 4.9710                 1.2523
 Frc consts  --      1.5414                 5.9374                 1.6007
 IR Inten    --      5.0080               596.2533                12.5812

                     58                     59                     60
                      A                      A                      A
 Frequencies --   1479.7858              1483.4914              1491.5668
 Red. masses --      1.1816                 1.0618                 1.8857
 Frc consts  --      1.5244                 1.3768                 2.4718
 IR Inten    --     81.7866                23.4386                49.8938

                     61                     62                     63
                      A                      A                      A
 Frequencies --   1492.5218              1496.0901              1510.9604
 Red. masses --      1.1192                 1.0784                 1.0443
 Frc consts  --      1.4690                 1.4221                 1.4046
 IR Inten    --      1.2755                 9.1057                16.6883

                     64                     65                     66
                      A                      A                      A
 Frequencies --   1547.8325              1647.5067              1657.7436
 Red. masses --      2.2892                 1.3048                 3.0823
 Frc consts  --      3.2313                 2.0867                 4.9907
 IR Inten    --     25.8096                80.0737                 8.2551

                     67                     68                     69
                      A                      A                      A
 Frequencies --   1676.6629              1708.1788              3064.0767
 Red. masses --      5.6254                11.4688                 1.0308
 Frc consts  --      9.3173                19.7168                 5.7021
 IR Inten    --      0.5439               567.1680                56.7499

                     70                     71                     72
                      A                      A                      A
 Frequencies --   3078.6343              3140.2983              3154.3924
 Red. masses --      1.0336                 1.1068                 1.1046
 Frc consts  --      5.7717                 6.4307                 6.4756
 IR Inten    --     28.1780                35.8624                 6.8894

                     73                     74                     75
                      A                      A                      A
 Frequencies --   3174.9538              3182.7876              3199.3523
 Red. masses --      1.1054                 1.1048                 1.0862
 Frc consts  --      6.5652                 6.5938                 6.5508
 IR Inten    --     25.2170                13.6927                 0.3318

                     76                     77                     78
                      A                      A                      A
 Frequencies --   3207.4655              3216.2035              3224.8503
 Red. masses --      1.0894                 1.0939                 1.0982
 Frc consts  --      6.6035                 6.6667                 6.7292
 IR Inten    --      4.8276                21.5681                19.6366

                     79                     80                     81
                      A                      A                      A
 Frequencies --   3257.7672              3519.5064              3595.1434
 Red. masses --      1.0909                 1.0516                 1.0957
 Frc consts  --      6.8215                 7.6751                 8.3437
 IR Inten    --     17.5444                54.2316                55.1029

 - Thermochemistry -
 -------------------
 Temperature   298.150 Kelvin.  Pressure   1.00000 Atm.
 Atom     1 has atomic number  6 and mass  12.00000

 Molecular mass:   261.03233 amu.
 Principal axes and moments of inertia in atomic units:
                           1         2         3
     Eigenvalues --  3345.237974945.364386183.33827
           X            0.99957   0.02814   0.00807
           Y           -0.02755   0.99749  -0.06526
           Z           -0.00989   0.06501   0.99784
 This molecule is an asymmetric top.
 Rotational symmetry number  1.
 Warning -- assumption of classical behavior for rotation
           may cause significant error
 Rotational temperatures (Kelvin)      0.02589     0.01751     0.01401
 Rotational constants (GHZ):           0.53950     0.36494     0.29187
    1 imaginary frequencies ignored.
 Zero-point vibrational energy     594930.9 (Joules/Mol)
                                  142.19190 (Kcal/Mol)
 Warning -- explicit consideration of  24 degrees of freedom as
           vibrations may cause significant error
 Vibrational temperatures:     52.34    69.49    85.26   117.81   163.54
          (Kelvin)            183.12   204.31   229.29   248.54   259.60
                              300.83   305.60   337.49   398.01   405.75
                              446.46   489.40   518.34   561.49   607.68
                              664.19   757.16   816.37   884.79   922.34
                              987.80  1034.43  1045.76  1121.86  1132.52
                             1203.55  1247.86  1274.44  1371.06  1441.64
                             1454.95  1457.82  1476.38  1482.37  1534.78
                             1538.27  1553.79  1594.29  1627.56  1701.48
                             1708.43  1739.15  1762.48  1765.87  1781.93
                             1874.75  1901.39  1933.89  1973.26  2048.54
                             2119.23  2129.08  2134.41  2146.03  2147.41
                             2152.54  2173.94  2226.99  2370.39  2385.12
                             2412.34  2457.69  4408.52  4429.47  4518.19
                             4538.47  4568.05  4579.32  4603.15  4614.83
                             4627.40  4639.84  4687.20  5063.78  5172.61

 Zero-point correction=                           0.226597 (Hartree/Particle)
 Thermal correction to Energy=                    0.242965
 Thermal correction to Enthalpy=                  0.243909
 Thermal correction to Gibbs Free Energy=         0.181721
 Sum of electronic and zero-point Energies=          -1552.380999
 Sum of electronic and thermal Energies=             -1552.364632
 Sum of electronic and thermal Enthalpies=           -1552.363687
 Sum of electronic and thermal Free Energies=        -1552.425875

                     E (Thermal)             CV                S
                      KCal/Mol        Cal/Mol-Kelvin    Cal/Mol-Kelvin
 Total                  152.463             59.117            130.885
 Electronic               0.000              0.000              0.000
 Translational            0.889              2.981             42.578
 Rotational               0.889              2.981             32.992
 Vibrational            150.685             53.155             55.315
 Vibration     1          0.594              1.982              5.447
 Vibration     2          0.595              1.978              4.886
 Vibration     3          0.597              1.974              4.482
 Vibration     4          0.600              1.962              3.845
 Vibration     5          0.607              1.938              3.205
 Vibration     6          0.611              1.926              2.987
 Vibration     7          0.615              1.911              2.777
 Vibration     8          0.621              1.892              2.557
 Vibration     9          0.626              1.876              2.405
 Vibration    10          0.629              1.866              2.324
 Vibration    11          0.642              1.827              2.052
 Vibration    12          0.643              1.822              2.023
 Vibration    13          0.654              1.788              1.844
 Vibration    14          0.678              1.717              1.554
 Vibration    15          0.681              1.707              1.521
 Vibration    16          0.699              1.654              1.361
 Vibration    17          0.720              1.595              1.211
 Vibration    18          0.735              1.554              1.121
 Vibration    19          0.758              1.491              0.999
 Vibration    20          0.785              1.422              0.884
 Vibration    21          0.819              1.335              0.761
 Vibration    22          0.881              1.192              0.596
 Vibration    23          0.923              1.102              0.509
 Vibration    24          0.974              1.000              0.425

 Optimization completed.
    -- Stationary point found.
 Normal termination of Gaussian 16 at Wed Mar 31 09:35:55 2021.
