 Gaussian 16, Revision A.03,
 Gaussian 16:  ES64L-G16RevA.03 25-Dec-2016

 ----------------------------------------------------------------------
 # wB97XD def2tzvp, opt=(ts, noeigen, calcfc, maxcycles=70, maxstep=3),
  freq=noraman, scrf=(iefpcm, solvent=water)
 ----------------------------------------------------------------------

 -----------------------
 0_iteration/TS-86-0.out
 -----------------------
 Symbolic Z-matrix:
 Charge =  0 Multiplicity = 1

 SCF Done:  E(RwB97XD) =  -923.186301927     A.U. after   14 cycles
 SCF Done:  E(RwB97XD) =  -923.186301930     A.U. after    9 cycles
 Optimization completed.
    -- Stationary point found.
 Normal termination of Gaussian 16 at Wed Apr 14 11:51:06 2021.

 ---------------------------------------------------------------------
 #N Geom=AllCheck Guess=TCheck SCRF=Check GenChk RwB97XD/def2TZVP Freq
 ---------------------------------------------------------------------

 Structure from the checkpoint file:  "/beegfs/scratch/user/q/tla25/Gau-239313.chk"
 -----------------------
 0_iteration/TS-86-0.out
 -----------------------
 Charge =  0 Multiplicity = 1

                         Standard orientation:
 ---------------------------------------------------------------------
 Center     Atomic      Atomic             Coordinates (Angstroms)
 Number     Number       Type             X           Y           Z
 ---------------------------------------------------------------------
      1          6           0       -0.869296    0.271034   -0.075320
      2          6           0       -2.248877    0.627780   -0.171065
      3          8           0       -2.670067    1.783975    0.028325
      4          6           0       -0.327215   -1.000074    0.385740
      5          6           0        0.254316   -1.936184    2.987491
      6          1           0        0.381076   -1.575337    4.006851
      7          1           0       -0.460827   -2.753271    2.982844
      8          1           0        1.209499   -2.286587    2.604479
      9          7           0       -0.243543   -0.849246    2.126353
     10          1           0       -1.208637   -0.626765    2.350786
     11          1           0        0.276940    0.007151    2.289728
     12          6           0        1.115806   -1.244790   -0.043519
     13          6           0        2.229515   -0.758045    0.633395
     14          6           0        3.512933   -0.957163    0.145826
     15          6           0        3.712353   -1.643033   -1.040680
     16          6           0        2.612000   -2.127792   -1.732290
     17          6           0        1.333337   -1.932258   -1.236512
     18          1           0        2.126295   -0.186069    1.545473
     19          1           0        4.357455   -0.563262    0.696955
     20          1           0        4.712826   -1.795552   -1.424666
     21          1           0        2.746443   -2.660082   -2.665536
     22          1           0        0.492782   -2.304680   -1.806545
     23          6           0       -1.143643   -2.282187    0.293356
     24          1           0       -1.318672   -2.557489   -0.741097
     25          1           0       -0.602473   -3.105514    0.758286
     26          1           0       -2.117306   -2.165647    0.762708
     27          6           0        0.081362    1.429567   -0.083252
     28          6           0        0.218952    2.287596    1.010062
     29          6           0        1.134770    3.331134    1.007402
     30          6           0        1.937518    3.549419   -0.102883
     31          6           0        1.806091    2.720623   -1.208734
     32          6           0        0.888730    1.680335   -1.194201
     33          1           0       -0.418471    2.145901    1.875614
     34          1           0        1.219530    3.975927    1.873975
     35          1           0        2.654718    4.360872   -0.108624
     36          1           0        2.421635    2.884229   -2.085274
     37          1           0        0.801096    1.030030   -2.056766
     38          7           0       -3.191126   -0.360941   -0.535189
     39          6           0       -3.020607   -1.013118   -1.821188
     40          6           0       -4.577029   -0.035730   -0.274125
     41          1           0       -1.970283   -1.018506   -2.101021
     42          1           0       -3.386198   -2.043040   -1.789961
     43          1           0       -3.578833   -0.481259   -2.604883
     44          1           0       -4.687702    0.367879    0.730325
     45          1           0       -4.983327    0.697383   -0.983680
     46          1           0       -5.170446   -0.949474   -0.351733
 ---------------------------------------------------------------------

 SCF Done:  E(RwB97XD) =  -923.186301930     A.U. after    1 cycles

 The electronic state is 1-A.
 Alpha  occ. eigenvalues --  -19.18111 -14.51181 -14.42654 -10.36138 -10.35253
 Alpha  occ. eigenvalues --  -10.32628 -10.30547 -10.29721 -10.29356 -10.29161
 Alpha  occ. eigenvalues --  -10.29138 -10.29131 -10.29070 -10.28943 -10.28636
 Alpha  occ. eigenvalues --  -10.28292 -10.28219 -10.28158 -10.27838 -10.27694
 Alpha  occ. eigenvalues --  -10.27620 -10.24079  -1.10408  -1.06784  -1.00402
 Alpha  occ. eigenvalues --   -0.97342  -0.95589  -0.91238  -0.85922  -0.85371
 Alpha  occ. eigenvalues --   -0.84106  -0.83763  -0.80827  -0.80222  -0.78944
 Alpha  occ. eigenvalues --   -0.75262  -0.72191  -0.70754  -0.69325  -0.68073
 Alpha  occ. eigenvalues --   -0.66534  -0.65239  -0.61825  -0.60687  -0.60059
 Alpha  occ. eigenvalues --   -0.58842  -0.57057  -0.55710  -0.55426  -0.54614
 Alpha  occ. eigenvalues --   -0.54318  -0.53140  -0.52985  -0.52399  -0.52009
 Alpha  occ. eigenvalues --   -0.51126  -0.50013  -0.49708  -0.49389  -0.48471
 Alpha  occ. eigenvalues --   -0.47630  -0.47282  -0.46861  -0.46191  -0.45863
 Alpha  occ. eigenvalues --   -0.45264  -0.44910  -0.44107  -0.43607  -0.42334
 Alpha  occ. eigenvalues --   -0.42228  -0.41570  -0.40247  -0.34300  -0.33830
 Alpha  occ. eigenvalues --   -0.33005  -0.32488  -0.31866  -0.29524  -0.24741
 Alpha virt. eigenvalues --    0.04549   0.04827   0.06018   0.06348   0.08982
 Alpha virt. eigenvalues --    0.09468   0.11934   0.12650   0.12939   0.13785
 Alpha virt. eigenvalues --    0.14190   0.15028   0.15556   0.16336   0.16537

 Mulliken charges:
               1
     1  C   -0.244247
     2  C    0.172693
     3  O   -0.543768
     4  C    0.178834
     5  C   -0.318379
     6  H    0.168468
     7  H    0.173673
     8  H    0.174751
     9  N   -0.237111
    10  H    0.296580
    11  H    0.269664
    12  C    0.320275
    13  C   -0.319181
    14  C   -0.150284
    15  C   -0.156481
    16  C   -0.133527
    17  C   -0.349735
    18  H    0.151705
    19  H    0.142354
    20  H    0.142677
    21  H    0.141731
    22  H    0.141957
    23  C   -0.372184
    24  H    0.146027
    25  H    0.156239
    26  H    0.157753
    27  C    0.253972
    28  C   -0.357402
    29  C   -0.151687
    30  C   -0.143815
    31  C   -0.168979
    32  C   -0.236763
    33  H    0.145853
    34  H    0.134807
    35  H    0.137804
    36  H    0.133077
    37  H    0.134200
    38  N   -0.160845
    39  C   -0.308500
    40  C   -0.285908
    41  H    0.147279
    42  H    0.140553
    43  H    0.116526
    44  H    0.127882
    45  H    0.105730
    46  H    0.125729
 Sum of Mulliken charges =  -0.00000

 Dipole moment (field-independent basis, Debye):
    X=              4.2337    Y=             -8.6159    Z=              5.8149  Tot=             11.2237
 Quadrupole moment (field-independent basis, Debye-Ang):
   XX=           -135.2879   YY=           -138.5784   ZZ=           -107.9096
   XY=             16.8114   XZ=             -1.8301   YZ=             -0.3141

  Exact polarizability: 370.609   9.876 313.970  -3.151  23.744 320.312
 Approx polarizability: 284.122  10.007 254.467  -6.506  23.448 271.549

 ******    1 imaginary frequencies (negative Signs) ******

                      1                      2                      3
                      A                      A                      A
 Frequencies --   -270.7643                18.1542                34.8702
 Red. masses --      5.8334                 4.1676                 3.4520
 Frc consts  --      0.2520                 0.0008                 0.0025
 IR Inten    --    608.1441                 2.2442                 1.8682

                      4                      5                      6
                      A                      A                      A
 Frequencies --     43.3838                61.2615                67.2306
 Red. masses --      3.9787                 4.5305                 4.6448
 Frc consts  --      0.0044                 0.0100                 0.0124
 IR Inten    --      0.9342                 1.3305                 1.6244

                      7                      8                      9
                      A                      A                      A
 Frequencies --     82.2923                92.3801               103.1333
 Red. masses --      4.6339                 3.4441                 3.3167
 Frc consts  --      0.0185                 0.0173                 0.0208
 IR Inten    --      3.0798                 1.3599                 6.9139

                     10                     11                     12
                      A                      A                      A
 Frequencies --    124.3011               147.5533               158.5164
 Red. masses --      1.9008                 1.6449                 2.7364
 Frc consts  --      0.0173                 0.0211                 0.0405
 IR Inten    --      3.3266                 5.9891                 5.9186

                     13                     14                     15
                      A                      A                      A
 Frequencies --    209.1503               226.5165               236.8470
 Red. masses --      2.4069                 2.4478                 2.8289
 Frc consts  --      0.0620                 0.0740                 0.0935
 IR Inten    --      4.9566                 2.9393                 2.6935

                     16                     17                     18
                      A                      A                      A
 Frequencies --    244.0062               258.3102               262.5380
 Red. masses --      2.5944                 1.6816                 2.0722
 Frc consts  --      0.0910                 0.0661                 0.0842
 IR Inten    --     13.1716                 1.6224                 3.0206

                     19                     20                     21
                      A                      A                      A
 Frequencies --    293.5626               304.9582               328.1992
 Red. masses --      3.4428                 1.5017                 2.0167
 Frc consts  --      0.1748                 0.0823                 0.1280
 IR Inten    --      5.1907                 2.7197                16.2737

                     22                     23                     24
                      A                      A                      A
 Frequencies --    336.7361               346.8231               387.3866
 Red. masses --      3.4973                 2.1017                 2.6487
 Frc consts  --      0.2337                 0.1489                 0.2342
 IR Inten    --     66.2658                 2.9324                22.8260

                     25                     26                     27
                      A                      A                      A
 Frequencies --    399.9640               417.5904               429.0254
 Red. masses --      2.1692                 2.7553                 2.8670
 Frc consts  --      0.2045                 0.2831                 0.3109
 IR Inten    --     24.2791                 0.3938                 0.8719

                     28                     29                     30
                      A                      A                      A
 Frequencies --    450.5945               468.9193               483.8151
 Red. masses --      2.8670                 3.1921                 3.0631
 Frc consts  --      0.3430                 0.4135                 0.4224
 IR Inten    --     29.9900                 4.8659                35.1594

                     31                     32                     33
                      A                      A                      A
 Frequencies --    541.0258               548.3195               606.4740
 Red. masses --      3.3498                 3.9081                 5.0218
 Frc consts  --      0.5777                 0.6923                 1.0883
 IR Inten    --     22.3461                13.7837               131.7059

                     34                     35                     36
                      A                      A                      A
 Frequencies --    636.2377               639.7085               645.2316
 Red. masses --      4.2274                 6.1659                 5.8913
 Frc consts  --      1.0082                 1.4867                 1.4451
 IR Inten    --     40.5299                 1.3779                32.5830

                     37                     38                     39
                      A                      A                      A
 Frequencies --    658.4928               700.6767               719.8677
 Red. masses --      5.5021                 4.6734                 1.5209
 Frc consts  --      1.4057                 1.3518                 0.4644
 IR Inten    --     11.9407                14.2686                81.8527

                     40                     41                     42
                      A                      A                      A
 Frequencies --    728.1484               741.6181               782.6878
 Red. masses --      1.5234                 1.5024                 2.5999
 Frc consts  --      0.4759                 0.4869                 0.9384
 IR Inten    --    131.5044                10.5467                19.2476

                     43                     44                     45
                      A                      A                      A
 Frequencies --    797.1878               810.7575               848.8073
 Red. masses --      2.3645                 6.8026                 2.6186
 Frc consts  --      0.8854                 2.6345                 1.1116
 IR Inten    --     16.1531                29.3389                23.3978

                     46                     47                     48
                      A                      A                      A
 Frequencies --    865.2588               876.8733               882.3909
 Red. masses --      1.2636                 1.2963                 4.1226
 Frc consts  --      0.5574                 0.5873                 1.8912
 IR Inten    --      0.7359                 1.2040                26.0435

                     49                     50                     51
                      A                      A                      A
 Frequencies --    944.9597               948.6549               989.9865
 Red. masses --      1.4673                 1.5008                 2.8211
 Frc consts  --      0.7720                 0.7958                 1.6290
 IR Inten    --      2.3100                 4.6764               127.6124

                     52                     53                     54
                      A                      A                      A
 Frequencies --   1006.1542              1009.2476              1022.5255
 Red. masses --      1.3847                 1.4000                 1.3249
 Frc consts  --      0.8259                 0.8402                 0.8162
 IR Inten    --      0.7638                 2.4893                 3.0131

                     55                     56                     57
                      A                      A                      A
 Frequencies --   1025.9128              1026.6773              1027.8190
 Red. masses --      4.7422                 5.0887                 1.3904
 Frc consts  --      2.9407                 3.1603                 0.8654
 IR Inten    --      2.1602                 3.3731                 1.5662

                     58                     59                     60
                      A                      A                      A
 Frequencies --   1032.5703              1041.0261              1057.7654
 Red. masses --      2.8415                 1.3734                 1.8690
 Frc consts  --      1.7850                 0.8769                 1.2321
 IR Inten    --     47.0397                32.3258                77.8867

                     61                     62                     63
                      A                      A                      A
 Frequencies --   1060.2603              1067.5518              1076.4003
 Red. masses --      2.1310                 2.2324                 1.5465
 Frc consts  --      1.4115                 1.4990                 1.0557
 IR Inten    --     18.7189                 9.0468                20.8834

                     64                     65                     66
                      A                      A                      A
 Frequencies --   1081.9367              1104.2701              1113.1185
 Red. masses --      1.4042                 1.5458                 1.6595
 Frc consts  --      0.9684                 1.1106                 1.2115
 IR Inten    --     18.0649                18.6146               146.8849

                     67                     68                     69
                      A                      A                      A
 Frequencies --   1129.6417              1130.7405              1133.3102
 Red. masses --      1.5636                 1.3220                 1.7175
 Frc consts  --      1.1756                 0.9959                 1.2997
 IR Inten    --     21.6706                 5.8801                33.2116

                     70                     71                     72
                      A                      A                      A
 Frequencies --   1175.0132              1178.4878              1186.1493
 Red. masses --      1.4191                 1.1269                 1.1283
 Frc consts  --      1.1544                 0.9221                 0.9353
 IR Inten    --     29.4466                 0.1262                 1.0716

                     73                     74                     75
                      A                      A                      A
 Frequencies --   1201.9992              1207.3363              1226.2717
 Red. masses --      1.1194                 3.1079                 1.1365
 Frc consts  --      0.9529                 2.6691                 1.0069
 IR Inten    --      0.2164                50.5074                 2.5833

                     76                     77                     78
                      A                      A                      A
 Frequencies --   1246.5510              1272.3230              1299.8072
 Red. masses --      3.6728                 4.0092                 2.6114
 Frc consts  --      3.3626                 3.8238                 2.5994
 IR Inten    --    122.7264                 1.4458                28.0692

                     79                     80                     81
                      A                      A                      A
 Frequencies --   1304.0074              1319.6254              1329.5162
 Red. masses --      1.9403                 3.8112                 2.7044
 Frc consts  --      1.9439                 3.9103                 2.8165
 IR Inten    --     53.0317                70.1407                 8.7849

                     82                     83                     84
                      A                      A                      A
 Frequencies --   1343.1756              1350.2454              1354.6361
 Red. masses --      3.6428                 1.7244                 1.4346
 Frc consts  --      3.8721                 1.8523                 1.5511
 IR Inten    --    333.5098                58.8564                36.1405

                     85                     86                     87
                      A                      A                      A
 Frequencies --   1370.0091              1393.2787              1425.1213
 Red. masses --      1.3935                 3.5185                 1.2442
 Frc consts  --      1.5410                 4.0242                 1.4888
 IR Inten    --     12.2504               622.6185                24.0248

                     88                     89                     90
                      A                      A                      A
 Frequencies --   1440.1057              1456.2930              1467.1119
 Red. masses --      1.1664                 1.1550                 1.1610
 Frc consts  --      1.4252                 1.4432                 1.4724
 IR Inten    --      4.9576                 5.5182                45.9950

                     91                     92                     93
                      A                      A                      A
 Frequencies --   1475.8210              1481.3002              1483.7722
 Red. masses --      1.0912                 1.1358                 2.0974
 Frc consts  --      1.4003                 1.4683                 2.7206
 IR Inten    --     43.7434                16.9493                12.2123

                     94                     95                     96
                      A                      A                      A
 Frequencies --   1491.4958              1498.5012              1499.9936
 Red. masses --      2.1890                 1.0416                 1.0470
 Frc consts  --      2.8691                 1.3780                 1.3880
 IR Inten    --     13.2839                13.5753                 8.2129

                     97                     98                     99
                      A                      A                      A
 Frequencies --   1501.6130              1506.7122              1520.1687
 Red. masses --      1.0465                 1.0871                 1.1241
 Frc consts  --      1.3902                 1.4541                 1.5306
 IR Inten    --     15.8600                66.0061               114.7127

                    100                    101                    102
                      A                      A                      A
 Frequencies --   1535.8368              1537.8385              1548.2000
 Red. masses --      1.0764                 2.3741                 2.1825
 Frc consts  --      1.4960                 3.3081                 3.0823
 IR Inten    --     23.8854                56.4962                11.8374

                    103                    104                    105
                      A                      A                      A
 Frequencies --   1579.2075              1633.6606              1640.4471
 Red. masses --      8.0181                 1.1473                 5.3372
 Frc consts  --     11.7815                 1.8041                 8.4623
 IR Inten    --   1016.8086                68.6544                 4.1307

                    106                    107                    108
                      A                      A                      A
 Frequencies --   1654.6521              1667.8845              1677.8150
 Red. masses --      4.7281                 6.0077                 5.7605
 Frc consts  --      7.6270                 9.8467                 9.5543
 IR Inten    --      5.7224                27.9705                 3.8702

                    109                    110                    111
                      A                      A                      A
 Frequencies --   2982.2515              2997.9732              3066.4281
 Red. masses --      1.0544                 1.0521                 1.0855
 Frc consts  --      5.5251                 5.5713                 6.0140
 IR Inten    --    155.5658               167.4260                84.0824

                    112                    113                    114
                      A                      A                      A
 Frequencies --   3082.5363              3086.5442              3088.4294
 Red. masses --      1.0862                 1.0394                 1.0362
 Frc consts  --      6.0812                 5.8343                 5.8235
 IR Inten    --     54.5608                 7.8723                50.4944

                    115                    116                    117
                      A                      A                      A
 Frequencies --   3150.1431              3162.0828              3165.4906
 Red. masses --      1.0993                 1.0969                 1.1005
 Frc consts  --      6.4274                 6.4618                 6.4971
 IR Inten    --     31.5659                29.2047                 8.1599

                    118                    119                    120
                      A                      A                      A
 Frequencies --   3173.0600              3180.3840              3185.0303
 Red. masses --      1.1049                 1.0866                 1.0870
 Frc consts  --      6.5545                 6.4753                 6.4967
 IR Inten    --     10.1294                14.9127                 1.1915

                    121                    122                    123
                      A                      A                      A
 Frequencies --   3193.4791              3194.3710              3195.9546
 Red. masses --      1.1060                 1.0916                 1.0909
 Frc consts  --      6.6454                 6.5624                 6.5648
 IR Inten    --      4.1367                13.0697                15.6356

                    124                    125                    126
                      A                      A                      A
 Frequencies --   3197.0557              3202.4861              3203.4688
 Red. masses --      1.0912                 1.0948                 1.0895
 Frc consts  --      6.5715                 6.6155                 6.5876
 IR Inten    --      3.6436                58.2355                 3.7400

                    127                    128                    129
                      A                      A                      A
 Frequencies --   3213.0129              3214.8178              3219.7752
 Red. masses --      1.0919                 1.0986                 1.0938
 Frc consts  --      6.6415                 6.6899                 6.6807
 IR Inten    --     26.2828                23.7669                44.6121

                    130                    131                    132
                      A                      A                      A
 Frequencies --   3225.7649              3507.9104              3572.3149
 Red. masses --      1.0980                 1.0533                 1.0947
 Frc consts  --      6.7318                 7.6365                 8.2312
 IR Inten    --      7.1196                31.6186                79.4557

 - Thermochemistry -
 -------------------
 Temperature   298.150 Kelvin.  Pressure   1.00000 Atm.
 Atom     1 has atomic number  6 and mass  12.00000

 Molecular mass:   296.18886 amu.
 Principal axes and moments of inertia in atomic units:
                           1         2         3
     Eigenvalues --  5043.006436897.133738784.55833
           X            0.99903   0.04337   0.00816
           Y           -0.04335   0.99906  -0.00194
           Z           -0.00823   0.00159   0.99996
 This molecule is an asymmetric top.
 Rotational symmetry number  1.
 Warning -- assumption of classical behavior for rotation
           may cause significant error
 Rotational temperatures (Kelvin)      0.01718     0.01256     0.00986
 Rotational constants (GHZ):           0.35787     0.26167     0.20544
    1 imaginary frequencies ignored.
 Zero-point vibrational energy    1040877.1 (Joules/Mol)
                                  248.77560 (Kcal/Mol)
 Warning -- explicit consideration of  32 degrees of freedom as
           vibrations may cause significant error
 Vibrational temperatures:     26.12    50.17    62.42    88.14    96.73
          (Kelvin)            118.40   132.91   148.39   178.84   212.30
                              228.07   300.92   325.91   340.77   351.07
                              371.65   377.73   422.37   438.77   472.21
                              484.49   499.00   557.36   575.46   600.82
                              617.27   648.30   674.67   696.10   778.42
                              788.91   872.58   915.40   920.40   928.34
                              947.42  1008.12  1035.73  1047.64  1067.02
                             1126.11  1146.98  1166.50  1221.24  1244.91
                             1261.63  1269.56  1359.59  1364.90  1424.37
                             1447.63  1452.08  1471.19  1476.06  1477.16
                             1478.80  1485.64  1497.80  1521.89  1525.48
                             1535.97  1548.70  1556.67  1588.80  1601.53
                             1625.30  1626.88  1630.58  1690.58  1695.58
                             1706.60  1729.41  1737.09  1764.33  1793.51
                             1830.59  1870.13  1876.18  1898.65  1912.88
                             1932.53  1942.70  1949.02  1971.14  2004.62
                             2050.43  2071.99  2095.28  2110.85  2123.38
                             2131.26  2134.82  2145.93  2156.01  2158.16
                             2160.49  2167.82  2187.18  2209.73  2212.61
                             2227.51  2272.13  2350.47  2360.24  2380.68
                             2399.71  2414.00  4290.79  4313.41  4411.91
                             4435.08  4440.85  4443.56  4532.35  4549.53
                             4554.43  4565.33  4575.86  4582.55  4594.70
                             4595.99  4598.27  4599.85  4607.66  4609.08
                             4622.81  4625.41  4632.54  4641.16  5047.10
                             5139.76

 Zero-point correction=                           0.396449 (Hartree/Particle)
 Thermal correction to Energy=                    0.417613
 Thermal correction to Enthalpy=                  0.418557
 Thermal correction to Gibbs Free Energy=         0.345620
 Sum of electronic and zero-point Energies=           -922.789853
 Sum of electronic and thermal Energies=              -922.768689
 Sum of electronic and thermal Enthalpies=            -922.767745
 Sum of electronic and thermal Free Energies=         -922.840682

                     E (Thermal)             CV                S
                      KCal/Mol        Cal/Mol-Kelvin    Cal/Mol-Kelvin
 Total                  262.056             81.611            153.508
 Electronic               0.000              0.000              0.000
 Translational            0.889              2.981             42.955
 Rotational               0.889              2.981             34.079
 Vibrational            260.279             75.649             76.475
 Vibration     1          0.593              1.986              6.826
 Vibration     2          0.594              1.983              5.531
 Vibration     3          0.595              1.980              5.098
 Vibration     4          0.597              1.973              4.416
 Vibration     5          0.598              1.970              4.233
 Vibration     6          0.600              1.961              3.835
 Vibration     7          0.602              1.955              3.609
 Vibration     8          0.605              1.947              3.394
 Vibration     9          0.610              1.929              3.032
 Vibration    10          0.617              1.905              2.704
 Vibration    11          0.621              1.893              2.567
 Vibration    12          0.642              1.827              2.051
 Vibration    13          0.650              1.801              1.906
 Vibration    14          0.656              1.784              1.826
 Vibration    15          0.659              1.773              1.773
 Vibration    16          0.667              1.749              1.673
 Vibration    17          0.670              1.741              1.645
 Vibration    18          0.688              1.686              1.453
 Vibration    19          0.696              1.664              1.390
 Vibration    20          0.711              1.619              1.269
 Vibration    21          0.717              1.602              1.228
 Vibration    22          0.725              1.582              1.181
 Vibration    23          0.756              1.497              1.010
 Vibration    24          0.766              1.470              0.963
 Vibration    25          0.781              1.432              0.900
 Vibration    26          0.790              1.407              0.862
 Vibration    27          0.809              1.360              0.794
 Vibration    28          0.826              1.319              0.741
 Vibration    29          0.840              1.286              0.700
 Vibration    30          0.896              1.159              0.563
 Vibration    31          0.904              1.143              0.548
 Vibration    32          0.965              1.018              0.439

 Optimization completed.
    -- Stationary point found.
 Normal termination of Gaussian 16 at Wed Apr 14 13:54:22 2021.
