 Gaussian 16, Revision A.03,
 Gaussian 16:  ES64L-G16RevA.03 25-Dec-2016

 ----------------------------------------------------------------------
 # wB97XD def2tzvp, opt=(ts, noeigen, calcfc, maxcycles=70, maxstep=8),
  freq=noraman, scrf=(iefpcm, solvent=water)
 ----------------------------------------------------------------------

 ------------------------
 1_iteration/TS-861-1.out
 ------------------------
 Symbolic Z-matrix:
 Charge =  0 Multiplicity = 1

 SCF Done:  E(RwB97XD) =  -881.399586629     A.U. after   14 cycles
 SCF Done:  E(RwB97XD) =  -881.399586587     A.U. after    6 cycles
 Optimization completed.
    -- Stationary point found.
 Normal termination of Gaussian 16 at Sat Apr 17 06:50:00 2021.

 ---------------------------------------------------------------------
 #N Geom=AllCheck Guess=TCheck SCRF=Check GenChk RwB97XD/def2TZVP Freq
 ---------------------------------------------------------------------

 Structure from the checkpoint file:  "/beegfs/scratch/user/q/tla25/Gau-88734.chk"
 ------------------------
 1_iteration/TS-861-1.out
 ------------------------
 Charge =  0 Multiplicity = 1

                         Standard orientation:
 ---------------------------------------------------------------------
 Center     Atomic      Atomic             Coordinates (Angstroms)
 Number     Number       Type             X           Y           Z
 ---------------------------------------------------------------------
      1          6           0        0.306561   -0.759502    0.218613
      2          6           0        1.676113   -0.331453    0.073929
      3          8           0        2.627894   -1.084578    0.337050
      4          6           0       -0.730897    0.004952   -0.289122
      5          6           0       -2.505325    2.036856    0.496062
      6          1           0       -2.926961    2.598931    1.328394
      7          1           0       -1.920434    2.707839   -0.130813
      8          1           0       -3.310068    1.603808   -0.092721
      9          7           0       -1.635243    0.959778    0.976626
     10          1           0       -0.887105    1.317341    1.561371
     11          1           0       -2.151154    0.281396    1.527974
     12         17           0       -2.153432   -0.854068   -1.002681
     13          1           0       -0.492131    0.836373   -0.940595
     14          6           0        0.063198   -2.081119    0.897583
     15          1           0       -0.971671   -2.170962    1.232335
     16          1           0        0.265393   -2.937214    0.244337
     17          1           0        0.704179   -2.194194    1.773772
     18          7           0        1.952168    0.935532   -0.399852
     19          6           0        3.317783    1.403293   -0.467795
     20          1           0        1.259519    1.650386   -0.277083
     21          1           0        3.321368    2.399200   -0.908371
     22          1           0        3.796226    1.452508    0.515565
     23          1           0        3.914955    0.745025   -1.098023
 ---------------------------------------------------------------------

 SCF Done:  E(RwB97XD) =  -881.399586587     A.U. after    1 cycles

 The electronic state is 1-A.
 Alpha  occ. eigenvalues -- -101.69193 -19.18888 -14.50195 -14.43519 -10.38693
 Alpha  occ. eigenvalues --  -10.36346 -10.32428 -10.30080 -10.26474 -10.25063
 Alpha  occ. eigenvalues --   -9.57786  -7.32392  -7.31588  -7.31555  -1.11407
 Alpha  occ. eigenvalues --   -1.05697  -1.00019  -0.95834  -0.87209  -0.80084
 Alpha  occ. eigenvalues --   -0.79541  -0.76530  -0.69363  -0.64639  -0.64277
 Alpha  occ. eigenvalues --   -0.61062  -0.56752  -0.55661  -0.54515  -0.52843
 Alpha  occ. eigenvalues --   -0.51443  -0.49539  -0.49280  -0.48743  -0.46645
 Alpha  occ. eigenvalues --   -0.46377  -0.44855  -0.44457  -0.44105  -0.39720
 Alpha  occ. eigenvalues --   -0.39123  -0.33525  -0.32251  -0.25763
 Alpha virt. eigenvalues --    0.07644   0.08197   0.09818   0.12682   0.13626
 Alpha virt. eigenvalues --    0.14834   0.15299   0.16436   0.17184   0.18433
 Alpha virt. eigenvalues --    0.18876   0.20186   0.20433   0.20990   0.21621

 Mulliken charges:
               1
     1  C   -0.147538
     2  C    0.345779
     3  O   -0.566726
     4  C   -0.147993
     5  C   -0.280826
     6  H    0.161858
     7  H    0.155836
     8  H    0.153520
     9  N   -0.243942
    10  H    0.284479
    11  H    0.290745
    12  Cl  -0.157102
    13  H    0.175282
    14  C   -0.384597
    15  H    0.119487
    16  H    0.111664
    17  H    0.117089
    18  N   -0.355050
    19  C   -0.253805
    20  H    0.248823
    21  H    0.133947
    22  H    0.113759
    23  H    0.125310
 Sum of Mulliken charges =  -0.00000

 Dipole moment (field-independent basis, Debye):
    X=             -7.8174    Y=              9.1475    Z=              2.8649  Tot=             12.3692
 Quadrupole moment (field-independent basis, Debye-Ang):
   XX=            -75.9083   YY=            -64.6219   ZZ=            -66.5145
   XY=              3.5858   XZ=             -9.6999   YZ=              2.5826

  Exact polarizability: 193.557 -11.908 148.789   5.497   0.091 117.994
 Approx polarizability: 143.650  -8.985 121.088   4.931  -0.094 102.651

 ******    1 imaginary frequencies (negative Signs) ******

                      1                      2                      3
                      A                      A                      A
 Frequencies --   -379.8340                44.7949                57.8917
 Red. masses --      6.7502                 1.5030                 2.0013
 Frc consts  --      0.5738                 0.0018                 0.0040
 IR Inten    --    912.2634                 1.6737                 0.7098

                      4                      5                      6
                      A                      A                      A
 Frequencies --     76.7998                89.2236               126.9427
 Red. masses --      2.5849                 2.8046                 2.4375
 Frc consts  --      0.0090                 0.0132                 0.0231
 IR Inten    --      4.5153                 8.5644                 8.6196

                      7                      8                      9
                      A                      A                      A
 Frequencies --    148.5155               161.8900               180.6519
 Red. masses --      2.6387                 1.3480                 2.1817
 Frc consts  --      0.0343                 0.0208                 0.0419
 IR Inten    --      4.2930                 2.6194                 9.6134

                     10                     11                     12
                      A                      A                      A
 Frequencies --    185.3896               207.9113               265.5906
 Red. masses --      1.6089                 4.0483                 2.7859
 Frc consts  --      0.0326                 0.1031                 0.1158
 IR Inten    --      0.7791                15.2442                 3.9214

                     13                     14                     15
                      A                      A                      A
 Frequencies --    294.4586               337.7290               371.1430
 Red. masses --      3.1398                 2.7367                 4.6870
 Frc consts  --      0.1604                 0.1839                 0.3804
 IR Inten    --     39.3903                39.5891                 2.2713

                     16                     17                     18
                      A                      A                      A
 Frequencies --    425.2088               462.0904               500.8816
 Red. masses --      1.5848                 5.5307                 3.8136
 Frc consts  --      0.1688                 0.6958                 0.5637
 IR Inten    --    142.2216               181.1046                74.7118

                     19                     20                     21
                      A                      A                      A
 Frequencies --    656.3427               699.4174               776.5499
 Red. masses --      2.2705                 3.0107                 6.4842
 Frc consts  --      0.5763                 0.8677                 2.3038
 IR Inten    --     69.0016                43.1934                60.4090

                     22                     23                     24
                      A                      A                      A
 Frequencies --    802.2265               855.8762               979.0706
 Red. masses --      2.1413                 3.1411                 1.9970
 Frc consts  --      0.8119                 1.3557                 1.1279
 IR Inten    --    210.9472                74.4026               104.2252

                     25                     26                     27
                      A                      A                      A
 Frequencies --   1022.1978              1046.7080              1062.4750
 Red. masses --      1.1464                 1.9609                 1.3708
 Frc consts  --      0.7058                 1.2658                 0.9117
 IR Inten    --     51.5016                 6.9522                11.5632

                     28                     29                     30
                      A                      A                      A
 Frequencies --   1066.0293              1087.5053              1148.0382
 Red. masses --      2.2845                 1.7554                 1.3226
 Frc consts  --      1.5296                 1.2232                 1.0270
 IR Inten    --     43.4652               237.4587                25.1488

                     31                     32                     33
                      A                      A                      A
 Frequencies --   1167.2365              1187.1786              1197.0752
 Red. masses --      1.5248                 1.2041                 2.0119
 Frc consts  --      1.2240                 0.9999                 1.6986
 IR Inten    --    145.4870                43.1020                18.1654

                     34                     35                     36
                      A                      A                      A
 Frequencies --   1258.5005              1302.2482              1341.4637
 Red. masses --      1.3631                 1.6968                 1.3023
 Frc consts  --      1.2720                 1.6954                 1.3807
 IR Inten    --     83.4065               266.7942                 2.5943

                     37                     38                     39
                      A                      A                      A
 Frequencies --   1366.4701              1417.9407              1450.9525
 Red. masses --      2.2501                 1.3168                 1.7506
 Frc consts  --      2.4754                 1.5598                 2.1714
 IR Inten    --    411.9345                 7.9181               255.7307

                     40                     41                     42
                      A                      A                      A
 Frequencies --   1456.8123              1463.4903              1473.0112
 Red. masses --      1.2331                 1.2607                 1.1361
 Frc consts  --      1.5419                 1.5908                 1.4523
 IR Inten    --     13.1566                58.3598                49.1647

                     43                     44                     45
                      A                      A                      A
 Frequencies --   1477.9129              1492.5803              1502.8276
 Red. masses --      1.0708                 1.0395                 1.0335
 Frc consts  --      1.3780                 1.3644                 1.3752
 IR Inten    --     24.1963                18.0321                41.2871

                     46                     47                     48
                      A                      A                      A
 Frequencies --   1505.4516              1510.0787              1541.5838
 Red. masses --      1.1342                 1.3341                 1.7297
 Frc consts  --      1.5146                 1.7924                 2.4219
 IR Inten    --      9.3914               261.9245               389.3974

                     49                     50                     51
                      A                      A                      A
 Frequencies --   1635.7989              1642.5643              3018.7776
 Red. masses --      5.0345                 1.1254                 1.0482
 Frc consts  --      7.9372                 1.7890                 5.6282
 IR Inten    --    762.9692               142.8948               107.7443

                     52                     53                     54
                      A                      A                      A
 Frequencies --   3031.3681              3077.4981              3083.2214
 Red. masses --      1.0460                 1.0332                 1.0878
 Frc consts  --      5.6631                 5.7655                 6.0924
 IR Inten    --    102.1387                33.6397                48.1400

                     55                     56                     57
                      A                      A                      A
 Frequencies --   3107.8998              3120.5165              3149.8086
 Red. masses --      1.0900                 1.1013                 1.1037
 Frc consts  --      6.2030                 6.3181                 6.4519
 IR Inten    --     48.1794                37.4710                27.8683

                     58                     59                     60
                      A                      A                      A
 Frequencies --   3158.2471              3180.3982              3189.2486
 Red. masses --      1.1064                 1.1055                 1.0913
 Frc consts  --      6.5023                 6.5881                 6.5400
 IR Inten    --     11.9037                 7.4815                 6.6467

                     61                     62                     63
                      A                      A                      A
 Frequencies --   3510.7795              3590.9342              3689.5070
 Red. masses --      1.0514                 1.0967                 1.0765
 Frc consts  --      7.6353                 8.3317                 8.6335
 IR Inten    --     30.9358                53.2181                19.3773

 - Thermochemistry -
 -------------------
 Temperature   298.150 Kelvin.  Pressure   1.00000 Atm.
 Atom     1 has atomic number  6 and mass  12.00000

 Molecular mass:   164.07164 amu.
 Principal axes and moments of inertia in atomic units:
                           1         2         3
     Eigenvalues --  1196.211472746.711723347.61884
           X            0.99965  -0.00963  -0.02472
           Y            0.00878   0.99938  -0.03404
           Z            0.02503   0.03381   0.99911
 This molecule is an asymmetric top.
 Rotational symmetry number  1.
 Warning -- assumption of classical behavior for rotation
           may cause significant error
 Rotational temperatures (Kelvin)      0.07241     0.03153     0.02587
 Rotational constants (GHZ):           1.50871     0.65706     0.53911
    1 imaginary frequencies ignored.
 Zero-point vibrational energy     511038.3 (Joules/Mol)
                                  122.14109 (Kcal/Mol)
 Warning -- explicit consideration of  17 degrees of freedom as
           vibrations may cause significant error
 Vibrational temperatures:     64.45    83.29   110.50   128.37   182.64
          (Kelvin)            213.68   232.92   259.92   266.73   299.14
                              382.13   423.66   485.92   533.99   611.78
                              664.84   720.66   944.33  1006.31  1117.28
                             1154.22  1231.41  1408.66  1470.71  1505.98
                             1528.66  1533.78  1564.68  1651.77  1679.39
                             1708.09  1722.32  1810.70  1873.64  1930.07
                             1966.05  2040.10  2087.60  2096.03  2105.64
                             2119.33  2126.39  2147.49  2162.23  2166.01
                             2172.67  2218.00  2353.55  2363.28  4343.35
                             4361.46  4427.83  4436.07  4471.57  4489.73
                             4531.87  4544.01  4575.88  4588.62  5051.23
                             5166.55  5308.38

 Zero-point correction=                           0.194644 (Hartree/Particle)
 Thermal correction to Energy=                    0.207563
 Thermal correction to Enthalpy=                  0.208507
 Thermal correction to Gibbs Free Energy=         0.154392
 Sum of electronic and zero-point Energies=           -881.204942
 Sum of electronic and thermal Energies=              -881.192024
 Sum of electronic and thermal Enthalpies=            -881.191080
 Sum of electronic and thermal Free Energies=         -881.245194

                     E (Thermal)             CV                S
                      KCal/Mol        Cal/Mol-Kelvin    Cal/Mol-Kelvin
 Total                  130.248             43.735            113.894
 Electronic               0.000              0.000              0.000
 Translational            0.889              2.981             41.194
 Rotational               0.889              2.981             30.776
 Vibrational            128.470             37.773             41.924
 Vibration     1          0.595              1.979              5.035
 Vibration     2          0.596              1.974              4.528
 Vibration     3          0.599              1.965              3.971
 Vibration     4          0.602              1.957              3.677
 Vibration     5          0.611              1.926              2.992
 Vibration     6          0.618              1.904              2.691
 Vibration     7          0.622              1.889              2.528
 Vibration     8          0.630              1.866              2.322
 Vibration     9          0.631              1.860              2.273
 Vibration    10          0.641              1.829              2.062
 Vibration    11          0.671              1.736              1.625
 Vibration    12          0.689              1.684              1.448
 Vibration    13          0.718              1.600              1.223
 Vibration    14          0.743              1.531              1.075
 Vibration    15          0.787              1.415              0.874
 Vibration    16          0.820              1.334              0.760
 Vibration    17          0.856              1.248              0.656

 Optimization completed.
    -- Stationary point found.
 Normal termination of Gaussian 16 at Sat Apr 17 06:56:37 2021.
