 Gaussian 16, Revision A.03,
 Gaussian 16:  ES64L-G16RevA.03 25-Dec-2016

 ----------------------------------------------------------------------
 # wB97XD def2tzvp, opt=(ts, noeigen, calcfc, maxcycles=70, maxstep=8),
  freq=noraman, scrf=(iefpcm, solvent=water)
 ----------------------------------------------------------------------

 ------------------------
 1_iteration/TS-863-1.out
 ------------------------
 Symbolic Z-matrix:
 Charge =  0 Multiplicity = 1

 SCF Done:  E(RwB97XD) =  -1073.14277260     A.U. after   15 cycles
 SCF Done:  E(RwB97XD) =  -1073.14277262     A.U. after    7 cycles
 Optimization completed.
    -- Stationary point found.
 Normal termination of Gaussian 16 at Thu Feb 25 19:54:23 2021.

 ---------------------------------------------------------------------
 #N Geom=AllCheck Guess=TCheck SCRF=Check GenChk RwB97XD/def2TZVP Freq
 ---------------------------------------------------------------------

 Structure from the checkpoint file:  "/beegfs/scratch/user/q/tla25/Gau-107362.chk"
 ------------------------
 1_iteration/TS-863-1.out
 ------------------------
 Charge =  0 Multiplicity = 1

                         Standard orientation:
 ---------------------------------------------------------------------
 Center     Atomic      Atomic             Coordinates (Angstroms)
 Number     Number       Type             X           Y           Z
 ---------------------------------------------------------------------
      1          6           0       -1.579242   -0.769369    0.318983
      2          6           0       -0.155644   -0.925185    0.465720
      3          8           0        0.344616   -1.919789    0.999486
      4          6           0       -2.120066    0.188553   -0.521491
      5          6           0       -1.920434    2.183872    1.349754
      6          1           0       -2.422706    2.822904    2.073605
      7          1           0       -1.447014    1.349698    1.870781
      8          1           0       -1.162268    2.764326    0.827640
      9          7           0       -2.862121    1.633828    0.381330
     10          1           0       -3.686330    1.259596    0.838716
     11          1           0       -3.170415    2.323625   -0.295239
     12         17           0       -3.592610   -0.234872   -1.463380
     13          1           0       -1.464426    0.753215   -1.170356
     14          6           0       -2.454373   -1.747590    1.056123
     15          1           0       -3.457982   -1.346091    1.208050
     16          1           0       -2.564842   -2.699417    0.525967
     17          1           0       -2.035324   -1.974208    2.037008
     18          7           0        0.668418    0.093080   -0.016483
     19          6           0        2.061945    0.097720   -0.098033
     20          6           0        2.828430   -1.063218   -0.216706
     21          6           0        4.207108   -0.972964   -0.335883
     22          6           0        4.848939    0.256993   -0.349074
     23          6           0        4.087086    1.412126   -0.241287
     24          6           0        2.711058    1.335325   -0.112719
     25          1           0        0.250246    0.998850   -0.126229
     26          1           0        2.342604   -2.025836   -0.210736
     27          1           0        4.785477   -1.884511   -0.425835
     28          1           0        5.925407    0.315105   -0.443997
     29          1           0        4.565300    2.383756   -0.251495
     30          1           0        2.126812    2.244184   -0.022555
 ---------------------------------------------------------------------

 SCF Done:  E(RwB97XD) =  -1073.14277262     A.U. after    1 cycles

 The electronic state is 1-A.
 Alpha  occ. eigenvalues -- -101.69563 -19.19922 -14.49991 -14.45661 -10.38912
 Alpha  occ. eigenvalues --  -10.37844 -10.33464 -10.32349 -10.28899 -10.28767
 Alpha  occ. eigenvalues --  -10.28619 -10.28125 -10.28090 -10.26831 -10.26044
 Alpha  occ. eigenvalues --   -9.58155  -7.32769  -7.31951  -7.31918  -1.12766
 Alpha  occ. eigenvalues --   -1.05577  -1.03282  -0.96534  -0.95115  -0.87996
 Alpha  occ. eigenvalues --   -0.84947  -0.83845  -0.79857  -0.78120  -0.73441
 Alpha  occ. eigenvalues --   -0.71179  -0.68443  -0.65154  -0.63914  -0.62547
 Alpha  occ. eigenvalues --   -0.59314  -0.58191  -0.57370  -0.55985  -0.53899
 Alpha  occ. eigenvalues --   -0.52681  -0.51721  -0.51310  -0.50648  -0.49421
 Alpha  occ. eigenvalues --   -0.48825  -0.48629  -0.46311  -0.45929  -0.45552
 Alpha  occ. eigenvalues --   -0.45077  -0.44266  -0.42733  -0.39967  -0.39163
 Alpha  occ. eigenvalues --   -0.38858  -0.34187  -0.33038  -0.30051  -0.26472
 Alpha virt. eigenvalues --    0.04808   0.05554   0.07526   0.08785   0.09987
 Alpha virt. eigenvalues --    0.11962   0.13749   0.14032   0.15047   0.16342
 Alpha virt. eigenvalues --    0.16348   0.17338   0.17569   0.18215   0.19389

 Mulliken charges:
               1
     1  C   -0.191761
     2  C    0.382260
     3  O   -0.532455
     4  C   -0.127325
     5  C   -0.337921
     6  H    0.168227
     7  H    0.167565
     8  H    0.170033
     9  N   -0.263331
    10  H    0.289017
    11  H    0.296630
    12  Cl  -0.140840
    13  H    0.199553
    14  C   -0.387824
    15  H    0.122077
    16  H    0.120186
    17  H    0.123330
    18  N   -0.295316
    19  C    0.296549
    20  C   -0.300816
    21  C   -0.099130
    22  C   -0.198082
    23  C   -0.105633
    24  C   -0.302218
    25  H    0.235774
    26  H    0.145681
    27  H    0.140509
    28  H    0.139475
    29  H    0.141566
    30  H    0.144216
 Sum of Mulliken charges =  -0.00000

 Dipole moment (field-independent basis, Debye):
    X=             -5.7845    Y=             10.7437    Z=              0.1077  Tot=             12.2025
 Quadrupole moment (field-independent basis, Debye-Ang):
   XX=            -83.7315   YY=            -89.8515   ZZ=           -102.1560
   XY=            -13.3963   XZ=             -9.4371   YZ=              6.6915

  Exact polarizability: 306.831 -12.468 240.363   7.918  -5.229 162.214
 Approx polarizability: 222.014  -9.823 201.505   6.157  -5.841 142.320

 ******    1 imaginary frequencies (negative Signs) ******

                      1                      2                      3
                      A                      A                      A
 Frequencies --   -382.3453                25.4748                33.4749
 Red. masses --      6.2006                 3.9274                 5.8346
 Frc consts  --      0.5341                 0.0015                 0.0039
 IR Inten    --    993.6700                 0.4328                 1.5633

                      4                      5                      6
                      A                      A                      A
 Frequencies --     68.0044                81.1127                84.9241
 Red. masses --      3.3855                 2.1542                 3.5003
 Frc consts  --      0.0092                 0.0084                 0.0149
 IR Inten    --      6.0818                 0.6436                 5.4983

                      7                      8                      9
                      A                      A                      A
 Frequencies --    111.5515               134.1313               164.2541
 Red. masses --      1.5626                 4.3372                 4.2977
 Frc consts  --      0.0115                 0.0460                 0.0683
 IR Inten    --      3.7766                 7.3190                 8.8697

                     10                     11                     12
                      A                      A                      A
 Frequencies --    173.0734               212.6788               219.3937
 Red. masses --      2.9123                 1.1251                 4.1826
 Frc consts  --      0.0514                 0.0300                 0.1186
 IR Inten    --     12.0802                 4.8113                 2.7908

                     13                     14                     15
                      A                      A                      A
 Frequencies --    250.4463               274.7885               327.7941
 Red. masses --      4.2692                 3.5098                 4.4062
 Frc consts  --      0.1578                 0.1561                 0.2789
 IR Inten    --      0.7672                15.3391                 7.2796

                     16                     17                     18
                      A                      A                      A
 Frequencies --    334.9227               374.0887               421.9105
 Red. masses --      4.1675                 6.4997                 3.5873
 Frc consts  --      0.2754                 0.5359                 0.3762
 IR Inten    --     37.2821                 5.3788                 6.1803

                     19                     20                     21
                      A                      A                      A
 Frequencies --    428.6764               460.9518               502.8356
 Red. masses --      4.5709                 2.8544                 1.2516
 Frc consts  --      0.4949                 0.3573                 0.1865
 IR Inten    --      7.1514               107.8187               171.7344

                     22                     23                     24
                      A                      A                      A
 Frequencies --    526.3350               596.8747               635.9215
 Red. masses --      2.8279                 4.1326                 6.2121
 Frc consts  --      0.4616                 0.8674                 1.4801
 IR Inten    --      9.9995                34.6800                 2.9078

                     25                     26                     27
                      A                      A                      A
 Frequencies --    655.3977               717.7823               740.7768
 Red. masses --      2.2825                 1.9099                 4.3986
 Frc consts  --      0.5777                 0.5798                 1.4221
 IR Inten    --     21.8355                70.1257               254.7741

                     28                     29                     30
                      A                      A                      A
 Frequencies --    763.1237               780.0023               795.1018
 Red. masses --      6.4362                 1.8823                 2.3951
 Frc consts  --      2.2084                 0.6747                 0.8921
 IR Inten    --     27.0283               138.8335                27.0462

                     31                     32                     33
                      A                      A                      A
 Frequencies --    857.5938               862.8024               905.7918
 Red. masses --      1.5401                 2.8594                 3.6084
 Frc consts  --      0.6674                 1.2541                 1.7443
 IR Inten    --      8.0989                12.1044               100.7108

                     34                     35                     36
                      A                      A                      A
 Frequencies --    933.2250               999.4314              1001.0396
 Red. masses --      1.6496                 1.3881                 1.5027
 Frc consts  --      0.8464                 0.8169                 0.8872
 IR Inten    --     12.8312                21.7687                80.8192

                     37                     38                     39
                      A                      A                      A
 Frequencies --   1014.4154              1019.1542              1021.2598
 Red. masses --      1.2813                 1.5633                 2.6985
 Frc consts  --      0.7768                 0.9567                 1.6582
 IR Inten    --      0.4945                26.7989                 6.1496

                     40                     41                     42
                      A                      A                      A
 Frequencies --   1053.5791              1063.1816              1064.2981
 Red. masses --      1.2536                 2.0756                 1.3524
 Frc consts  --      0.8198                 1.3823                 0.9026
 IR Inten    --     31.2387                 1.7893                30.8402

                     43                     44                     45
                      A                      A                      A
 Frequencies --   1085.8099              1110.0225              1124.3304
 Red. masses --      4.1567                 2.2007                 1.6433
 Frc consts  --      2.8874                 1.5976                 1.2239
 IR Inten    --     60.3488               265.6634                57.3129

                     46                     47                     48
                      A                      A                      A
 Frequencies --   1162.1406              1181.8320              1211.3763
 Red. masses --      1.1399                 1.1186                 1.1263
 Frc consts  --      0.9070                 0.9205                 0.9738
 IR Inten    --     57.4965                 3.8838                18.3292

                     49                     50                     51
                      A                      A                      A
 Frequencies --   1234.2716              1264.1383              1277.4474
 Red. masses --      1.3624                 1.7238                 2.0968
 Frc consts  --      1.2229                 1.6230                 2.0160
 IR Inten    --     53.2835               503.2297                54.4083

                     52                     53                     54
                      A                      A                      A
 Frequencies --   1340.7152              1343.7563              1360.5279
 Red. masses --      4.0008                 1.3097                 1.8049
 Frc consts  --      4.2371                 1.3934                 1.9684
 IR Inten    --    373.4987                 1.9101                56.5657

                     55                     56                     57
                      A                      A                      A
 Frequencies --   1376.1530              1416.7054              1442.5994
 Red. masses --      2.1134                 1.3260                 1.5535
 Frc consts  --      2.3581                 1.5680                 1.9048
 IR Inten    --    330.4590                19.5273               161.5910

                     58                     59                     60
                      A                      A                      A
 Frequencies --   1463.5629              1468.4691              1474.3484
 Red. masses --      1.4414                 1.5249                 1.4641
 Frc consts  --      1.8191                 1.9374                 1.8751
 IR Inten    --    155.5121               268.3966               126.7963

                     61                     62                     63
                      A                      A                      A
 Frequencies --   1500.7948              1505.8558              1509.9772
 Red. masses --      1.0397                 1.0471                 1.3561
 Frc consts  --      1.3797                 1.3990                 1.8217
 IR Inten    --     28.0623                24.3555               345.0649

                     64                     65                     66
                      A                      A                      A
 Frequencies --   1547.1706              1551.2903              1647.0071
 Red. masses --      2.4319                 2.0588                 1.0894
 Frc consts  --      3.4299                 2.9192                 1.7411
 IR Inten    --    204.5496               303.1718                78.6351

                     67                     68                     69
                      A                      A                      A
 Frequencies --   1655.4846              1664.3734              1677.4239
 Red. masses --      7.6484                 4.1643                 6.2966
 Frc consts  --     12.3501                 6.7967                10.4386
 IR Inten    --    402.7040               245.8058               475.1947

                     70                     71                     72
                      A                      A                      A
 Frequencies --   3026.0375              3064.5404              3090.4263
 Red. masses --      1.0464                 1.0346                 1.0900
 Frc consts  --      5.6452                 5.7249                 6.1338
 IR Inten    --     91.4987                25.3391                43.5387

                     73                     74                     75
                      A                      A                      A
 Frequencies --   3126.7087              3147.7982              3167.3713
 Red. masses --      1.1013                 1.1021                 1.1070
 Frc consts  --      6.3434                 6.4338                 6.5434
 IR Inten    --     31.7051                 5.0267                14.9203

                     76                     77                     78
                      A                      A                      A
 Frequencies --   3184.5590              3195.0348              3204.5194
 Red. masses --      1.0880                 1.0881                 1.0930
 Frc consts  --      6.5009                 6.5445                 6.6129
 IR Inten    --     16.7052                 2.7017                31.8570

                     79                     80                     81
                      A                      A                      A
 Frequencies --   3205.2171              3220.4297              3265.9449
 Red. masses --      1.0919                 1.0977                 1.0918
 Frc consts  --      6.6091                 6.7078                 6.8616
 IR Inten    --      3.7443                24.1834                 1.4433

                     82                     83                     84
                      A                      A                      A
 Frequencies --   3522.7789              3604.8702              3676.7301
 Red. masses --      1.0507                 1.0967                 1.0757
 Frc consts  --      7.6825                 8.3972                 8.5681
 IR Inten    --     64.9507                57.9410                25.1545

 - Thermochemistry -
 -------------------
 Temperature   298.150 Kelvin.  Pressure   1.00000 Atm.
 Atom     1 has atomic number  6 and mass  12.00000

 Molecular mass:   226.08729 amu.
 Principal axes and moments of inertia in atomic units:
                           1         2         3
     Eigenvalues --  1766.969127175.665687829.27622
           X            0.99984  -0.00373  -0.01776
           Y            0.00406   0.99982   0.01846
           Z            0.01769  -0.01853   0.99967
 This molecule is an asymmetric top.
 Rotational symmetry number  1.
 Warning -- assumption of classical behavior for rotation
           may cause significant error
 Rotational temperatures (Kelvin)      0.04902     0.01207     0.01106
 Rotational constants (GHZ):           1.02138     0.25151     0.23051
    1 imaginary frequencies ignored.
 Zero-point vibrational energy     651917.7 (Joules/Mol)
                                  155.81207 (Kcal/Mol)
 Warning -- explicit consideration of  22 degrees of freedom as
           vibrations may cause significant error
 Vibrational temperatures:     36.65    48.16    97.84   116.70   122.19
          (Kelvin)            160.50   192.99   236.33   249.01   306.00
                              315.66   360.34   395.36   471.62   481.88
                              538.23   607.04   616.77   663.21   723.47
                              757.28   858.77   914.95   942.97  1032.73
                             1065.81  1097.96  1122.25  1143.97  1233.89
                             1241.38  1303.23  1342.70  1437.96  1440.27
                             1459.52  1466.34  1469.37  1515.87  1529.68
                             1531.29  1562.24  1597.07  1617.66  1672.06
                             1700.39  1742.90  1775.84  1818.81  1837.96
                             1928.99  1933.37  1957.50  1979.98  2038.32
                             2075.58  2105.74  2112.80  2121.26  2159.31
                             2166.59  2172.52  2226.03  2231.96  2369.68
                             2381.87  2394.66  2413.44  4353.79  4409.19
                             4446.43  4498.64  4528.98  4557.14  4581.87
                             4596.94  4610.59  4611.59  4633.48  4698.97
                             5068.49  5186.60  5289.99

 Zero-point correction=                           0.248302 (Hartree/Particle)
 Thermal correction to Energy=                    0.263843
 Thermal correction to Enthalpy=                  0.264787
 Thermal correction to Gibbs Free Energy=         0.203639
 Sum of electronic and zero-point Energies=          -1072.894470
 Sum of electronic and thermal Energies=             -1072.878930
 Sum of electronic and thermal Enthalpies=           -1072.877986
 Sum of electronic and thermal Free Energies=        -1072.939133

                     E (Thermal)             CV                S
                      KCal/Mol        Cal/Mol-Kelvin    Cal/Mol-Kelvin
 Total                  165.564             56.693            128.696
 Electronic               0.000              0.000              0.000
 Translational            0.889              2.981             42.150
 Rotational               0.889              2.981             32.962
 Vibrational            163.786             50.732             53.584
 Vibration     1          0.593              1.985              6.154
 Vibration     2          0.594              1.983              5.612
 Vibration     3          0.598              1.969              4.210
 Vibration     4          0.600              1.962              3.864
 Vibration     5          0.601              1.960              3.774
 Vibration     6          0.607              1.940              3.242
 Vibration     7          0.613              1.919              2.886
 Vibration     8          0.623              1.886              2.500
 Vibration     9          0.627              1.876              2.402
 Vibration    10          0.644              1.822              2.021
 Vibration    11          0.647              1.812              1.964
 Vibration    12          0.663              1.762              1.727
 Vibration    13          0.677              1.720              1.566
 Vibration    14          0.711              1.620              1.271
 Vibration    15          0.716              1.606              1.236
 Vibration    16          0.745              1.525              1.063
 Vibration    17          0.784              1.423              0.886
 Vibration    18          0.790              1.408              0.863
 Vibration    19          0.819              1.337              0.763
 Vibration    20          0.858              1.244              0.651
 Vibration    21          0.881              1.192              0.595
 Vibration    22          0.955              1.038              0.455

 Optimization completed.
    -- Stationary point found.
 Normal termination of Gaussian 16 at Thu Feb 25 20:46:54 2021.
