 Gaussian 16, Revision A.03,
 Gaussian 16:  ES64L-G16RevA.03 25-Dec-2016

 ----------------------------------------------------------------------
 # wB97XD def2tzvp, opt=(ts, noeigen, calcfc, maxcycles=70, maxstep=8),
  freq=noraman, scrf=(iefpcm, solvent=water)
 ----------------------------------------------------------------------

 ------------------------
 1_iteration/TS-855-1.out
 ------------------------
 Symbolic Z-matrix:
 Charge =  0 Multiplicity = 1

 SCF Done:  E(RwB97XD) =  -1033.82630206     A.U. after   14 cycles
 SCF Done:  E(RwB97XD) =  -1033.82735964     A.U. after   12 cycles
 SCF Done:  E(RwB97XD) =  -1033.82791380     A.U. after   12 cycles
 SCF Done:  E(RwB97XD) =  -1033.82796092     A.U. after   11 cycles
 SCF Done:  E(RwB97XD) =  -1033.82796489     A.U. after   10 cycles
 SCF Done:  E(RwB97XD) =  -1033.82796743     A.U. after   10 cycles
 SCF Done:  E(RwB97XD) =  -1033.82796935     A.U. after    9 cycles
 SCF Done:  E(RwB97XD) =  -1033.82794521     A.U. after   12 cycles
 SCF Done:  E(RwB97XD) =  -1033.82797082     A.U. after   11 cycles
 SCF Done:  E(RwB97XD) =  -1033.82797390     A.U. after   10 cycles
 SCF Done:  E(RwB97XD) =  -1033.82798111     A.U. after    8 cycles
 SCF Done:  E(RwB97XD) =  -1033.82797466     A.U. after   10 cycles
 SCF Done:  E(RwB97XD) =  -1033.82797375     A.U. after   11 cycles
 SCF Done:  E(RwB97XD) =  -1033.82797886     A.U. after   10 cycles
 SCF Done:  E(RwB97XD) =  -1033.82798210     A.U. after   10 cycles
 SCF Done:  E(RwB97XD) =  -1033.82798235     A.U. after    8 cycles
 SCF Done:  E(RwB97XD) =  -1033.82798244     A.U. after    7 cycles
 SCF Done:  E(RwB97XD) =  -1033.82798245     A.U. after    7 cycles
 SCF Done:  E(RwB97XD) =  -1033.82798249     A.U. after    6 cycles
 Optimization completed.
    -- Stationary point found.
 Normal termination of Gaussian 16 at Thu Feb 25 16:43:36 2021.

 ---------------------------------------------------------------------
 #N Geom=AllCheck Guess=TCheck SCRF=Check GenChk RwB97XD/def2TZVP Freq
 ---------------------------------------------------------------------

 Structure from the checkpoint file:  "/beegfs/scratch/user/q/tla25/Gau-26161.chk"
 ------------------------
 1_iteration/TS-855-1.out
 ------------------------
 Charge =  0 Multiplicity = 1

                         Standard orientation:
 ---------------------------------------------------------------------
 Center     Atomic      Atomic             Coordinates (Angstroms)
 Number     Number       Type             X           Y           Z
 ---------------------------------------------------------------------
      1          6           0       -1.717606   -1.048030    0.082605
      2          6           0       -0.293575   -1.183797    0.230410
      3          8           0        0.213769   -2.199549    0.716446
      4          6           0       -2.396167    0.054914   -0.401070
      5          6           0       -1.843326    1.611444    1.799298
      6          1           0       -2.189077    2.132602    2.690653
      7          1           0       -1.318112    0.702736    2.094094
      8          1           0       -1.164146    2.256504    1.245242
      9          7           0       -2.959229    1.233492    0.938480
     10          1           0       -3.664373    0.716922    1.453411
     11          1           0       -3.407615    2.039557    0.515646
     12         17           0       -3.993270   -0.237228   -1.129542
     13          1           0       -1.883630    0.814900   -0.978468
     14          1           0       -2.289184   -1.889901    0.448066
     15          7           0        0.501912   -0.135437   -0.207097
     16          6           0        1.890586    0.001881   -0.191090
     17          6           0        2.424651    1.127794   -0.828698
     18          6           0        3.788744    1.352213   -0.847929
     19          6           0        4.657833    0.459733   -0.234001
     20          6           0        4.131958   -0.655439    0.399120
     21          6           0        2.764628   -0.893502    0.429251
     22          1           0        0.027062    0.635209   -0.641623
     23          1           0        1.758276    1.831907   -1.314413
     24          1           0        4.173760    2.231718   -1.349000
     25          1           0        5.725946    0.632795   -0.249881
     26          1           0        4.794104   -1.361774    0.885214
     27          1           0        2.367285   -1.763551    0.924645
 ---------------------------------------------------------------------

 SCF Done:  E(RwB97XD) =  -1033.82798249     A.U. after    1 cycles

 The electronic state is 1-A.
 Alpha  occ. eigenvalues -- -101.70046 -19.20043 -14.49710 -14.46139 -10.39513
 Alpha  occ. eigenvalues --  -10.38358 -10.33747 -10.32156 -10.28957 -10.28784
 Alpha  occ. eigenvalues --  -10.28704 -10.28092 -10.27992 -10.25463  -9.58634
 Alpha  occ. eigenvalues --   -7.33268  -7.32420  -7.32387  -1.12955  -1.05329
 Alpha  occ. eigenvalues --   -1.03675  -0.96972  -0.95261  -0.86859  -0.84965
 Alpha  occ. eigenvalues --   -0.83023  -0.79589  -0.74003  -0.71428  -0.70263
 Alpha  occ. eigenvalues --   -0.65656  -0.64327  -0.62786  -0.59388  -0.57957
 Alpha  occ. eigenvalues --   -0.57455  -0.55603  -0.53805  -0.52948  -0.52013
 Alpha  occ. eigenvalues --   -0.51483  -0.50815  -0.49158  -0.48493  -0.47272
 Alpha  occ. eigenvalues --   -0.46873  -0.46182  -0.44526  -0.42689  -0.40439
 Alpha  occ. eigenvalues --   -0.39513  -0.39242  -0.33797  -0.33493  -0.30509
 Alpha  occ. eigenvalues --   -0.27271
 Alpha virt. eigenvalues --    0.04580   0.05465   0.07614   0.08513   0.10526
 Alpha virt. eigenvalues --    0.12142   0.13956   0.14150   0.16262   0.16719
 Alpha virt. eigenvalues --    0.17135   0.17713   0.18110   0.18636   0.19742

 Mulliken charges:
               1
     1  C   -0.437137
     2  C    0.388179
     3  O   -0.544746
     4  C   -0.028142
     5  C   -0.315481
     6  H    0.165897
     7  H    0.159742
     8  H    0.160999
     9  N   -0.281330
    10  H    0.285273
    11  H    0.294297
    12  Cl  -0.129172
    13  H    0.193588
    14  H    0.130338
    15  N   -0.256560
    16  C    0.305199
    17  C   -0.314783
    18  C   -0.099157
    19  C   -0.204313
    20  C   -0.101955
    21  C   -0.309386
    22  H    0.220085
    23  H    0.139954
    24  H    0.142322
    25  H    0.139402
    26  H    0.140214
    27  H    0.156672
 Sum of Mulliken charges =  -0.00000

 Dipole moment (field-independent basis, Debye):
    X=             -5.5606    Y=             10.2599    Z=              1.4859  Tot=             11.7641
 Quadrupole moment (field-independent basis, Debye-Ang):
   XX=            -76.5274   YY=            -92.8708   ZZ=            -89.0084
   XY=            -11.0780   XZ=            -11.2103   YZ=              2.2909

  Exact polarizability: 294.041  -9.862 207.064   9.213 -19.434 156.820
 Approx polarizability: 211.364  -7.652 176.790   8.522 -19.769 136.917

 ******    1 imaginary frequencies (negative Signs) ******

                      1                      2                      3
                      A                      A                      A
 Frequencies --   -367.7909                16.5197                28.3460
 Red. masses --      5.9948                 3.8742                 4.6723
 Frc consts  --      0.4778                 0.0006                 0.0022
 IR Inten    --    979.7708                 3.7842                 1.3212

                      4                      5                      6
                      A                      A                      A
 Frequencies --     67.5748                73.4691                92.9197
 Red. masses --      5.0825                 3.2115                 3.3947
 Frc consts  --      0.0137                 0.0102                 0.0173
 IR Inten    --      6.0067                 3.7604                 4.2438

                      7                      8                      9
                      A                      A                      A
 Frequencies --    109.3505               183.7886               201.5695
 Red. masses --      4.7626                 5.1826                 1.2831
 Frc consts  --      0.0336                 0.1031                 0.0307
 IR Inten    --      4.1156                 7.6002                 5.2333

                     10                     11                     12
                      A                      A                      A
 Frequencies --    228.9894               247.4077               267.9858
 Red. masses --      3.3559                 4.6335                 4.4513
 Frc consts  --      0.1037                 0.1671                 0.1883
 IR Inten    --      5.0271                 3.3191                16.5523

                     13                     14                     15
                      A                      A                      A
 Frequencies --    333.1550               350.2703               415.7605
 Red. masses --      4.8792                 6.5579                 2.2029
 Frc consts  --      0.3191                 0.4741                 0.2243
 IR Inten    --     25.6626                 5.5323                40.0198

                     16                     17                     18
                      A                      A                      A
 Frequencies --    423.8270               454.7197               521.4206
 Red. masses --      2.9964                 7.3147                 1.4013
 Frc consts  --      0.3171                 0.8911                 0.2245
 IR Inten    --      0.2019                17.3418               174.0651

                     19                     20                     21
                      A                      A                      A
 Frequencies --    529.6738               559.7522               636.3372
 Red. masses --      2.1123                 4.5924                 6.3880
 Frc consts  --      0.3492                 0.8478                 1.5240
 IR Inten    --      8.1256                49.0479                 2.0061

                     22                     23                     24
                      A                      A                      A
 Frequencies --    670.5518               700.1525               718.4701
 Red. masses --      1.5166                 3.1744                 1.9120
 Frc consts  --      0.4018                 0.9169                 0.5815
 IR Inten    --     59.5467                16.8341                56.5777

                     25                     26                     27
                      A                      A                      A
 Frequencies --    746.8990               781.8989               791.7367
 Red. masses --      2.0593                 1.8057                 3.7794
 Frc consts  --      0.6769                 0.6504                 1.3959
 IR Inten    --     76.8401                73.3544               109.2262

                     28                     29                     30
                      A                      A                      A
 Frequencies --    806.8371               860.1103               879.7600
 Red. masses --      5.1977                 1.2642                 5.4757
 Frc consts  --      1.9936                 0.5510                 2.4970
 IR Inten    --    195.0874                 0.0879                21.2216

                     31                     32                     33
                      A                      A                      A
 Frequencies --    929.7779               990.4571               999.8554
 Red. masses --      1.4671                 3.2514                 1.3447
 Frc consts  --      0.7472                 1.8793                 0.7921
 IR Inten    --     13.6309                21.7537                 0.0412

                     34                     35                     36
                      A                      A                      A
 Frequencies --   1014.2532              1015.3346              1020.5005
 Red. masses --      1.2437                 1.2777                 5.0480
 Frc consts  --      0.7538                 0.7760                 3.0974
 IR Inten    --     24.5523                 1.4002                19.0667

                     37                     38                     39
                      A                      A                      A
 Frequencies --   1048.7570              1062.9034              1083.0964
 Red. masses --      1.1612                 1.9804                 4.4263
 Frc consts  --      0.7525                 1.3182                 3.0593
 IR Inten    --     57.6622                21.5721                54.6543

                     40                     41                     42
                      A                      A                      A
 Frequencies --   1118.0638              1168.8150              1181.3927
 Red. masses --      1.5135                 1.1234                 1.1187
 Frc consts  --      1.1147                 0.9042                 0.9199
 IR Inten    --     12.8138               133.9632                 3.8484

                     43                     44                     45
                      A                      A                      A
 Frequencies --   1206.0769              1237.1926              1248.8274
 Red. masses --      1.1391                 1.3840                 1.4746
 Frc consts  --      0.9763                 1.2482                 1.3550
 IR Inten    --     32.7937                39.1009               612.4253

                     46                     47                     48
                      A                      A                      A
 Frequencies --   1274.3416              1289.4004              1303.1060
 Red. masses --      2.0362                 3.9255                 1.4790
 Frc consts  --      1.9483                 3.8452                 1.4798
 IR Inten    --    140.4476               157.6766                88.4638

                     49                     50                     51
                      A                      A                      A
 Frequencies --   1344.4241              1347.0587              1359.4917
 Red. masses --      1.7242                 1.9476                 1.8093
 Frc consts  --      1.8361                 2.0822                 1.9702
 IR Inten    --    247.6784               334.2189                 9.0406

                     52                     53                     54
                      A                      A                      A
 Frequencies --   1452.4734              1474.0523              1488.8293
 Red. masses --      1.2591                 2.0676                 2.3713
 Frc consts  --      1.5650                 2.6469                 3.0970
 IR Inten    --     99.4241               228.5577               584.5152

                     55                     56                     57
                      A                      A                      A
 Frequencies --   1492.2178              1506.9192              1544.9930
 Red. masses --      1.0462                 1.0384                 2.4997
 Frc consts  --      1.3726                 1.3893                 3.5156
 IR Inten    --     43.7776                34.1226               236.0861

                     58                     59                     60
                      A                      A                      A
 Frequencies --   1561.5017              1643.7779              1655.6358
 Red. masses --      2.0725                 1.0899                 7.0635
 Frc consts  --      2.9773                 1.7351                11.4077
 IR Inten    --    477.0113                80.3944               319.6657

                     61                     62                     63
                      A                      A                      A
 Frequencies --   1668.6801              1678.8399              3071.7351
 Red. masses --      3.9451                 5.9112                 1.0326
 Frc consts  --      6.4722                 9.8163                 5.7403
 IR Inten    --    295.3278               634.4135                25.1832

                     64                     65                     66
                      A                      A                      A
 Frequencies --   3153.7060              3168.0241              3183.8865
 Red. masses --      1.1048                 1.1064                 1.0886
 Frc consts  --      6.4739                 6.5423                 6.5018
 IR Inten    --      5.9702                15.8186                14.0354

                     67                     68                     69
                      A                      A                      A
 Frequencies --   3184.1604              3195.0503              3205.3259
 Red. masses --      1.0916                 1.0882                 1.0928
 Frc consts  --      6.5209                 6.5449                 6.6151
 IR Inten    --     10.5821                 4.2820                29.7252

                     70                     71                     72
                      A                      A                      A
 Frequencies --   3214.5477              3221.4053              3274.7802
 Red. masses --      1.0882                 1.0978                 1.0921
 Frc consts  --      6.6250                 6.7123                 6.9005
 IR Inten    --      4.1615                22.9201                 5.6535

                     73                     74                     75
                      A                      A                      A
 Frequencies --   3515.0975              3600.4983              3667.8763
 Red. masses --      1.0506                 1.0970                 1.0758
 Frc consts  --      7.6481                 8.3788                 8.5273
 IR Inten    --     60.1542                54.6409                24.6660

 - Thermochemistry -
 -------------------
 Temperature   298.150 Kelvin.  Pressure   1.00000 Atm.
 Atom     1 has atomic number  6 and mass  12.00000

 Molecular mass:   212.07164 amu.
 Principal axes and moments of inertia in atomic units:
                           1         2         3
     Eigenvalues --  1431.567526961.095457311.96965
           X            0.99988  -0.00623  -0.01427
           Y            0.00649   0.99981   0.01831
           Z            0.01415  -0.01840   0.99973
 This molecule is an asymmetric top.
 Rotational symmetry number  1.
 Warning -- assumption of classical behavior for rotation
           may cause significant error
 Rotational temperatures (Kelvin)      0.06050     0.01244     0.01185
 Rotational constants (GHZ):           1.26067     0.25926     0.24682
    1 imaginary frequencies ignored.
 Zero-point vibrational energy     578791.6 (Joules/Mol)
                                  138.33450 (Kcal/Mol)
 Warning -- explicit consideration of  19 degrees of freedom as
           vibrations may cause significant error
 Vibrational temperatures:     23.77    40.78    97.23   105.71   133.69
          (Kelvin)            157.33   264.43   290.01   329.46   355.96
                              385.57   479.34   503.96   598.19   609.79
                              654.24   750.21   762.08   805.36   915.55
                              964.77  1007.36  1033.72  1074.62  1124.98
                             1139.13  1160.86  1237.51  1265.78  1337.74
                             1425.05  1438.57  1459.28  1460.84  1468.27
                             1508.93  1529.28  1558.33  1608.64  1681.66
                             1699.76  1735.28  1780.04  1796.78  1833.49
                             1855.16  1874.88  1934.33  1938.12  1956.01
                             2089.79  2120.83  2142.09  2146.97  2168.12
                             2222.90  2246.65  2365.03  2382.09  2400.86
                             2415.48  4419.54  4537.48  4558.08  4580.90
                             4581.30  4596.96  4611.75  4625.02  4634.88
                             4711.68  5057.44  5180.31  5277.26

 Zero-point correction=                           0.220450 (Hartree/Particle)
 Thermal correction to Energy=                    0.234378
 Thermal correction to Enthalpy=                  0.235322
 Thermal correction to Gibbs Free Energy=         0.176918
 Sum of electronic and zero-point Energies=          -1033.607532
 Sum of electronic and thermal Energies=             -1033.593604
 Sum of electronic and thermal Enthalpies=           -1033.592660
 Sum of electronic and thermal Free Energies=        -1033.651064

                     E (Thermal)             CV                S
                      KCal/Mol        Cal/Mol-Kelvin    Cal/Mol-Kelvin
 Total                  147.075             50.965            122.922
 Electronic               0.000              0.000              0.000
 Translational            0.889              2.981             41.959
 Rotational               0.889              2.981             32.655
 Vibrational            145.297             45.003             48.308
 Vibration     1          0.593              1.986              7.014
 Vibration     2          0.593              1.984              5.942
 Vibration     3          0.598              1.970              4.223
 Vibration     4          0.599              1.967              4.058
 Vibration     5          0.602              1.954              3.598
 Vibration     6          0.606              1.942              3.280
 Vibration     7          0.631              1.862              2.290
 Vibration     8          0.638              1.838              2.119
 Vibration     9          0.652              1.797              1.887
 Vibration    10          0.661              1.767              1.749
 Vibration    11          0.673              1.732              1.609
 Vibration    12          0.715              1.609              1.245
 Vibration    13          0.727              1.575              1.165
 Vibration    14          0.779              1.436              0.906
 Vibration    15          0.786              1.418              0.879
 Vibration    16          0.813              1.350              0.782
 Vibration    17          0.876              1.203              0.607
 Vibration    18          0.885              1.184              0.588
 Vibration    19          0.915              1.118              0.524

 Optimization completed.
    -- Stationary point found.
 Normal termination of Gaussian 16 at Thu Feb 25 17:19:10 2021.
