 Gaussian 16, Revision A.03,
 Gaussian 16:  ES64L-G16RevA.03 25-Dec-2016

 ----------------------------------------------------------------------
 # wB97XD def2tzvp, opt=(ts, noeigen, calcfc, maxcycles=70, maxstep=1),
  freq=noraman, scrf=(iefpcm, solvent=water)
 ----------------------------------------------------------------------

 ------------------------
 0_iteration/TS-857-0.out
 ------------------------
 Symbolic Z-matrix:
 Charge =  0 Multiplicity = 1

 SCF Done:  E(RwB97XD) =  -786.712836015     A.U. after   15 cycles
 SCF Done:  E(RwB97XD) =  -786.712770695     A.U. after   10 cycles
 SCF Done:  E(RwB97XD) =  -786.712710098     A.U. after   10 cycles
 SCF Done:  E(RwB97XD) =  -786.712654103     A.U. after   10 cycles
 SCF Done:  E(RwB97XD) =  -786.712602801     A.U. after   10 cycles
 SCF Done:  E(RwB97XD) =  -786.712556244     A.U. after   10 cycles
 SCF Done:  E(RwB97XD) =  -786.712514458     A.U. after   10 cycles
 SCF Done:  E(RwB97XD) =  -786.712477442     A.U. after   10 cycles
 SCF Done:  E(RwB97XD) =  -786.712445167     A.U. after   10 cycles
 SCF Done:  E(RwB97XD) =  -786.712417609     A.U. after   10 cycles
 SCF Done:  E(RwB97XD) =  -786.716099241     A.U. after   10 cycles
 SCF Done:  E(RwB97XD) =  -786.716127850     A.U. after   11 cycles
 SCF Done:  E(RwB97XD) =  -786.716153097     A.U. after   11 cycles
 SCF Done:  E(RwB97XD) =  -786.716172143     A.U. after   11 cycles
 SCF Done:  E(RwB97XD) =  -786.716183805     A.U. after   10 cycles
 SCF Done:  E(RwB97XD) =  -786.716186832     A.U. after   10 cycles
 SCF Done:  E(RwB97XD) =  -786.716186991     A.U. after    9 cycles
 SCF Done:  E(RwB97XD) =  -786.716187228     A.U. after    8 cycles
 SCF Done:  E(RwB97XD) =  -786.716187204     A.U. after    7 cycles
 Optimization completed on the basis of negligible forces.
    -- Stationary point found.
 Normal termination of Gaussian 16 at Wed Feb 24 03:52:07 2021.

 ---------------------------------------------------------------------
 #N Geom=AllCheck Guess=TCheck SCRF=Check GenChk RwB97XD/def2TZVP Freq
 ---------------------------------------------------------------------

 Structure from the checkpoint file:  "/beegfs/scratch/user/q/tla25/Gau-18430.chk"
 ------------------------
 0_iteration/TS-857-0.out
 ------------------------
 Charge =  0 Multiplicity = 1

                         Standard orientation:
 ---------------------------------------------------------------------
 Center     Atomic      Atomic             Coordinates (Angstroms)
 Number     Number       Type             X           Y           Z
 ---------------------------------------------------------------------
      1          6           0        0.724318   -0.485799    0.018244
      2          6           0        1.876953   -0.051791   -0.687927
      3          8           0        3.052925   -0.204264   -0.348037
      4          6           0       -0.489138   -0.155936   -0.556216
      5          6           0       -0.241679    2.512498    0.274843
      6          1           0       -0.578959    3.379171    0.842857
      7          1           0        0.664826    2.114556    0.731682
      8          1           0       -0.013478    2.817070   -0.745390
      9          7           0       -1.245714    1.459747    0.246284
     10          1           0       -1.545954    1.197705    1.177809
     11          1           0       -2.067126    1.721680   -0.286127
     12         17           0       -1.894942   -1.191971   -0.286239
     13          1           0       -0.495708    0.246151   -1.560895
     14          6           0        0.838807   -1.181069    1.341714
     15          1           0        0.366716   -0.609143    2.146852
     16          1           0        0.371499   -2.168716    1.330441
     17          1           0        1.891117   -1.305465    1.594237
     18          1           0        1.662107    0.458978   -1.649055
 ---------------------------------------------------------------------

 SCF Done:  E(RwB97XD) =  -786.716187204     A.U. after    1 cycles

 The electronic state is 1-A.
 Alpha  occ. eigenvalues -- -101.70163 -19.20688 -14.48424 -10.38813 -10.34391
 Alpha  occ. eigenvalues --  -10.31720 -10.27094 -10.26719  -9.58751  -7.33377
 Alpha  occ. eigenvalues --   -7.32548  -7.32503  -1.10863  -1.04131  -0.97336
 Alpha  occ. eigenvalues --   -0.88422  -0.79072  -0.78910  -0.71121  -0.64265
 Alpha  occ. eigenvalues --   -0.61666  -0.57760  -0.57160  -0.54907  -0.53553
 Alpha  occ. eigenvalues --   -0.49881  -0.48765  -0.48044  -0.46294  -0.45953
 Alpha  occ. eigenvalues --   -0.45408  -0.44990  -0.40173  -0.38612  -0.32352
 Alpha  occ. eigenvalues --   -0.28106
 Alpha virt. eigenvalues --    0.04370   0.09296   0.10251   0.13473   0.13711
 Alpha virt. eigenvalues --    0.14447   0.16051   0.17414   0.19171   0.19416
 Alpha virt. eigenvalues --    0.20015   0.21245   0.22345   0.22548   0.24738

 Mulliken charges:
               1
     1  C   -0.106001
     2  C    0.110365
     3  O   -0.514244
     4  C   -0.019436
     5  C   -0.306117
     6  H    0.159960
     7  H    0.161915
     8  H    0.157422
     9  N   -0.344442
    10  H    0.285078
    11  H    0.290924
    12  Cl  -0.115205
    13  H    0.198130
    14  C   -0.399137
    15  H    0.122138
    16  H    0.127413
    17  H    0.129352
    18  H    0.061886
 Sum of Mulliken charges =  -0.00000

 Dipole moment (field-independent basis, Debye):
    X=             -8.4481    Y=              5.8022    Z=              0.7288  Tot=             10.2746
 Quadrupole moment (field-independent basis, Debye-Ang):
   XX=            -75.7161   YY=            -49.2247   ZZ=            -52.5165
   XY=             -4.2950   XZ=              0.5871   YZ=             -0.3772

  Exact polarizability: 165.619  -7.064 116.657  -3.825  -3.201  98.945
 Approx polarizability: 131.505  -3.736  94.252  -1.185  -2.366  84.888

 ******    1 imaginary frequencies (negative Signs) ******

                      1                      2                      3
                      A                      A                      A
 Frequencies --   -364.3698                61.7150                70.4486
 Red. masses --      6.0516                 1.3921                 1.7132
 Frc consts  --      0.4734                 0.0031                 0.0050
 IR Inten    --    872.9242                 1.4572                 1.3380

                      4                      5                      6
                      A                      A                      A
 Frequencies --     89.8409               140.7380               164.3562
 Red. masses --      3.2471                 1.6888                 1.6972
 Frc consts  --      0.0154                 0.0197                 0.0270
 IR Inten    --      1.3706                 8.3082                11.9288

                      7                      8                      9
                      A                      A                      A
 Frequencies --    206.8028               216.9812               272.2980
 Red. masses --      4.0611                 3.5373                 3.3317
 Frc consts  --      0.1023                 0.0981                 0.1455
 IR Inten    --      8.5196                 2.5907                13.6485

                     10                     11                     12
                      A                      A                      A
 Frequencies --    305.1326               356.7638               408.5913
 Red. masses --      4.0479                 2.6553                 6.7639
 Frc consts  --      0.2221                 0.1991                 0.6653
 IR Inten    --     30.8429                 8.1606                 6.7260

                     13                     14                     15
                      A                      A                      A
 Frequencies --    487.4565               617.4878               724.9811
 Red. masses --      2.4773                 1.9250                 2.4444
 Frc consts  --      0.3468                 0.4325                 0.7570
 IR Inten    --    105.2654                36.5487                90.1548

                     16                     17                     18
                      A                      A                      A
 Frequencies --    792.8241               873.9231               996.6687
 Red. masses --      4.7119                 3.5211                 1.0906
 Frc consts  --      1.7450                 1.5844                 0.6383
 IR Inten    --    161.1849                41.0182                48.3305

                     19                     20                     21
                      A                      A                      A
 Frequencies --   1012.2496              1021.9548              1026.5439
 Red. masses --      1.1528                 1.4747                 1.5672
 Frc consts  --      0.6960                 0.9075                 0.9730
 IR Inten    --     71.4388               149.4910                89.3541

                     22                     23                     24
                      A                      A                      A
 Frequencies --   1065.1252              1088.8292              1126.6009
 Red. masses --      1.4377                 4.8225                 1.1012
 Frc consts  --      0.9610                 3.3686                 0.8235
 IR Inten    --     17.4162                32.9000                46.2213

                     25                     26                     27
                      A                      A                      A
 Frequencies --   1211.5077              1233.1841              1342.7979
 Red. masses --      1.4064                 1.3772                 1.3320
 Frc consts  --      1.2162                 1.2339                 1.4150
 IR Inten    --     24.0166                66.3238                 0.5811

                     28                     29                     30
                      A                      A                      A
 Frequencies --   1377.7623              1406.8634              1428.9989
 Red. masses --      1.5441                 1.3826                 2.4069
 Frc consts  --      1.7270                 1.6123                 2.8958
 IR Inten    --    278.4277               372.2275                20.9796

                     31                     32                     33
                      A                      A                      A
 Frequencies --   1457.4892              1479.6077              1485.3649
 Red. masses --      1.1940                 1.2423                 1.0427
 Frc consts  --      1.4945                 1.6024                 1.3555
 IR Inten    --      7.9229                 2.1166                18.1835

                     34                     35                     36
                      A                      A                      A
 Frequencies --   1493.3466              1502.3299              1515.4526
 Red. masses --      1.0403                 1.0406                 2.1708
 Frc consts  --      1.3669                 1.3838                 2.9373
 IR Inten    --     22.7039                24.8992               390.5672

                     37                     38                     39
                      A                      A                      A
 Frequencies --   1649.8868              1665.0837              2896.3632
 Red. masses --      1.0897                 7.2631                 1.0807
 Frc consts  --      1.7478                11.8644                 5.3417
 IR Inten    --     71.0063              1078.6922               175.9423

                     40                     41                     42
                      A                      A                      A
 Frequencies --   3034.6383              3067.0155              3088.9124
 Red. masses --      1.0408                 1.0327                 1.0989
 Frc consts  --      5.6470                 5.7233                 6.1777
 IR Inten    --     55.0713                27.4415                38.7211

                     43                     44                     45
                      A                      A                      A
 Frequencies --   3142.9210              3146.1143              3159.9387
 Red. masses --      1.0981                 1.1048                 1.1056
 Frc consts  --      6.3911                 6.4429                 6.5046
 IR Inten    --     12.4067                 9.3356                15.7237

                     46                     47                     48
                      A                      A                      A
 Frequencies --   3207.6985              3530.0057              3614.1576
 Red. masses --      1.0915                 1.0503                 1.0967
 Frc consts  --      6.6169                 7.7112                 8.4403
 IR Inten    --      4.0048                60.1338                49.4395

 - Thermochemistry -
 -------------------
 Temperature   298.150 Kelvin.  Pressure   1.00000 Atm.
 Atom     1 has atomic number  6 and mass  12.00000

 Molecular mass:   135.04509 amu.
 Principal axes and moments of inertia in atomic units:
                           1         2         3
     Eigenvalues --   946.322731524.405912079.25507
           X            0.99775  -0.06694   0.00293
           Y            0.06699   0.99738  -0.02742
           Z           -0.00108   0.02755   0.99962
 This molecule is an asymmetric top.
 Rotational symmetry number  1.
 Warning -- assumption of classical behavior for rotation
           may cause significant error
 Rotational temperatures (Kelvin)      0.09153     0.05682     0.04166
 Rotational constants (GHZ):           1.90711     1.18390     0.86797
    1 imaginary frequencies ignored.
 Zero-point vibrational energy     390375.9 (Joules/Mol)
                                   93.30208 (Kcal/Mol)
 Warning -- explicit consideration of  13 degrees of freedom as
           vibrations may cause significant error
 Vibrational temperatures:     88.79   101.36   129.26   202.49   236.47
          (Kelvin)            297.54   312.19   391.78   439.02   513.30
                              587.87   701.34   888.43  1043.09  1140.70
                             1257.38  1433.98  1456.40  1470.37  1476.97
                             1532.48  1566.58  1620.93  1743.09  1774.28
                             1931.99  1982.29  2024.16  2056.01  2097.00
                             2128.83  2137.11  2148.59  2161.52  2180.40
                             2373.82  2395.68  4167.22  4366.17  4412.75
                             4444.26  4521.96  4526.56  4546.45  4615.16
                             5078.89  5199.97

 Zero-point correction=                           0.148686 (Hartree/Particle)
 Thermal correction to Energy=                    0.158706
 Thermal correction to Enthalpy=                  0.159650
 Thermal correction to Gibbs Free Energy=         0.112502
 Sum of electronic and zero-point Energies=           -786.567501
 Sum of electronic and thermal Energies=              -786.557481
 Sum of electronic and thermal Enthalpies=            -786.556537
 Sum of electronic and thermal Free Energies=         -786.603685

                     E (Thermal)             CV                S
                      KCal/Mol        Cal/Mol-Kelvin    Cal/Mol-Kelvin
 Total                   99.590             33.643             99.232
 Electronic               0.000              0.000              0.000
 Translational            0.889              2.981             40.614
 Rotational               0.889              2.981             29.485
 Vibrational             97.812             27.681             29.133
 Vibration     1          0.597              1.973              4.402
 Vibration     2          0.598              1.968              4.141
 Vibration     3          0.602              1.956              3.664
 Vibration     4          0.615              1.913              2.794
 Vibration     5          0.623              1.886              2.499
 Vibration     6          0.641              1.830              2.072
 Vibration     7          0.646              1.815              1.984
 Vibration     8          0.675              1.724              1.582
 Vibration     9          0.696              1.664              1.389
 Vibration    10          0.732              1.561              1.136
 Vibration    11          0.773              1.452              0.932
 Vibration    12          0.843              1.278              0.690
 Vibration    13          0.977              0.995              0.421

 Optimization completed.
    -- Stationary point found.
 Normal termination of Gaussian 16 at Wed Feb 24 03:59:41 2021.
