 Gaussian 16, Revision A.03,
 Gaussian 16:  ES64L-G16RevA.03 25-Dec-2016

 ----------------------------------------------------------------------
 # wB97XD def2tzvp, opt=(ts, noeigen, calcfc, maxcycles=70, maxstep=1),
  freq=noraman, scrf=(iefpcm, solvent=water)
 ----------------------------------------------------------------------

 ------------------------
 0_iteration/TS-890-0.out
 ------------------------
 Symbolic Z-matrix:
 Charge =  0 Multiplicity = 1

 SCF Done:  E(RwB97XD) =  -826.038761599     A.U. after   15 cycles
 SCF Done:  E(RwB97XD) =  -826.038720439     A.U. after   10 cycles
 SCF Done:  E(RwB97XD) =  -826.038683098     A.U. after   10 cycles
 SCF Done:  E(RwB97XD) =  -826.038649614     A.U. after   10 cycles
 SCF Done:  E(RwB97XD) =  -826.038620007     A.U. after   10 cycles
 SCF Done:  E(RwB97XD) =  -826.038594307     A.U. after   10 cycles
 SCF Done:  E(RwB97XD) =  -826.038572579     A.U. after   10 cycles
 SCF Done:  E(RwB97XD) =  -826.038554909     A.U. after   10 cycles
 SCF Done:  E(RwB97XD) =  -826.038541429     A.U. after   10 cycles
 SCF Done:  E(RwB97XD) =  -826.038532465     A.U. after   10 cycles
 SCF Done:  E(RwB97XD) =  -826.038909294     A.U. after    9 cycles
 SCF Done:  E(RwB97XD) =  -826.038923540     A.U. after   10 cycles
 SCF Done:  E(RwB97XD) =  -826.038936026     A.U. after    9 cycles
 SCF Done:  E(RwB97XD) =  -826.038946402     A.U. after    9 cycles
 SCF Done:  E(RwB97XD) =  -826.038954294     A.U. after    9 cycles
 SCF Done:  E(RwB97XD) =  -826.038959784     A.U. after    9 cycles
 SCF Done:  E(RwB97XD) =  -826.038963092     A.U. after    9 cycles
 SCF Done:  E(RwB97XD) =  -826.038963965     A.U. after   10 cycles
 SCF Done:  E(RwB97XD) =  -826.038963970     A.U. after    7 cycles
 Optimization completed.
    -- Stationary point found.
 Normal termination of Gaussian 16 at Wed Feb 24 03:34:10 2021.

 ---------------------------------------------------------------------
 #N Geom=AllCheck Guess=TCheck SCRF=Check GenChk RwB97XD/def2TZVP Freq
 ---------------------------------------------------------------------

 Structure from the checkpoint file:  "/beegfs/scratch/user/q/tla25/Gau-26266.chk"
 ------------------------
 0_iteration/TS-890-0.out
 ------------------------
 Charge =  0 Multiplicity = 1

                         Standard orientation:
 ---------------------------------------------------------------------
 Center     Atomic      Atomic             Coordinates (Angstroms)
 Number     Number       Type             X           Y           Z
 ---------------------------------------------------------------------
      1          6           0       -0.556575   -0.622824   -0.415598
      2          6           0       -1.856109   -0.299552    0.068468
      3          8           0       -2.120452    0.288929    1.127537
      4          6           0        0.641063   -0.305737    0.222498
      5          6           0        0.318828    2.413887   -0.525532
      6          1           0        0.591950    3.238143   -1.184129
      7          1           0       -0.625890    1.984935   -0.862366
      8          1           0        0.199399    2.789136    0.488230
      9          7           0        1.324309    1.359211   -0.538436
     10          1           0        1.562250    1.091487   -1.486443
     11          1           0        2.179570    1.636659   -0.069437
     12         17           0        2.024834   -1.314192   -0.304134
     13          6           0        0.739961    0.047327    1.676137
     14          1           0        0.027192    0.832686    1.911764
     15          1           0        0.471306   -0.829290    2.267341
     16          1           0        1.750862    0.350951    1.941161
     17          1           0       -0.489640   -1.113028   -1.376530
     18          6           0       -3.021381   -0.731445   -0.806759
     19          1           0       -3.700961   -1.346746   -0.214527
     20          1           0       -3.573807    0.157243   -1.119048
     21          1           0       -2.715669   -1.286759   -1.692265
 ---------------------------------------------------------------------

 SCF Done:  E(RwB97XD) =  -826.038963970     A.U. after    1 cycles

 The electronic state is 1-A.
 Alpha  occ. eigenvalues -- -101.69619 -19.19739 -14.48417 -10.40151 -10.34914
 Alpha  occ. eigenvalues --  -10.31543 -10.28413 -10.26810 -10.25168  -9.58226
 Alpha  occ. eigenvalues --   -7.32840  -7.32025  -7.31985  -1.10424  -1.04198
 Alpha  occ. eigenvalues --   -0.97239  -0.86834  -0.83817  -0.79247  -0.78765
 Alpha  occ. eigenvalues --   -0.68183  -0.63091  -0.59714  -0.57888  -0.56461
 Alpha  occ. eigenvalues --   -0.55147  -0.53416  -0.51140  -0.49803  -0.49645
 Alpha  occ. eigenvalues --   -0.48495  -0.47031  -0.45808  -0.44891  -0.44158
 Alpha  occ. eigenvalues --   -0.42243  -0.39835  -0.38512  -0.31448  -0.28460
 Alpha virt. eigenvalues --    0.03992   0.08374   0.10642   0.12920   0.14095
 Alpha virt. eigenvalues --    0.14927   0.15996   0.16802   0.17706   0.19123
 Alpha virt. eigenvalues --    0.19997   0.21074   0.21474   0.21727   0.22077

 Mulliken charges:
               1
     1  C   -0.500067
     2  C    0.337607
     3  O   -0.547056
     4  C    0.234105
     5  C   -0.291967
     6  H    0.157916
     7  H    0.147689
     8  H    0.156452
     9  N   -0.335811
    10  H    0.279739
    11  H    0.287368
    12  Cl  -0.133445
    13  C   -0.374509
    14  H    0.152101
    15  H    0.148471
    16  H    0.142830
    17  H    0.128009
    18  C   -0.372544
    19  H    0.131150
    20  H    0.130390
    21  H    0.121574
 Sum of Mulliken charges =  -0.00000

 Dipole moment (field-independent basis, Debye):
    X=              5.3902    Y=              4.0654    Z=             -3.3707  Tot=              7.5461
 Quadrupole moment (field-independent basis, Debye-Ang):
   XX=            -66.5729   YY=            -57.4940   ZZ=            -62.0463
   XY=              9.3148   XZ=              6.3853   YZ=             -3.1176

  Exact polarizability: 176.090   4.532 131.903  -5.971   3.467 119.514
 Approx polarizability: 131.804   0.202 108.642  -6.492   4.631 103.641

 ******    1 imaginary frequencies (negative Signs) ******

                      1                      2                      3
                      A                      A                      A
 Frequencies --   -363.3175                41.9218                62.6529
 Red. masses --      5.5536                 2.1240                 1.2704
 Frc consts  --      0.4319                 0.0022                 0.0029
 IR Inten    --    781.4934                 2.3837                 5.4177

                      4                      5                      6
                      A                      A                      A
 Frequencies --     78.3279               102.5035               187.4370
 Red. masses --      3.6679                 2.2598                 1.3691
 Frc consts  --      0.0133                 0.0140                 0.0283
 IR Inten    --     12.5149                 3.0909                 0.6573

                      7                      8                      9
                      A                      A                      A
 Frequencies --    188.8698               198.6006               246.1543
 Red. masses --      3.6324                 2.3462                 1.3979
 Frc consts  --      0.0763                 0.0545                 0.0499
 IR Inten    --     13.2129                 2.4483                 5.4114

                     10                     11                     12
                      A                      A                      A
 Frequencies --    275.5215               297.0804               322.7737
 Red. masses --      3.3561                 2.1082                 3.4056
 Frc consts  --      0.1501                 0.1096                 0.2090
 IR Inten    --     14.9433                 7.3595                17.2438

                     13                     14                     15
                      A                      A                      A
 Frequencies --    347.7221               434.4372               476.4599
 Red. masses --      4.9950                 3.1320                 2.8754
 Frc consts  --      0.3558                 0.3483                 0.3846
 IR Inten    --     14.1828                12.8508                64.5698

                     16                     17                     18
                      A                      A                      A
 Frequencies --    569.4252               639.1012               672.7979
 Red. masses --      4.2886                 2.2752                 1.3893
 Frc consts  --      0.8193                 0.5475                 0.3705
 IR Inten    --     66.2072                22.6593                20.9982

                     19                     20                     21
                      A                      A                      A
 Frequencies --    734.3256               755.8185               901.1428
 Red. masses --      2.4402                 1.5511                 4.5775
 Frc consts  --      0.7753                 0.5221                 2.1901
 IR Inten    --     55.9995               146.8108               108.2725

                     22                     23                     24
                      A                      A                      A
 Frequencies --    985.6576               993.3429              1019.1027
 Red. masses --      1.6669                 1.2947                 1.5295
 Frc consts  --      0.9541                 0.7527                 0.9359
 IR Inten    --      5.3571                36.4337               118.5807

                     25                     26                     27
                      A                      A                      A
 Frequencies --   1031.8038              1044.8643              1065.3119
 Red. masses --      1.1652                 1.7690                 1.5044
 Frc consts  --      0.7309                 1.1379                 1.0059
 IR Inten    --     22.7239                 3.7451                89.9606

                     28                     29                     30
                      A                      A                      A
 Frequencies --   1083.4557              1115.3404              1218.4967
 Red. masses --      3.7696                 2.0634                 1.4165
 Frc consts  --      2.6072                 1.5123                 1.2392
 IR Inten    --      1.2314                89.6682                19.3259

                     31                     32                     33
                      A                      A                      A
 Frequencies --   1231.8035              1338.0399              1362.1319
 Red. masses --      2.1472                 1.3794                 1.9600
 Frc consts  --      1.9196                 1.4550                 2.1426
 IR Inten    --     70.8168                14.4407               234.8215

                     34                     35                     36
                      A                      A                      A
 Frequencies --   1384.7820              1426.3943              1443.3055
 Red. masses --      1.2379                 1.4455                 1.3287
 Frc consts  --      1.3987                 1.7328                 1.6308
 IR Inten    --     28.0560                38.5367               444.2141

                     37                     38                     39
                      A                      A                      A
 Frequencies --   1458.7530              1461.3082              1470.7438
 Red. masses --      1.1902                 1.1265                 1.0491
 Frc consts  --      1.4922                 1.4173                 1.3371
 IR Inten    --     98.4356               212.4273                15.2087

                     40                     41                     42
                      A                      A                      A
 Frequencies --   1480.7387              1489.4270              1498.9206
 Red. masses --      1.1802                 1.1067                 1.3961
 Frc consts  --      1.5246                 1.4465                 1.8481
 IR Inten    --    200.3019                74.2900               478.2033

                     43                     44                     45
                      A                      A                      A
 Frequencies --   1504.4096              1641.8083              1651.6796
 Red. masses --      1.0519                 1.1045                 7.2522
 Frc consts  --      1.4027                 1.7541                11.6566
 IR Inten    --     42.0923                98.4726               449.7697

                     46                     47                     48
                      A                      A                      A
 Frequencies --   3055.9562              3065.8040              3075.6204
 Red. masses --      1.0359                 1.0335                 1.0370
 Frc consts  --      5.7000                 5.7235                 5.7797
 IR Inten    --     20.0329                35.7341                13.6412

                     49                     50                     51
                      A                      A                      A
 Frequencies --   3127.8796              3140.4433              3149.9799
 Red. masses --      1.1006                 1.1045                 1.1013
 Frc consts  --      6.3445                 6.4178                 6.4380
 IR Inten    --     18.8830                 8.1355                20.2563

                     52                     53                     54
                      A                      A                      A
 Frequencies --   3150.5724              3168.0539              3184.7715
 Red. masses --      1.1036                 1.1051                 1.1028
 Frc consts  --      6.4544                 6.5349                 6.5904
 IR Inten    --     31.5280                15.3206                 0.9083

                     55                     56                     57
                      A                      A                      A
 Frequencies --   3214.8471              3521.3910              3606.8144
 Red. masses --      1.0888                 1.0506                 1.0967
 Frc consts  --      6.6303                 7.6755                 8.4056
 IR Inten    --      6.4909                53.3490                46.0220

 - Thermochemistry -
 -------------------
 Temperature   298.150 Kelvin.  Pressure   1.00000 Atm.
 Atom     1 has atomic number  6 and mass  12.00000

 Molecular mass:   149.06074 amu.
 Principal axes and moments of inertia in atomic units:
                           1         2         3
     Eigenvalues --  1070.659681972.546502342.46365
           X            0.99699   0.06937   0.03475
           Y           -0.06890   0.99752  -0.01466
           Z           -0.03568   0.01222   0.99929
 This molecule is an asymmetric top.
 Rotational symmetry number  1.
 Warning -- assumption of classical behavior for rotation
           may cause significant error
 Rotational temperatures (Kelvin)      0.08090     0.04391     0.03698
 Rotational constants (GHZ):           1.68563     0.91493     0.77045
    1 imaginary frequencies ignored.
 Zero-point vibrational energy     462935.8 (Joules/Mol)
                                  110.64432 (Kcal/Mol)
 Warning -- explicit consideration of  15 degrees of freedom as
           vibrations may cause significant error
 Vibrational temperatures:     60.32    90.14   112.70   147.48   269.68
          (Kelvin)            271.74   285.74   354.16   396.41   427.43
                              464.40   500.29   625.06   685.52   819.28
                              919.52   968.01  1056.53  1087.45  1296.54
                             1418.14  1429.20  1466.26  1484.54  1503.33
                             1532.75  1558.85  1604.73  1753.15  1772.29
                             1925.14  1959.80  1992.39  2052.26  2076.59
                             2098.82  2102.50  2116.07  2130.45  2142.95
                             2156.61  2164.51  2362.20  2376.40  4396.84
                             4411.01  4425.13  4500.32  4518.40  4532.12
                             4532.97  4558.12  4582.18  4625.45  5066.50
                             5189.40

 Zero-point correction=                           0.176323 (Hartree/Particle)
 Thermal correction to Energy=                    0.187740
 Thermal correction to Enthalpy=                  0.188684
 Thermal correction to Gibbs Free Energy=         0.138325
 Sum of electronic and zero-point Energies=           -825.862641
 Sum of electronic and thermal Energies=              -825.851224
 Sum of electronic and thermal Enthalpies=            -825.850280
 Sum of electronic and thermal Free Energies=         -825.900639

                     E (Thermal)             CV                S
                      KCal/Mol        Cal/Mol-Kelvin    Cal/Mol-Kelvin
 Total                  117.809             39.634            105.990
 Electronic               0.000              0.000              0.000
 Translational            0.889              2.981             40.908
 Rotational               0.889              2.981             29.982
 Vibrational            116.031             33.673             35.100
 Vibration     1          0.595              1.980              5.166
 Vibration     2          0.597              1.972              4.372
 Vibration     3          0.600              1.964              3.932
 Vibration     4          0.605              1.947              3.406
 Vibration     5          0.632              1.857              2.253
 Vibration     6          0.633              1.855              2.239
 Vibration     7          0.637              1.842              2.146
 Vibration     8          0.661              1.769              1.758
 Vibration     9          0.677              1.719              1.561
 Vibration    10          0.691              1.679              1.433
 Vibration    11          0.708              1.630              1.296
 Vibration    12          0.725              1.580              1.176
 Vibration    13          0.795              1.395              0.844
 Vibration    14          0.833              1.302              0.720
 Vibration    15          0.925              1.097              0.505

 Optimization completed.
    -- Stationary point found.
 Normal termination of Gaussian 16 at Wed Feb 24 03:44:27 2021.
