 Gaussian 16, Revision A.03,
 Gaussian 16:  ES64L-G16RevA.03 25-Dec-2016

 ----------------------------------------------------------------------
 # wB97XD def2tzvp, opt=(ts, noeigen, calcfc, maxcycles=70, maxstep=8),
  freq=noraman, scrf=(iefpcm, solvent=water)
 ----------------------------------------------------------------------

 ------------------------
 1_iteration/TS-812-1.out
 ------------------------
 Symbolic Z-matrix:
 Charge =  0 Multiplicity = 1

 SCF Done:  E(RwB97XD) =  -1093.00121694     A.U. after   14 cycles
 Optimization completed.
    -- Stationary point found.
 Normal termination of Gaussian 16 at Thu Feb 25 15:40:14 2021.

 ---------------------------------------------------------------------
 #N Geom=AllCheck Guess=TCheck SCRF=Check GenChk RwB97XD/def2TZVP Freq
 ---------------------------------------------------------------------

 Structure from the checkpoint file:  "/beegfs/scratch/user/q/tla25/Gau-15463.chk"
 ------------------------
 1_iteration/TS-812-1.out
 ------------------------
 Charge =  0 Multiplicity = 1

                         Standard orientation:
 ---------------------------------------------------------------------
 Center     Atomic      Atomic             Coordinates (Angstroms)
 Number     Number       Type             X           Y           Z
 ---------------------------------------------------------------------
      1          6           0       -1.313250    0.463439   -0.393190
      2          6           0       -1.839449   -0.836622   -0.151270
      3          8           0       -1.289259   -1.847881    0.262501
      4          6           0        0.003240    0.890209   -0.181090
      5          6           0       -0.970701    2.757249    1.594681
      6          1           0       -0.959662    3.544699    0.845451
      7          1           0       -1.888771    2.178668    1.501851
      8          1           0       -0.914941    3.196569    2.588851
      9          7           0        0.159119    1.858259    1.369731
     10          1           0        1.041849    2.358740    1.339871
     11          1           0        0.217230    1.179059    2.119601
     12         17           0        0.430459    2.275689   -1.282660
     13          6           0        1.146390   -0.083010   -0.036759
     14          6           0        2.042240   -0.284610   -1.081330
     15          6           0        3.072361   -1.206269   -0.964690
     16          6           0        3.229021   -1.934799    0.203161
     17          6           0        2.335001   -1.747690    1.247151
     18          6           0        1.299681   -0.837190    1.124051
     19          1           0        1.938500    0.280010   -1.997070
     20          1           0        3.756781   -1.347009   -1.791420
     21          1           0        4.038781   -2.646719    0.299201
     22          1           0        2.435431   -2.319590    2.160591
     23          1           0        0.586961   -0.757601    1.933291
     24          1           0       -2.018490    1.195658   -0.756650
     25          8           0       -3.170659   -0.866872   -0.471830
     26          6           0       -3.828789   -2.109743   -0.292950
     27          1           0       -4.863639   -1.944223   -0.584640
     28          1           0       -3.389408   -2.885722   -0.921580
     29          1           0       -3.787379   -2.434823    0.747791
 ---------------------------------------------------------------------

 SCF Done:  E(RwB97XD) =  -1093.00121694     A.U. after    1 cycles

 The electronic state is 1-A.
 Alpha  occ. eigenvalues -- -101.69448 -19.27216 -19.20481 -14.50644 -10.41195
 Alpha  occ. eigenvalues --  -10.39094 -10.32169 -10.32159 -10.31404 -10.29874
 Alpha  occ. eigenvalues --  -10.29587 -10.29382 -10.29303 -10.29275 -10.25178
 Alpha  occ. eigenvalues --   -9.58068  -7.32684  -7.31858  -7.31829  -1.18451
 Alpha  occ. eigenvalues --   -1.09046  -1.06377  -0.98449  -0.95590  -0.87827
 Alpha  occ. eigenvalues --   -0.85641  -0.85236  -0.80378  -0.79807  -0.73138
 Alpha  occ. eigenvalues --   -0.71044  -0.68394  -0.64992  -0.63902  -0.61950
 Alpha  occ. eigenvalues --   -0.58366  -0.58175  -0.56627  -0.56085  -0.55694
 Alpha  occ. eigenvalues --   -0.54592  -0.53406  -0.51801  -0.51382  -0.49740
 Alpha  occ. eigenvalues --   -0.48740  -0.48112  -0.47821  -0.46665  -0.45726
 Alpha  occ. eigenvalues --   -0.43685  -0.43280  -0.42863  -0.40162  -0.39606
 Alpha  occ. eigenvalues --   -0.37374  -0.35506  -0.34071  -0.32887  -0.27856
 Alpha virt. eigenvalues --    0.02958   0.04914   0.07393   0.08781   0.10287
 Alpha virt. eigenvalues --    0.13398   0.13659   0.14418   0.14995   0.16316
 Alpha virt. eigenvalues --    0.16979   0.17659   0.18105   0.18298   0.19156

 Mulliken charges:
               1
     1  C   -0.593537
     2  C    0.444183
     3  O   -0.512882
     4  C    0.285552
     5  C   -0.298554
     6  H    0.159004
     7  H    0.160723
     8  H    0.166129
     9  N   -0.247458
    10  H    0.296849
    11  H    0.274452
    12  Cl  -0.153241
    13  C    0.207725
    14  C   -0.248306
    15  C   -0.140292
    16  C   -0.140749
    17  C   -0.176009
    18  C   -0.232696
    19  H    0.145746
    20  H    0.145300
    21  H    0.146155
    22  H    0.145110
    23  H    0.152100
    24  H    0.146752
    25  O   -0.318043
    26  C   -0.187450
    27  H    0.133401
    28  H    0.120363
    29  H    0.119671
 Sum of Mulliken charges =  -0.00000

 Dipole moment (field-independent basis, Debye):
    X=              2.6712    Y=              5.0670    Z=              5.4202  Tot=              7.8859
 Quadrupole moment (field-independent basis, Debye-Ang):
   XX=            -89.7442   YY=            -89.6802   ZZ=            -85.7328
   XY=             -3.3843   XZ=             -1.7940   YZ=              9.9348

  Exact polarizability: 233.101  -6.280 230.168  -5.066 -11.316 201.997
 Approx polarizability: 181.602  -8.765 183.829  -4.716 -13.206 175.776

 ******    1 imaginary frequencies (negative Signs) ******

                      1                      2                      3
                      A                      A                      A
 Frequencies --   -331.0299                30.8927                41.9457
 Red. masses --      5.6173                 5.2927                 4.1113
 Frc consts  --      0.3627                 0.0030                 0.0043
 IR Inten    --    757.2583                 1.9101                 1.3462

                      4                      5                      6
                      A                      A                      A
 Frequencies --     59.3015                76.5867                86.9876
 Red. masses --      3.4077                 2.3890                 4.4633
 Frc consts  --      0.0071                 0.0083                 0.0199
 IR Inten    --      5.1828                 5.8757                 2.8215

                      7                      8                      9
                      A                      A                      A
 Frequencies --    127.5074               144.6251               165.5086
 Red. masses --      2.6679                 2.9892                 1.5641
 Frc consts  --      0.0256                 0.0368                 0.0252
 IR Inten    --      5.7406                 5.3575                 0.5028

                     10                     11                     12
                      A                      A                      A
 Frequencies --    174.3212               200.2193               245.8718
 Red. masses --      1.2624                 3.8379                 4.3704
 Frc consts  --      0.0226                 0.0906                 0.1557
 IR Inten    --      1.3089                 0.8384                 4.0568

                     13                     14                     15
                      A                      A                      A
 Frequencies --    251.2608               272.5111               309.2315
 Red. masses --      4.4374                 4.2900                 4.2503
 Frc consts  --      0.1651                 0.1877                 0.2395
 IR Inten    --      2.0128                 9.4519                 5.4433

                     16                     17                     18
                      A                      A                      A
 Frequencies --    315.6892               362.9417               376.4329
 Red. masses --      4.2332                 4.9276                 5.6720
 Frc consts  --      0.2486                 0.3824                 0.4735
 IR Inten    --     18.3899                27.6466                81.3010

                     19                     20                     21
                      A                      A                      A
 Frequencies --    423.8386               469.7821               592.9883
 Red. masses --      2.9119                 4.0579                 4.0313
 Frc consts  --      0.3082                 0.5277                 0.8352
 IR Inten    --      1.0062                23.6275               200.1543

                     22                     23                     24
                      A                      A                      A
 Frequencies --    600.1264               635.5524               651.5949
 Red. masses --      5.3125                 4.7697                 2.4676
 Frc consts  --      1.1273                 1.1351                 0.6173
 IR Inten    --     31.8428                18.7849                21.9507

                     25                     26                     27
                      A                      A                      A
 Frequencies --    720.7503               723.2290               730.8917
 Red. masses --      1.7159                 1.3723                 3.3744
 Frc consts  --      0.5252                 0.4229                 1.0621
 IR Inten    --     82.7896                52.6025                 5.2576

                     28                     29                     30
                      A                      A                      A
 Frequencies --    770.5000               798.8710               801.7294
 Red. masses --      2.8295                 4.9227                 2.5145
 Frc consts  --      0.9897                 1.8510                 0.9523
 IR Inten    --     41.3261               112.3243                27.1409

                     31                     32                     33
                      A                      A                      A
 Frequencies --    848.0089               868.7034               956.2941
 Red. masses --      3.6260                 1.2486                 1.4627
 Frc consts  --      1.5363                 0.5551                 0.7881
 IR Inten    --    318.5123                 1.4855                 1.2990

                     34                     35                     36
                      A                      A                      A
 Frequencies --    986.5108              1007.2369              1024.4834
 Red. masses --      3.7519                 1.4021                 1.2646
 Frc consts  --      2.1513                 0.8381                 0.7820
 IR Inten    --     71.1207                 1.0088                18.0294

                     37                     38                     39
                      A                      A                      A
 Frequencies --   1027.1885              1030.2088              1057.5048
 Red. masses --      3.9970                 1.3961                 1.8692
 Frc consts  --      2.4847                 0.8730                 1.2316
 IR Inten    --      1.2480                 0.9369                36.4971

                     40                     41                     42
                      A                      A                      A
 Frequencies --   1063.2716              1073.6523              1098.4958
 Red. masses --      2.3401                 2.5646                 3.1076
 Frc consts  --      1.5588                 1.7418                 2.2094
 IR Inten    --    309.7033                11.9557                66.8026

                     43                     44                     45
                      A                      A                      A
 Frequencies --   1130.8745              1171.6718              1183.4337
 Red. masses --      1.5756                 1.9466                 1.2831
 Frc consts  --      1.1872                 1.5745                 1.0588
 IR Inten    --     11.1934               400.3115                 1.8550

                     46                     47                     48
                      A                      A                      A
 Frequencies --   1187.1064              1197.7149              1216.4344
 Red. masses --      1.1299                 5.8754                 1.5499
 Frc consts  --      0.9382                 4.9658                 1.3513
 IR Inten    --      1.3327               447.5239                45.4420

                     49                     50                     51
                      A                      A                      A
 Frequencies --   1225.4171              1258.6910              1322.9727
 Red. masses --      1.1453                 1.3578                 4.8135
 Frc consts  --      1.0133                 1.2675                 4.9638
 IR Inten    --      6.8789                48.5872                 9.3409

                     52                     53                     54
                      A                      A                      A
 Frequencies --   1342.3369              1367.3058              1374.1023
 Red. masses --      1.3413                 2.3650                 1.3791
 Frc consts  --      1.4240                 2.6051                 1.5343
 IR Inten    --      6.1150                20.0710                 8.6535

                     55                     56                     57
                      A                      A                      A
 Frequencies --   1443.1169              1460.4554              1481.6223
 Red. masses --      1.2761                 1.6715                 1.0595
 Frc consts  --      1.5659                 2.1006                 1.3703
 IR Inten    --    195.4607               421.7473                25.4519

                     58                     59                     60
                      A                      A                      A
 Frequencies --   1484.0929              1492.2153              1493.0145
 Red. masses --      1.4001                 1.1088                 1.6425
 Frc consts  --      1.8169                 1.4546                 2.1571
 IR Inten    --    307.0858                60.8414               108.5117

                     61                     62                     63
                      A                      A                      A
 Frequencies --   1497.3830              1503.1518              1548.8887
 Red. masses --      1.0465                 1.3092                 2.2862
 Frc consts  --      1.3824                 1.7428                 3.2315
 IR Inten    --     20.0013               178.6956                22.3821

                     64                     65                     66
                      A                      A                      A
 Frequencies --   1635.7932              1654.3801              1676.7542
 Red. masses --      1.0918                 5.5750                 5.8305
 Frc consts  --      1.7212                 8.9901                 9.6582
 IR Inten    --     66.1765                 3.0119                 0.8048

                     67                     68                     69
                      A                      A                      A
 Frequencies --   1701.9689              3054.2575              3080.5930
 Red. masses --     10.9927                 1.0312                 1.0330
 Frc consts  --     18.7611                 5.6678                 5.7757
 IR Inten    --    829.9689                72.3720                25.9948

                     70                     71                     72
                      A                      A                      A
 Frequencies --   3125.1277              3161.5014              3163.3928
 Red. masses --      1.1061                 1.1045                 1.1052
 Frc consts  --      6.3647                 6.5042                 6.5161
 IR Inten    --     48.5063                32.6287                 2.4581

                     73                     74                     75
                      A                      A                      A
 Frequencies --   3183.4580              3198.9374              3207.5890
 Red. masses --      1.1060                 1.0861                 1.0893
 Frc consts  --      6.6039                 6.5481                 6.6032
 IR Inten    --      6.5482                 0.4168                 8.0467

                     76                     77                     78
                      A                      A                      A
 Frequencies --   3216.9118              3225.3228              3226.4393
 Red. masses --      1.0933                 1.0967                 1.0879
 Frc consts  --      6.6662                 6.7219                 6.6722
 IR Inten    --     33.0802                14.9700                 2.6149

                     79                     80                     81
                      A                      A                      A
 Frequencies --   3234.3996              3517.5579              3599.7034
 Red. masses --      1.0943                 1.0513                 1.0958
 Frc consts  --      6.7446                 7.6640                 8.3656
 IR Inten    --      4.5663                57.8438                56.8498

 - Thermochemistry -
 -------------------
 Temperature   298.150 Kelvin.  Pressure   1.00000 Atm.
 Atom     1 has atomic number  6 and mass  12.00000

 Molecular mass:   227.07131 amu.
 Principal axes and moments of inertia in atomic units:
                           1         2         3
     Eigenvalues --  3053.092784103.375005619.67524
           X            0.99991  -0.01272  -0.00315
           Y            0.01284   0.99897   0.04353
           Z            0.00259  -0.04357   0.99905
 This molecule is an asymmetric top.
 Rotational symmetry number  1.
 Warning -- assumption of classical behavior for rotation
           may cause significant error
 Rotational temperatures (Kelvin)      0.02837     0.02111     0.01541
 Rotational constants (GHZ):           0.59112     0.43982     0.32115
    1 imaginary frequencies ignored.
 Zero-point vibrational energy     618764.5 (Joules/Mol)
                                  147.88825 (Kcal/Mol)
 Warning -- explicit consideration of  21 degrees of freedom as
           vibrations may cause significant error
 Vibrational temperatures:     44.45    60.35    85.32   110.19   125.16
          (Kelvin)            183.45   208.08   238.13   250.81   288.07
                              353.75   361.51   392.08   444.92   454.21
                              522.19   541.60   609.81   675.91   853.18
                              863.45   914.42   937.50  1037.00  1040.57
                             1051.59  1108.58  1149.40  1153.51  1220.10
                             1249.87  1375.89  1419.37  1449.19  1474.00
                             1477.90  1482.24  1521.51  1529.81  1544.75
                             1580.49  1627.08  1685.77  1702.70  1707.98
                             1723.24  1750.18  1763.10  1810.98  1903.46
                             1931.32  1967.25  1977.03  2076.32  2101.27
                             2131.72  2135.28  2146.97  2148.11  2154.40
                             2162.70  2228.51  2353.54  2380.28  2412.48
                             2448.75  4394.40  4432.29  4496.36  4548.70
                             4551.42  4580.29  4602.56  4615.01  4628.42
                             4640.52  4642.13  4653.58  5060.98  5179.17

 Zero-point correction=                           0.235675 (Hartree/Particle)
 Thermal correction to Energy=                    0.251000
 Thermal correction to Enthalpy=                  0.251944
 Thermal correction to Gibbs Free Energy=         0.191578
 Sum of electronic and zero-point Energies=          -1092.765542
 Sum of electronic and thermal Energies=             -1092.750217
 Sum of electronic and thermal Enthalpies=           -1092.749273
 Sum of electronic and thermal Free Energies=        -1092.809639

                     E (Thermal)             CV                S
                      KCal/Mol        Cal/Mol-Kelvin    Cal/Mol-Kelvin
 Total                  157.505             55.527            127.051
 Electronic               0.000              0.000              0.000
 Translational            0.889              2.981             42.163
 Rotational               0.889              2.981             32.621
 Vibrational            155.727             49.565             52.267
 Vibration     1          0.594              1.984              5.771
 Vibration     2          0.595              1.980              5.165
 Vibration     3          0.597              1.974              4.480
 Vibration     4          0.599              1.965              3.976
 Vibration     5          0.601              1.958              3.727
 Vibration     6          0.611              1.926              2.983
 Vibration     7          0.616              1.908              2.742
 Vibration     8          0.624              1.885              2.486
 Vibration     9          0.627              1.874              2.388
 Vibration    10          0.638              1.840              2.131
 Vibration    11          0.660              1.770              1.760
 Vibration    12          0.663              1.761              1.722
 Vibration    13          0.676              1.724              1.580
 Vibration    14          0.699              1.656              1.366
 Vibration    15          0.703              1.644              1.332
 Vibration    16          0.737              1.549              1.109
 Vibration    17          0.747              1.520              1.053
 Vibration    18          0.786              1.418              0.879
 Vibration    19          0.827              1.317              0.738
 Vibration    20          0.951              1.047              0.462
 Vibration    21          0.958              1.032              0.449

 Optimization completed.
    -- Stationary point found.
 Normal termination of Gaussian 16 at Thu Feb 25 16:35:58 2021.
