 Gaussian 16, Revision A.03,
 Gaussian 16:  ES64L-G16RevA.03 25-Dec-2016

 ----------------------------------------------------------------------
 # wB97XD def2tzvp, opt=(ts, noeigen, calcfc, maxcycles=70, maxstep=3),
  freq=noraman, scrf=(iefpcm, solvent=water)
 ----------------------------------------------------------------------

 ------------------------
 0_iteration/TS-839-0.out
 ------------------------
 Symbolic Z-matrix:
 Charge =  0 Multiplicity = 1

 SCF Done:  E(RwB97XD) =  -1724.48183357     A.U. after   15 cycles
 SCF Done:  E(RwB97XD) =  -1724.48183356     A.U. after    7 cycles
 Optimization completed.
    -- Stationary point found.
 Normal termination of Gaussian 16 at Tue Apr 13 10:01:33 2021.

 ---------------------------------------------------------------------
 #N Geom=AllCheck Guess=TCheck SCRF=Check GenChk RwB97XD/def2TZVP Freq
 ---------------------------------------------------------------------

 Structure from the checkpoint file:  "/beegfs/scratch/user/q/tla25/Gau-125520.chk"
 ------------------------
 0_iteration/TS-839-0.out
 ------------------------
 Charge =  0 Multiplicity = 1

                         Standard orientation:
 ---------------------------------------------------------------------
 Center     Atomic      Atomic             Coordinates (Angstroms)
 Number     Number       Type             X           Y           Z
 ---------------------------------------------------------------------
      1          6           0       -0.448772   -1.071814   -0.252448
      2          6           0        0.644336   -0.155340    0.028287
      3          8           0        0.471743    0.951462    0.536890
      4          6           0       -1.788372   -0.741463   -0.051436
      5          6           0       -1.362799   -1.037722    2.707375
      6          1           0       -1.427736    0.020725    2.944003
      7          1           0       -1.550070   -1.628410    3.602937
      8          1           0       -0.361410   -1.253702    2.337495
      9          7           0       -2.318623   -1.371838    1.654380
     10          1           0       -2.330292   -2.373458    1.493914
     11          1           0       -3.269303   -1.101941    1.883926
     12         17           0       -2.989796   -1.737693   -0.959549
     13          6           0       -2.215160    0.700992   -0.135846
     14          6           0       -1.966609    1.347864   -1.346693
     15          6           0       -2.359707    2.658026   -1.543528
     16          6           0       -3.017178    3.348663   -0.533609
     17          6           0       -3.279665    2.709229    0.665263
     18          6           0       -2.887291    1.391498    0.861699
     19          1           0       -1.451675    0.813864   -2.134810
     20          1           0       -2.151389    3.142478   -2.488916
     21          1           0       -3.324509    4.375569   -0.683816
     22          1           0       -3.793650    3.232519    1.461211
     23          1           0       -3.108167    0.939936    1.816546
     24         17           0       -0.057428   -2.755172   -0.591705
     25          7           0        1.897070   -0.601713   -0.326425
     26          6           0        3.139599    0.008704   -0.135272
     27          6           0        3.315264    1.308348    0.342763
     28          6           0        4.597561    1.819943    0.490691
     29          6           0        5.716060    1.068450    0.167837
     30          6           0        5.540494   -0.222727   -0.312943
     31          6           0        4.270309   -0.747690   -0.461790
     32          1           0        1.935354   -1.523084   -0.728843
     33          1           0        2.453815    1.904628    0.592686
     34          1           0        4.715469    2.829952    0.864060
     35          1           0        6.709711    1.480389    0.286395
     36          1           0        6.398769   -0.829482   -0.573361
     37          1           0        4.146395   -1.757897   -0.835022
 ---------------------------------------------------------------------

 SCF Done:  E(RwB97XD) =  -1724.48183356     A.U. after    1 cycles

 The electronic state is 1-A.
 Alpha  occ. eigenvalues -- -101.70186-101.69814 -19.20835 -14.50071 -14.46409
 Alpha  occ. eigenvalues --  -10.41683 -10.39467 -10.33866 -10.32161 -10.31862
 Alpha  occ. eigenvalues --  -10.31803 -10.29920 -10.29491 -10.29447 -10.29362
 Alpha  occ. eigenvalues --  -10.29304 -10.29044 -10.28882 -10.28845 -10.28251
 Alpha  occ. eigenvalues --  -10.28182  -9.58781  -9.58350  -7.33424  -7.32973
 Alpha  occ. eigenvalues --   -7.32566  -7.32523  -7.32157  -7.32114  -1.14100
 Alpha  occ. eigenvalues --   -1.05878  -1.04270  -0.99764  -0.97039  -0.95572
 Alpha  occ. eigenvalues --   -0.94178  -0.87747  -0.85782  -0.85240  -0.85042
 Alpha  occ. eigenvalues --   -0.82288  -0.79749  -0.75427  -0.71892  -0.71334
 Alpha  occ. eigenvalues --   -0.71067  -0.67887  -0.65518  -0.64668  -0.62856
 Alpha  occ. eigenvalues --   -0.61153  -0.59194  -0.58363  -0.57828  -0.56891
 Alpha  occ. eigenvalues --   -0.54826  -0.54086  -0.53876  -0.53337  -0.52246
 Alpha  occ. eigenvalues --   -0.51955  -0.51722  -0.51332  -0.50384  -0.49042
 Alpha  occ. eigenvalues --   -0.48496  -0.47525  -0.47034  -0.46323  -0.44785
 Alpha  occ. eigenvalues --   -0.44564  -0.43597  -0.42859  -0.42743  -0.41722
 Alpha  occ. eigenvalues --   -0.39887  -0.39764  -0.39242  -0.35508  -0.34196
 Alpha  occ. eigenvalues --   -0.33756  -0.32290  -0.30450  -0.27490
 Alpha virt. eigenvalues --    0.02624   0.03653   0.04874   0.05397   0.07230
 Alpha virt. eigenvalues --    0.08852   0.10465   0.12604   0.12683   0.13886
 Alpha virt. eigenvalues --    0.13972   0.14675   0.15279   0.16103   0.16808

 Mulliken charges:
               1
     1  C   -0.299778
     2  C    0.438019
     3  O   -0.521687
     4  C    0.212286
     5  C   -0.291170
     6  H    0.156648
     7  H    0.166346
     8  H    0.161621
     9  N   -0.320243
    10  H    0.286625
    11  H    0.293840
    12  Cl  -0.113616
    13  C    0.261658
    14  C   -0.316557
    15  C   -0.117812
    16  C   -0.153368
    17  C   -0.164728
    18  C   -0.227282
    19  H    0.155080
    20  H    0.145614
    21  H    0.145953
    22  H    0.145245
    23  H    0.140445
    24  Cl  -0.160888
    25  N   -0.273084
    26  C    0.305308
    27  C   -0.294399
    28  C   -0.112677
    29  C   -0.196135
    30  C   -0.099420
    31  C   -0.310800
    32  H    0.232083
    33  H    0.161107
    34  H    0.141028
    35  H    0.140444
    36  H    0.143228
    37  H    0.141065
 Sum of Mulliken charges =  -0.00000

 Dipole moment (field-independent basis, Debye):
    X=             -4.3515    Y=             -2.4765    Z=              4.3925  Tot=              6.6606
 Quadrupole moment (field-independent basis, Debye-Ang):
   XX=           -122.3442   YY=           -128.1391   ZZ=           -125.2105
   XY=             -3.5723   XZ=            -17.3219   YZ=             -8.1076

  Exact polarizability: 385.591   0.258 342.566 -24.739  18.823 262.790
 Approx polarizability: 284.632  -2.434 284.670 -19.363  18.211 231.317

 ******    1 imaginary frequencies (negative Signs) ******

                      1                      2                      3
                      A                      A                      A
 Frequencies --   -345.2986                10.8585                24.7878
 Red. masses --      5.4442                 3.9388                 5.1756
 Frc consts  --      0.3824                 0.0003                 0.0019
 IR Inten    --    831.8918                 0.7828                 1.3136

                      4                      5                      6
                      A                      A                      A
 Frequencies --     27.6546                48.2262                63.0373
 Red. masses --      3.5306                 6.7481                 6.1194
 Frc consts  --      0.0016                 0.0092                 0.0143
 IR Inten    --      0.5628                 1.1884                 1.6507

                      7                      8                      9
                      A                      A                      A
 Frequencies --     72.9577               100.6640               114.3256
 Red. masses --      6.7529                 5.4499                 3.6921
 Frc consts  --      0.0212                 0.0325                 0.0284
 IR Inten    --      6.5509                 2.5409                 0.8500

                     10                     11                     12
                      A                      A                      A
 Frequencies --    127.6981               131.0930               184.4402
 Red. masses --      1.2186                 3.7221                 4.1202
 Frc consts  --      0.0117                 0.0377                 0.0826
 IR Inten    --      4.3675                 8.2826                10.8149

                     13                     14                     15
                      A                      A                      A
 Frequencies --    191.9859               211.7953               218.8972
 Red. masses --      6.1118                 6.2503                 4.1662
 Frc consts  --      0.1327                 0.1652                 0.1176
 IR Inten    --     10.3322                 2.2191                15.6543

                     16                     17                     18
                      A                      A                      A
 Frequencies --    242.2321               246.1356               280.1364
 Red. masses --      6.6523                 4.5213                 6.5154
 Frc consts  --      0.2300                 0.1614                 0.3013
 IR Inten    --      2.5578                 3.5318                 6.5896

                     19                     20                     21
                      A                      A                      A
 Frequencies --    300.1281               332.7440               360.4359
 Red. masses --      4.5401                 5.6177                 7.4209
 Frc consts  --      0.2409                 0.3665                 0.5680
 IR Inten    --     12.5948                16.1689                 6.4671

                     22                     23                     24
                      A                      A                      A
 Frequencies --    384.3249               420.9065               422.5969
 Red. masses --      7.6493                 2.8863                 2.9890
 Frc consts  --      0.6657                 0.3013                 0.3145
 IR Inten    --     40.8025                 0.1448                 0.4605

                     25                     26                     27
                      A                      A                      A
 Frequencies --    449.7363               515.5307               527.4050
 Red. masses --     10.2395                 4.6747                 2.7446
 Frc consts  --      1.2202                 0.7320                 0.4498
 IR Inten    --     17.6835                55.5814                21.7500

                     28                     29                     30
                      A                      A                      A
 Frequencies --    552.8592               564.1360               567.8770
 Red. masses --      4.6847                 1.4433                 2.1061
 Frc consts  --      0.8436                 0.2706                 0.4002
 IR Inten    --    101.7968                27.1184               171.3975

                     31                     32                     33
                      A                      A                      A
 Frequencies --    623.1125               635.4916               641.4277
 Red. masses --      4.3438                 6.3780                 6.0775
 Frc consts  --      0.9937                 1.5176                 1.4732
 IR Inten    --     38.8306                 3.1519                20.5688

                     34                     35                     36
                      A                      A                      A
 Frequencies --    683.6901               716.9452               718.7257
 Red. masses --      2.7285                 2.8584                 1.8778
 Frc consts  --      0.7514                 0.8657                 0.5715
 IR Inten    --     46.5836                 8.0815                67.2251

                     37                     38                     39
                      A                      A                      A
 Frequencies --    723.9618               767.8228               784.1962
 Red. masses --      1.9419                 7.6468                 1.8553
 Frc consts  --      0.5997                 2.6561                 0.6722
 IR Inten    --    264.7522                42.7880               100.7346

                     40                     41                     42
                      A                      A                      A
 Frequencies --    789.5301               856.7717               861.5718
 Red. masses --      2.3908                 5.6268                 1.2676
 Frc consts  --      0.8781                 2.4336                 0.5544
 IR Inten    --     36.4312                55.1215                 0.3771

                     43                     44                     45
                      A                      A                      A
 Frequencies --    866.1944               882.8974               900.4722
 Red. masses --      1.2693                 4.6391                 4.7547
 Frc consts  --      0.5611                 2.1306                 2.2715
 IR Inten    --      1.4339                51.0425                63.5902

                     46                     47                     48
                      A                      A                      A
 Frequencies --    933.7383               954.6838               995.2242
 Red. masses --      1.4744                 1.5539                 1.1272
 Frc consts  --      0.7574                 0.8345                 0.6578
 IR Inten    --     14.3400                 0.7308                35.1381

                     49                     50                     51
                      A                      A                      A
 Frequencies --   1001.6724              1009.2979              1018.0660
 Red. masses --      1.3471                 1.3577                 1.2921
 Frc consts  --      0.7964                 0.8149                 0.7890
 IR Inten    --      0.0622                 1.1382                 0.9535

                     52                     53                     54
                      A                      A                      A
 Frequencies --   1019.9762              1025.7974              1029.0654
 Red. masses --      5.7615                 5.6156                 1.3115
 Frc consts  --      3.5315                 3.4815                 0.8183
 IR Inten    --      4.7798                 1.2203                 0.0907

                     55                     56                     57
                      A                      A                      A
 Frequencies --   1057.2965              1063.9452              1064.9175
 Red. masses --      2.3658                 1.6056                 2.3274
 Frc consts  --      1.5582                 1.0709                 1.5551
 IR Inten    --      9.0884                17.3282                33.2248

                     58                     59                     60
                      A                      A                      A
 Frequencies --   1076.9263              1087.3629              1121.5674
 Red. masses --      3.8541                 2.2244                 1.6040
 Frc consts  --      2.6336                 1.5496                 1.1888
 IR Inten    --     61.6326                73.4924                12.8727

                     61                     62                     63
                      A                      A                      A
 Frequencies --   1126.6077              1181.9303              1186.0290
 Red. masses --      1.5771                 1.1260                 1.1453
 Frc consts  --      1.1794                 0.9268                 0.9492
 IR Inten    --      5.5928                 1.7644                 0.7446

                     64                     65                     66
                      A                      A                      A
 Frequencies --   1202.6176              1207.2977              1222.4808
 Red. masses --      3.4179                 1.1489                 1.1309
 Frc consts  --      2.9125                 0.9867                 0.9957
 IR Inten    --     81.6212                40.6066                 8.4125

                     67                     68                     69
                      A                      A                      A
 Frequencies --   1235.9071              1258.7677              1282.1538
 Red. masses --      1.4267                 2.7068                 4.2286
 Frc consts  --      1.2840                 2.5270                 4.0957
 IR Inten    --     33.7734               886.8792                 2.3311

                     70                     71                     72
                      A                      A                      A
 Frequencies --   1320.5565              1341.1072              1344.7290
 Red. masses --      4.7119                 1.4057                 3.2602
 Frc consts  --      4.8413                 1.4896                 3.4735
 IR Inten    --     58.0580                95.4698               559.6929

                     73                     74                     75
                      A                      A                      A
 Frequencies --   1359.7007              1366.5319              1416.1677
 Red. masses --      1.6089                 1.4139                 3.9922
 Frc consts  --      1.7526                 1.5556                 4.7173
 IR Inten    --      1.3420                 4.0541               610.5640

                     76                     77                     78
                      A                      A                      A
 Frequencies --   1456.0104              1480.5413              1490.1652
 Red. masses --      1.2877                 2.1301                 1.0823
 Frc consts  --      1.6084                 2.7510                 1.4161
 IR Inten    --     74.2428               333.3506                 4.1084

                     79                     80                     81
                      A                      A                      A
 Frequencies --   1491.1016              1499.3597              1544.5613
 Red. masses --      2.0010                 1.0691                 2.3264
 Frc consts  --      2.6213                 1.4161                 3.2699
 IR Inten    --     44.2101                17.0555               131.4626

                     82                     83                     84
                      A                      A                      A
 Frequencies --   1547.0036              1569.6431              1642.1381
 Red. masses --      2.4148                 2.0618                 1.1635
 Frc consts  --      3.4049                 2.9929                 1.8486
 IR Inten    --     67.7941               887.4547                94.9562

                     85                     86                     87
                      A                      A                      A
 Frequencies --   1656.0959              1659.8733              1669.9717
 Red. masses --      4.3539                 5.5149                 5.0194
 Frc consts  --      7.0355                 8.9523                 8.2475
 IR Inten    --      6.4019               120.7968                79.3151

                     88                     89                     90
                      A                      A                      A
 Frequencies --   1675.9607              1688.6285              3079.2499
 Red. masses --      5.7780                 7.1991                 1.0336
 Frc consts  --      9.5621                12.0947                 5.7742
 IR Inten    --      1.0519               440.3356                27.3123

                     91                     92                     93
                      A                      A                      A
 Frequencies --   3157.5592              3183.7593              3186.3579
 Red. masses --      1.1049                 1.1054                 1.0883
 Frc consts  --      6.4905                 6.6018                 6.5100
 IR Inten    --      5.2615                10.9945                14.0276

                     94                     95                     96
                      A                      A                      A
 Frequencies --   3196.1645              3198.8222              3206.4346
 Red. masses --      1.0883                 1.0862                 1.0930
 Frc consts  --      6.5502                 6.5483                 6.6209
 IR Inten    --      2.7762                 0.4467                29.9346

                     97                     98                     99
                      A                      A                      A
 Frequencies --   3206.8081              3215.5641              3221.6123
 Red. masses --      1.0894                 1.0938                 1.0980
 Frc consts  --      6.6007                 6.6636                 6.7141
 IR Inten    --      4.8496                21.9942                23.5104

                    100                    101                    102
                      A                      A                      A
 Frequencies --   3224.3446              3252.8716              3274.3245
 Red. masses --      1.0982                 1.0915                 1.0923
 Frc consts  --      6.7266                 6.8045                 6.8996
 IR Inten    --     20.7498                17.4614                 6.7273

                    103                    104                    105
                      A                      A                      A
 Frequencies --   3516.9683              3591.5347              3640.8437
 Red. masses --      1.0519                 1.0955                 1.0763
 Frc consts  --      7.6657                 8.3258                 8.4056
 IR Inten    --     63.7855                57.5068                93.8911

 - Thermochemistry -
 -------------------
 Temperature   298.150 Kelvin.  Pressure   1.00000 Atm.
 Atom     1 has atomic number  6 and mass  12.00000

 Molecular mass:   322.06397 amu.
 Principal axes and moments of inertia in atomic units:
                           1         2         3
     Eigenvalues --  4530.13735********************
           X            0.99989  -0.01069  -0.00999
           Y            0.01044   0.99965  -0.02418
           Z            0.01025   0.02408   0.99966
 This molecule is an asymmetric top.
 Rotational symmetry number  1.
 Warning -- assumption of classical behavior for rotation
           may cause significant error
 Rotational temperatures (Kelvin)      0.01912     0.00806     0.00662
 Rotational constants (GHZ):           0.39839     0.16794     0.13787
    1 imaginary frequencies ignored.
 Zero-point vibrational energy     766117.3 (Joules/Mol)
                                  183.10643 (Kcal/Mol)
 Warning -- explicit consideration of  29 degrees of freedom as
           vibrations may cause significant error
 Vibrational temperatures:     15.62    35.66    39.79    69.39    90.70
          (Kelvin)            104.97   144.83   164.49   183.73   188.61
                              265.37   276.22   304.73   314.94   348.52
                              354.13   403.05   431.82   478.74   518.59
                              552.96   605.59   608.02   647.07   741.73
                              758.82   795.44   811.67   817.05   896.52
                              914.33   922.87   983.68  1031.52  1034.09
                             1041.62  1104.73  1128.28  1135.96  1232.70
                             1239.61  1246.26  1270.29  1295.58  1343.44
                             1373.58  1431.91  1441.18  1452.15  1464.77
                             1467.52  1475.89  1480.60  1521.21  1530.78
                             1532.18  1549.46  1564.47  1613.69  1620.94
                             1700.53  1706.43  1730.30  1737.03  1758.88
                             1778.19  1811.09  1844.73  1899.99  1929.55
                             1934.77  1956.31  1966.13  2037.55  2094.87
                             2130.17  2144.02  2145.36  2157.24  2222.28
                             2225.79  2258.37  2362.67  2382.75  2388.19
                             2402.72  2411.33  2429.56  4430.35  4543.02
                             4580.72  4584.46  4598.57  4602.39  4613.34
                             4613.88  4626.48  4635.18  4639.11  4680.16
                             4711.02  5060.13  5167.42  5238.36

 Zero-point correction=                           0.291799 (Hartree/Particle)
 Thermal correction to Energy=                    0.311672
 Thermal correction to Enthalpy=                  0.312616
 Thermal correction to Gibbs Free Energy=         0.239762
 Sum of electronic and zero-point Energies=          -1724.190035
 Sum of electronic and thermal Energies=             -1724.170162
 Sum of electronic and thermal Enthalpies=           -1724.169218
 Sum of electronic and thermal Free Energies=        -1724.242071

                     E (Thermal)             CV                S
                      KCal/Mol        Cal/Mol-Kelvin    Cal/Mol-Kelvin
 Total                  195.577             73.904            153.333
 Electronic               0.000              0.000              0.000
 Translational            0.889              2.981             43.204
 Rotational               0.889              2.981             34.809
 Vibrational            193.800             67.942             75.319
 Vibration     1          0.593              1.987              7.847
 Vibration     2          0.593              1.985              6.208
 Vibration     3          0.593              1.984              5.991
 Vibration     4          0.595              1.978              4.889
 Vibration     5          0.597              1.972              4.360
 Vibration     6          0.599              1.967              4.072
 Vibration     7          0.604              1.949              3.441
 Vibration     8          0.607              1.938              3.194
 Vibration     9          0.611              1.925              2.980
 Vibration    10          0.612              1.922              2.930
 Vibration    11          0.631              1.861              2.283
 Vibration    12          0.634              1.851              2.209
 Vibration    13          0.643              1.823              2.028
 Vibration    14          0.647              1.812              1.968
 Vibration    15          0.658              1.776              1.786
 Vibration    16          0.661              1.769              1.758
 Vibration    17          0.680              1.710              1.533
 Vibration    18          0.693              1.673              1.416
 Vibration    19          0.715              1.610              1.247
 Vibration    20          0.735              1.554              1.120
 Vibration    21          0.753              1.504              1.022
 Vibration    22          0.783              1.425              0.889
 Vibration    23          0.785              1.421              0.883
 Vibration    24          0.809              1.361              0.797
 Vibration    25          0.871              1.216              0.620
 Vibration    26          0.882              1.189              0.593
 Vibration    27          0.908              1.133              0.538
 Vibration    28          0.920              1.109              0.516
 Vibration    29          0.924              1.101              0.508

 Optimization completed.
    -- Stationary point found.
 Normal termination of Gaussian 16 at Tue Apr 13 11:02:24 2021.
