 Gaussian 16, Revision A.03,
 Gaussian 16:  ES64L-G16RevA.03 25-Dec-2016

 ----------------------------------------------------------------------
 # wB97XD def2tzvp, opt=(ts, noeigen, calcfc, maxcycles=70, maxstep=8),
  freq=noraman, scrf=(iefpcm, solvent=water)
 ----------------------------------------------------------------------

 ------------------------
 1_iteration/TS-898-1.out
 ------------------------
 Symbolic Z-matrix:
 Charge =  0 Multiplicity = 1

 SCF Done:  E(RwB97XD) =  -865.347916586     A.U. after   15 cycles
 SCF Done:  E(RwB97XD) =  -865.349323237     A.U. after   13 cycles
 SCF Done:  E(RwB97XD) =  -865.349505963     A.U. after   12 cycles
 SCF Done:  E(RwB97XD) =  -865.349514250     A.U. after   12 cycles
 SCF Done:  E(RwB97XD) =  -865.349578336     A.U. after   12 cycles
 SCF Done:  E(RwB97XD) =  -865.349583818     A.U. after   11 cycles
 SCF Done:  E(RwB97XD) =  -865.349582658     A.U. after   10 cycles
 SCF Done:  E(RwB97XD) =  -865.349582878     A.U. after   10 cycles
 SCF Done:  E(RwB97XD) =  -865.349584122     A.U. after    9 cycles
 SCF Done:  E(RwB97XD) =  -865.349584190     A.U. after    8 cycles
 SCF Done:  E(RwB97XD) =  -865.349584140     A.U. after    7 cycles
 SCF Done:  E(RwB97XD) =  -865.349584173     A.U. after    7 cycles
 Optimization completed.
    -- Stationary point found.
 Normal termination of Gaussian 16 at Thu Feb 25 15:39:40 2021.

 ---------------------------------------------------------------------
 #N Geom=AllCheck Guess=TCheck SCRF=Check GenChk RwB97XD/def2TZVP Freq
 ---------------------------------------------------------------------

 Structure from the checkpoint file:  "/beegfs/scratch/user/q/tla25/Gau-17794.chk"
 ------------------------
 1_iteration/TS-898-1.out
 ------------------------
 Charge =  0 Multiplicity = 1

                         Standard orientation:
 ---------------------------------------------------------------------
 Center     Atomic      Atomic             Coordinates (Angstroms)
 Number     Number       Type             X           Y           Z
 ---------------------------------------------------------------------
      1          6           0       -0.575760   -0.473233   -0.153234
      2          6           0       -1.812647    0.034856    0.354694
      3          8           0       -1.946288    0.873147    1.261906
      4          6           0        0.652893   -0.070960    0.388332
      5          6           0        0.622041    2.195143   -1.232614
      6          1           0        0.950280    2.668936   -2.156629
      7          1           0       -0.380713    1.786411   -1.371507
      8          1           0        0.599630    2.935109   -0.436305
      9          7           0        1.503541    1.097520   -0.853272
     10          1           0        1.718518    0.507117   -1.648128
     11          1           0        2.382449    1.421358   -0.465083
     12         17           0        1.958722   -1.335711    0.349071
     13          6           0        0.794584    0.739777    1.644027
     14          1           0        0.234899    1.666272    1.561287
     15          1           0        0.374389    0.181759    2.480302
     16          1           0        1.843959    0.944718    1.849491
     17          6           0       -0.591626   -1.425050   -1.330122
     18          1           0        0.373698   -1.453545   -1.835821
     19          1           0       -0.822509   -2.456269   -1.042504
     20          1           0       -1.326419   -1.127321   -2.079196
     21          6           0       -3.085979   -0.517329   -0.272662
     22          1           0       -3.934914   -0.216852    0.338198
     23          1           0       -3.220348   -0.113205   -1.279381
     24          1           0       -3.066715   -1.604444   -0.361817
 ---------------------------------------------------------------------

 SCF Done:  E(RwB97XD) =  -865.349584173     A.U. after    1 cycles

 The electronic state is 1-A.
 Alpha  occ. eigenvalues -- -101.68991 -19.19221 -14.49149 -10.39851 -10.34430
 Alpha  occ. eigenvalues --  -10.31748 -10.28140 -10.26997 -10.26597 -10.25710
 Alpha  occ. eigenvalues --   -9.57608  -7.32203  -7.31417  -7.31374  -1.09926
 Alpha  occ. eigenvalues --   -1.04851  -0.96614  -0.87931  -0.84437  -0.80662
 Alpha  occ. eigenvalues --   -0.79171  -0.74883  -0.68028  -0.63608  -0.58993
 Alpha  occ. eigenvalues --   -0.58146  -0.55579  -0.54741  -0.53498  -0.51534
 Alpha  occ. eigenvalues --   -0.49675  -0.49290  -0.48670  -0.47837  -0.47099
 Alpha  occ. eigenvalues --   -0.45889  -0.45227  -0.43835  -0.43602  -0.42077
 Alpha  occ. eigenvalues --   -0.39186  -0.38583  -0.30862  -0.26822
 Alpha virt. eigenvalues --    0.05335   0.08183   0.09880   0.12472   0.13615
 Alpha virt. eigenvalues --    0.14827   0.15458   0.16436   0.17787   0.18171
 Alpha virt. eigenvalues --    0.18613   0.19874   0.19996   0.20893   0.22025

 Mulliken charges:
               1
     1  C   -0.251273
     2  C    0.278791
     3  O   -0.542361
     4  C    0.161715
     5  C   -0.300338
     6  H    0.161038
     7  H    0.154695
     8  H    0.160477
     9  N   -0.305958
    10  H    0.282806
    11  H    0.291162
    12  Cl  -0.151850
    13  C   -0.347690
    14  H    0.145023
    15  H    0.143458
    16  H    0.139363
    17  C   -0.416003
    18  H    0.123500
    19  H    0.137458
    20  H    0.128309
    21  C   -0.390323
    22  H    0.120099
    23  H    0.142279
    24  H    0.135624
 Sum of Mulliken charges =   0.00000

 Dipole moment (field-independent basis, Debye):
    X=              5.5143    Y=              2.6009    Z=             -5.3586  Tot=              8.1170
 Quadrupole moment (field-independent basis, Debye-Ang):
   XX=            -70.7271   YY=            -67.3362   ZZ=            -68.4454
   XY=             12.2799   XZ=              3.1197   YZ=             -5.0912

  Exact polarizability: 189.486  -0.805 147.159  -6.155   4.134 136.715
 Approx polarizability: 144.001  -3.412 123.241  -5.617   4.245 116.393

 ******    1 imaginary frequencies (negative Signs) ******

                      1                      2                      3
                      A                      A                      A
 Frequencies --   -378.4260                59.5581                65.9173
 Red. masses --      5.6981                 3.4024                 2.0701
 Frc consts  --      0.4808                 0.0071                 0.0053
 IR Inten    --    770.6901                11.6276                 1.8041

                      4                      5                      6
                      A                      A                      A
 Frequencies --     79.1032               124.6859               163.9179
 Red. masses --      3.0917                 1.3810                 1.8536
 Frc consts  --      0.0114                 0.0127                 0.0293
 IR Inten    --      0.4826                 1.9196                 3.4820

                      7                      8                      9
                      A                      A                      A
 Frequencies --    187.1805               206.8268               224.1968
 Red. masses --      1.3308                 1.3250                 3.0187
 Frc consts  --      0.0275                 0.0334                 0.0894
 IR Inten    --      0.2328                 2.0946                 3.2938

                     10                     11                     12
                      A                      A                      A
 Frequencies --    234.3007               292.1348               304.1943
 Red. masses --      2.4724                 2.7086                 1.6318
 Frc consts  --      0.0800                 0.1362                 0.0890
 IR Inten    --     21.3694                 9.5711                 2.0496

                     13                     14                     15
                      A                      A                      A
 Frequencies --    332.3985               341.5563               376.6871
 Red. masses --      2.6487                 3.7621                 2.3449
 Frc consts  --      0.1724                 0.2586                 0.1960
 IR Inten    --     14.5065                23.7482                 3.7077

                     16                     17                     18
                      A                      A                      A
 Frequencies --    392.6738               468.5409               497.4805
 Red. masses --      2.7847                 3.2159                 3.1997
 Frc consts  --      0.2530                 0.4160                 0.4666
 IR Inten    --      7.6344                25.8619                74.2665

                     19                     20                     21
                      A                      A                      A
 Frequencies --    568.2953               612.8346               651.7052
 Red. masses --      4.0282                 2.9738                 2.9643
 Frc consts  --      0.7665                 0.6580                 0.7418
 IR Inten    --     93.2699                26.4224                48.4658

                     22                     23                     24
                      A                      A                      A
 Frequencies --    688.7424               761.8412               950.3572
 Red. masses --      1.5659                 3.1406                 1.9518
 Frc consts  --      0.4376                 1.0740                 1.0386
 IR Inten    --     23.8883               159.3132                81.4736

                     25                     26                     27
                      A                      A                      A
 Frequencies --    989.7622              1005.3714              1030.2963
 Red. masses --      1.4494                 1.0914                 1.5627
 Frc consts  --      0.8366                 0.6500                 0.9774
 IR Inten    --    118.9407                50.9932                 4.0970

                     28                     29                     30
                      A                      A                      A
 Frequencies --   1041.8734              1056.2052              1066.2206
 Red. masses --      1.2418                 1.5769                 1.5379
 Frc consts  --      0.7942                 1.0365                 1.0301
 IR Inten    --     43.8444                44.2002                24.1886

                     31                     32                     33
                      A                      A                      A
 Frequencies --   1083.4255              1085.9523              1135.6750
 Red. masses --      2.1948                 2.3944                 2.6767
 Frc consts  --      1.5179                 1.6637                 2.0340
 IR Inten    --     19.7994               106.7332                28.8874

                     34                     35                     36
                      A                      A                      A
 Frequencies --   1168.9405              1226.0924              1337.0491
 Red. masses --      2.8247                 1.3866                 1.3902
 Frc consts  --      2.2741                 1.2281                 1.4643
 IR Inten    --     11.3098                33.7529                 0.6389

                     37                     38                     39
                      A                      A                      A
 Frequencies --   1354.8802              1379.2630              1408.5669
 Red. masses --      2.6195                 1.8543                 1.9878
 Frc consts  --      2.8331                 2.0784                 2.3237
 IR Inten    --     81.0391               136.2673               841.0082

                     40                     41                     42
                      A                      A                      A
 Frequencies --   1429.4902              1435.3934              1459.5482
 Red. masses --      1.2140                 1.5166                 1.1960
 Frc consts  --      1.4616                 1.8410                 1.5011
 IR Inten    --      2.7094               248.0726                47.6092

                     43                     44                     45
                      A                      A                      A
 Frequencies --   1462.1131              1469.0385              1478.4395
 Red. masses --      1.1191                 1.0572                 1.0674
 Frc consts  --      1.4095                 1.3442                 1.3746
 IR Inten    --     49.1837                17.6237                55.1408

                     46                     47                     48
                      A                      A                      A
 Frequencies --   1484.0618              1495.3763              1496.5407
 Red. masses --      1.0820                 1.0446                 1.0407
 Frc consts  --      1.4040                 1.3762                 1.3732
 IR Inten    --     27.4569                24.6609                17.8998

                     49                     50                     51
                      A                      A                      A
 Frequencies --   1506.8334              1508.4356              1645.0469
 Red. masses --      1.0666                 1.0723                 1.6675
 Frc consts  --      1.4268                 1.4375                 2.6587
 IR Inten    --     94.1832               106.2339               376.8900

                     52                     53                     54
                      A                      A                      A
 Frequencies --   1646.5109              3028.5956              3053.3135
 Red. masses --      2.2637                 1.0492                 1.0379
 Frc consts  --      3.6157                 5.6700                 5.7011
 IR Inten    --    205.8269                81.6581                16.2388

                     55                     56                     57
                      A                      A                      A
 Frequencies --   3065.2346              3080.1441              3096.7990
 Red. masses --      1.0351                 1.0371                 1.0883
 Frc consts  --      5.7299                 5.7973                 6.1490
 IR Inten    --     33.3732                17.1214                43.2238

                     58                     59                     60
                      A                      A                      A
 Frequencies --   3122.4712              3130.2045              3142.4942
 Red. masses --      1.0988                 1.0999                 1.1028
 Frc consts  --      6.3118                 6.3498                 6.4165
 IR Inten    --     18.2275                38.4402                 5.2734

                     61                     62                     63
                      A                      A                      A
 Frequencies --   3154.4122              3158.8737              3173.8545
 Red. masses --      1.1031                 1.1035                 1.1050
 Frc consts  --      6.4670                 6.4876                 6.5584
 IR Inten    --     17.2123                30.0239                13.0318

                     64                     65                     66
                      A                      A                      A
 Frequencies --   3188.3693              3526.8874              3609.1007
 Red. masses --      1.1007                 1.0509                 1.0963
 Frc consts  --      6.5929                 7.7020                 8.4134
 IR Inten    --      3.3111                54.3712                49.6054

 - Thermochemistry -
 -------------------
 Temperature   298.150 Kelvin.  Pressure   1.00000 Atm.
 Atom     1 has atomic number  6 and mass  12.00000

 Molecular mass:   163.07639 amu.
 Principal axes and moments of inertia in atomic units:
                           1         2         3
     Eigenvalues --  1320.554102170.170292430.57855
           X            0.99583   0.08910   0.01972
           Y           -0.08975   0.99534   0.03532
           Z           -0.01648  -0.03695   0.99918
 This molecule is an asymmetric top.
 Rotational symmetry number  1.
 Warning -- assumption of classical behavior for rotation
           may cause significant error
 Rotational temperatures (Kelvin)      0.06559     0.03991     0.03564
 Rotational constants (GHZ):           1.36665     0.83161     0.74252
    1 imaginary frequencies ignored.
 Zero-point vibrational energy     538333.2 (Joules/Mol)
                                  128.66473 (Kcal/Mol)
 Warning -- explicit consideration of  19 degrees of freedom as
           vibrations may cause significant error
 Vibrational temperatures:     85.69    94.84   113.81   179.40   235.84
          (Kelvin)            269.31   297.58   322.57   337.11   420.32
                              437.67   478.25   491.42   541.97   564.97
                              674.13   715.76   817.65   881.73   937.66
                              990.95  1096.12  1367.35  1424.05  1446.51
                             1482.37  1499.02  1519.64  1534.05  1558.81
                             1562.44  1633.98  1681.84  1764.07  1923.72
                             1949.37  1984.45  2026.61  2056.72  2065.21
                             2099.96  2103.65  2113.62  2127.14  2135.23
                             2151.51  2153.19  2168.00  2170.30  2366.86
                             2368.96  4357.47  4393.04  4410.19  4431.64
                             4455.60  4492.54  4503.67  4521.35  4538.50
                             4544.91  4566.47  4587.35  5074.40  5192.69

 Zero-point correction=                           0.205040 (Hartree/Particle)
 Thermal correction to Energy=                    0.217579
 Thermal correction to Enthalpy=                  0.218524
 Thermal correction to Gibbs Free Energy=         0.166484
 Sum of electronic and zero-point Energies=           -865.144544
 Sum of electronic and thermal Energies=              -865.132005
 Sum of electronic and thermal Enthalpies=            -865.131061
 Sum of electronic and thermal Free Energies=         -865.183100

                     E (Thermal)             CV                S
                      KCal/Mol        Cal/Mol-Kelvin    Cal/Mol-Kelvin
 Total                  136.533             44.917            109.526
 Electronic               0.000              0.000              0.000
 Translational            0.889              2.981             41.176
 Rotational               0.889              2.981             30.322
 Vibrational            134.756             38.955             38.028
 Vibration     1          0.597              1.974              4.472
 Vibration     2          0.597              1.971              4.272
 Vibration     3          0.600              1.963              3.913
 Vibration     4          0.610              1.928              3.026
 Vibration     5          0.623              1.887              2.504
 Vibration     6          0.632              1.857              2.256
 Vibration     7          0.641              1.830              2.072
 Vibration     8          0.649              1.804              1.925
 Vibration     9          0.654              1.788              1.846
 Vibration    10          0.688              1.688              1.462
 Vibration    11          0.695              1.666              1.394
 Vibration    12          0.714              1.611              1.248
 Vibration    13          0.721              1.592              1.205
 Vibration    14          0.747              1.520              1.052
 Vibration    15          0.760              1.486              0.990
 Vibration    16          0.826              1.320              0.742
 Vibration    17          0.853              1.256              0.664
 Vibration    18          0.924              1.100              0.508
 Vibration    19          0.972              1.005              0.428

 Optimization completed.
    -- Stationary point found.
 Normal termination of Gaussian 16 at Thu Feb 25 16:01:57 2021.
