 Gaussian 16, Revision A.03,
 Gaussian 16:  ES64L-G16RevA.03 25-Dec-2016

 ----------------------------------------------------------------------
 # wB97XD def2tzvp, opt=(ts, noeigen, calcfc, maxcycles=70, maxstep=3),
  freq=noraman, scrf=(iefpcm, solvent=water)
 ----------------------------------------------------------------------

 ------------------------
 3_iteration/TS-832-3.out
 ------------------------
 Symbolic Z-matrix:
 Charge =  0 Multiplicity = 1

 SCF Done:  E(RwB97XD) =  -3783.10738697     A.U. after   15 cycles
 SCF Done:  E(RwB97XD) =  -3783.10739903     A.U. after   10 cycles
 SCF Done:  E(RwB97XD) =  -3783.10739926     A.U. after    7 cycles
 Optimization completed.
    -- Stationary point found.
 Normal termination of Gaussian 16 at Sat Feb 27 05:44:55 2021.

 ---------------------------------------------------------------------
 #N Geom=AllCheck Guess=TCheck SCRF=Check GenChk RwB97XD/def2TZVP Freq
 ---------------------------------------------------------------------

 Structure from the checkpoint file:  "/beegfs/scratch/user/q/tla25/Gau-10700.chk"
 ------------------------
 3_iteration/TS-832-3.out
 ------------------------
 Charge =  0 Multiplicity = 1

                         Standard orientation:
 ---------------------------------------------------------------------
 Center     Atomic      Atomic             Coordinates (Angstroms)
 Number     Number       Type             X           Y           Z
 ---------------------------------------------------------------------
      1          6           0        0.083917   -0.538807   -0.043209
      2          6           0        0.701637    0.623875    0.555108
      3          8           0        0.083895    1.423304    1.254368
      4          6           0       -1.295591   -0.684658   -0.146104
      5          6           0       -1.353893   -1.228590    2.692523
      6          1           0       -0.295522   -1.012126    2.553448
      7          1           0       -1.863601   -0.307958    2.965269
      8          1           0       -1.465556   -1.960578    3.492714
      9          7           0       -1.888308   -1.733186    1.432520
     10          1           0       -1.468842   -2.626944    1.200868
     11          1           0       -2.891200   -1.877585    1.459543
     12         17           0       -1.906437   -1.874228   -1.330024
     13          6           0       -2.168349    0.539652   -0.187426
     14          6           0       -1.882673    1.469784   -1.187354
     15          6           0       -2.657579    2.604819   -1.340018
     16          6           0       -3.739579    2.828718   -0.499804
     17          6           0       -4.038414    1.901648    0.484351
     18          6           0       -3.262717    0.760654    0.636576
     19          1           0       -1.040088    1.298912   -1.844964
     20          1           0       -2.414832    3.316563   -2.118655
     21          1           0       -4.346703    3.717305   -0.615286
     22          1           0       -4.881491    2.060482    1.144299
     23          1           0       -3.531378    0.065988    1.417069
     24         35           0        1.195947   -2.049425   -0.405590
     25          6           0        2.152049    0.903799    0.280961
     26          6           0        2.647959    0.924773   -1.018490
     27          6           0        3.966204    1.280491   -1.256635
     28          6           0        4.803969    1.595408   -0.195251
     29          6           0        4.314462    1.571813    1.103480
     30          6           0        2.988755    1.241130    1.338902
     31          1           0        1.996624    0.670147   -1.845789
     32          1           0        4.341619    1.308748   -2.271676
     33          1           0        5.836807    1.861981   -0.380759
     34          1           0        4.964910    1.817248    1.933417
     35          1           0        2.596608    1.238373    2.348318
 ---------------------------------------------------------------------

 SCF Done:  E(RwB97XD) =  -3783.10739926     A.U. after    1 cycles

 The electronic state is 1-A.
 Alpha  occ. eigenvalues -- -483.12917-101.70605 -62.67733 -56.46850 -56.46499
 Alpha  occ. eigenvalues --  -56.46492 -19.22542 -14.48732 -10.41704 -10.37557
 Alpha  occ. eigenvalues --  -10.32084 -10.31916 -10.31710 -10.30006 -10.29981
 Alpha  occ. eigenvalues --  -10.29668 -10.29525 -10.29501 -10.29462 -10.29429
 Alpha  occ. eigenvalues --  -10.29400 -10.29346 -10.29239 -10.29221  -9.59194
 Alpha  occ. eigenvalues --   -8.81834  -7.33844  -7.32980  -7.32928  -6.63977
 Alpha  occ. eigenvalues --   -6.62856  -6.62834  -2.74368  -2.74041  -2.74024
 Alpha  occ. eigenvalues --   -2.73117  -2.73117  -1.13600  -1.04651  -0.99666
 Alpha  occ. eigenvalues --   -0.97026  -0.96454  -0.91609  -0.87650  -0.86381
 Alpha  occ. eigenvalues --   -0.85864  -0.85445  -0.81939  -0.79059  -0.75614
 Alpha  occ. eigenvalues --   -0.71667  -0.71204  -0.70769  -0.68170  -0.64960
 Alpha  occ. eigenvalues --   -0.63302  -0.61524  -0.59052  -0.58002  -0.57185
 Alpha  occ. eigenvalues --   -0.56489  -0.55331  -0.54404  -0.54213  -0.53709
 Alpha  occ. eigenvalues --   -0.52625  -0.51543  -0.51412  -0.51308  -0.48961
 Alpha  occ. eigenvalues --   -0.48098  -0.47743  -0.47039  -0.46723  -0.45563
 Alpha  occ. eigenvalues --   -0.44575  -0.44166  -0.43440  -0.42951  -0.41526
 Alpha  occ. eigenvalues --   -0.39952  -0.39238  -0.37557  -0.35500  -0.34355
 Alpha  occ. eigenvalues --   -0.33919  -0.33540  -0.32020  -0.28734
 Alpha virt. eigenvalues --    0.00908   0.02726   0.04665   0.04920   0.05266
 Alpha virt. eigenvalues --    0.07177   0.10205   0.11445   0.12585   0.13394
 Alpha virt. eigenvalues --    0.13967   0.14506   0.14892   0.15784   0.16883

 Mulliken charges:
               1
     1  C   -0.289598
     2  C    0.291255
     3  O   -0.444265
     4  C    0.239461
     5  C   -0.273976
     6  H    0.153223
     7  H    0.151628
     8  H    0.158520
     9  N   -0.371706
    10  H    0.280559
    11  H    0.287321
    12  Cl  -0.089265
    13  C    0.219291
    14  C   -0.292803
    15  C   -0.128815
    16  C   -0.149123
    17  C   -0.158685
    18  C   -0.210809
    19  H    0.161908
    20  H    0.145288
    21  H    0.146315
    22  H    0.145741
    23  H    0.138383
    24  Br  -0.110074
    25  C    0.162494
    26  C   -0.253525
    27  C   -0.139459
    28  C   -0.131288
    29  C   -0.149107
    30  C   -0.233087
    31  H    0.166605
    32  H    0.144260
    33  H    0.146730
    34  H    0.143933
    35  H    0.142668
 Sum of Mulliken charges =  -0.00000

 Dipole moment (field-independent basis, Debye):
    X=             -3.7038    Y=             -2.8294    Z=              2.5303  Tot=              5.3034
 Quadrupole moment (field-independent basis, Debye-Ang):
   XX=           -114.6309   YY=           -133.6146   ZZ=           -125.0442
   XY=              6.4196   XZ=            -11.0722   YZ=            -14.8860

  Exact polarizability: 372.863   6.798 302.723 -26.388  -1.033 298.120
 Approx polarizability: 283.981   2.339 250.058 -22.127   1.883 259.989

 ******    1 imaginary frequencies (negative Signs) ******

                      1                      2                      3
                      A                      A                      A
 Frequencies --   -352.9484                25.0131                42.1979
 Red. masses --      5.3026                 6.0991                 3.9295
 Frc consts  --      0.3892                 0.0022                 0.0041
 IR Inten    --    747.0025                 1.7506                 0.6371

                      4                      5                      6
                      A                      A                      A
 Frequencies --     43.3401                48.7229                76.8632
 Red. masses --      6.4197                 4.1224                 5.9088
 Frc consts  --      0.0071                 0.0058                 0.0206
 IR Inten    --      1.2656                 1.1842                 2.2474

                      7                      8                      9
                      A                      A                      A
 Frequencies --     87.5431               109.3177               126.5802
 Red. masses --      6.7950                 3.1236                 3.0122
 Frc consts  --      0.0307                 0.0220                 0.0284
 IR Inten    --      0.3811                 1.7606                 6.3408

                     10                     11                     12
                      A                      A                      A
 Frequencies --    159.4864               162.4870               174.7227
 Red. masses --      1.8263                 5.4030                 9.0985
 Frc consts  --      0.0274                 0.0840                 0.1637
 IR Inten    --      3.2160                 2.5826                 4.0648

                     13                     14                     15
                      A                      A                      A
 Frequencies --    185.5282               203.6925               216.0125
 Red. masses --      4.4374                 3.0569                 4.2175
 Frc consts  --      0.0900                 0.0747                 0.1159
 IR Inten    --      4.3158                 5.3231                 3.8410

                     16                     17                     18
                      A                      A                      A
 Frequencies --    238.2709               258.1448               283.9920
 Red. masses --      4.5223                 5.4723                 3.7615
 Frc consts  --      0.1513                 0.2149                 0.1787
 IR Inten    --      5.8769                 1.4721                15.4402

                     19                     20                     21
                      A                      A                      A
 Frequencies --    314.7715               354.0718               392.1331
 Red. masses --      6.4008                10.3157                 6.7961
 Frc consts  --      0.3737                 0.7620                 0.6157
 IR Inten    --     12.3973                22.1732                29.4379

                     22                     23                     24
                      A                      A                      A
 Frequencies --    414.6858               420.4825               421.0006
 Red. masses --      4.5038                 3.1625                 2.9164
 Frc consts  --      0.4563                 0.3294                 0.3045
 IR Inten    --      4.2134                 3.5337                 0.2271

                     25                     26                     27
                      A                      A                      A
 Frequencies --    511.6578               549.6942               560.4641
 Red. masses --      4.0641                 3.2148                 4.3409
 Frc consts  --      0.6269                 0.5723                 0.8034
 IR Inten    --      9.2775                65.3404               140.4040

                     28                     29                     30
                      A                      A                      A
 Frequencies --    585.6569               635.3112               639.1617
 Red. masses --      3.0791                 6.4297                 6.4074
 Frc consts  --      0.6222                 1.5290                 1.5422
 IR Inten    --     48.3061                 0.3066                15.0880

                     31                     32                     33
                      A                      A                      A
 Frequencies --    657.6956               669.7189               718.9692
 Red. masses --      5.7209                 2.5351                 1.6819
 Frc consts  --      1.4580                 0.6699                 0.5122
 IR Inten    --    119.9718                41.2502                58.6593

                     34                     35                     36
                      A                      A                      A
 Frequencies --    724.7095               742.2070               753.5696
 Red. masses --      1.6431                 3.6951                 3.6586
 Frc consts  --      0.5084                 1.1993                 1.2241
 IR Inten    --     82.4798               134.1475                83.9990

                     37                     38                     39
                      A                      A                      A
 Frequencies --    799.0891               821.6756               860.9495
 Red. masses --      2.4525                 2.9580                 5.6924
 Frc consts  --      0.9227                 1.1767                 2.4860
 IR Inten    --     12.9237                32.0783               100.9622

                     40                     41                     42
                      A                      A                      A
 Frequencies --    866.9061               880.2321               939.0376
 Red. masses --      1.2630                 1.2496                 2.1481
 Frc consts  --      0.5593                 0.5704                 1.1160
 IR Inten    --      1.7610                 0.9080                 4.3552

                     43                     44                     45
                      A                      A                      A
 Frequencies --    965.2322               967.3369               984.2869
 Red. masses --      1.5866                 2.2471                 1.0917
 Frc consts  --      0.8709                 1.2389                 0.6232
 IR Inten    --      6.3844                 0.9803                43.9725

                     46                     47                     48
                      A                      A                      A
 Frequencies --   1010.5080              1014.3293              1024.9068
 Red. masses --      1.3678                 1.3811                 5.3803
 Frc consts  --      0.8229                 0.8372                 3.3298
 IR Inten    --      0.2032                 1.2169                 3.0584

                     49                     50                     51
                      A                      A                      A
 Frequencies --   1026.4490              1030.3931              1032.8300
 Red. masses --      5.9618                 1.3138                 1.3203
 Frc consts  --      3.7009                 0.8218                 0.8298
 IR Inten    --      1.8647                 0.3725                 0.3698

                     52                     53                     54
                      A                      A                      A
 Frequencies --   1052.6598              1059.2673              1063.1522
 Red. masses --      1.2244                 2.2374                 2.0466
 Frc consts  --      0.7993                 1.4791                 1.3629
 IR Inten    --     90.5728                 8.7556                19.0192

                     55                     56                     57
                      A                      A                      A
 Frequencies --   1078.3006              1110.6220              1120.3915
 Red. masses --      5.0111                 1.5740                 1.5499
 Frc consts  --      3.4329                 1.1439                 1.1463
 IR Inten    --     34.5036                17.2659                 9.5540

                     58                     59                     60
                      A                      A                      A
 Frequencies --   1137.0746              1184.3061              1185.2524
 Red. masses --      3.8949                 1.1399                 1.1288
 Frc consts  --      2.9670                 0.9420                 0.9343
 IR Inten    --      5.8376                 0.4324                 0.2561

                     61                     62                     63
                      A                      A                      A
 Frequencies --   1204.6988              1207.4099              1213.6190
 Red. masses --      1.1722                 1.6324                 1.6937
 Frc consts  --      1.0024                 1.4022                 1.4698
 IR Inten    --      3.7772                94.8561                96.0736

                     64                     65                     66
                      A                      A                      A
 Frequencies --   1221.6218              1305.8803              1318.3138
 Red. masses --      1.4839                 4.8748                 4.1233
 Frc consts  --      1.3047                 4.8979                 4.2222
 IR Inten    --     18.7515               237.2992               130.6774

                     67                     68                     69
                      A                      A                      A
 Frequencies --   1332.2554              1340.4987              1354.3835
 Red. masses --      4.7185                 1.3787                 1.5091
 Frc consts  --      4.9343                 1.4596                 1.6309
 IR Inten    --    111.6997                27.8068                14.1433

                     70                     71                     72
                      A                      A                      A
 Frequencies --   1357.5906              1398.3389              1463.0981
 Red. masses --      1.4558                 5.9547                 1.2303
 Frc consts  --      1.5808                 6.8602                 1.5516
 IR Inten    --      1.6185              1099.8119                19.6926

                     73                     74                     75
                      A                      A                      A
 Frequencies --   1485.4304              1489.0854              1490.6885
 Red. masses --      1.0401                 2.1988                 2.2337
 Frc consts  --      1.3522                 2.8726                 2.9245
 IR Inten    --     24.7645                31.2126                21.9919

                     76                     77                     78
                      A                      A                      A
 Frequencies --   1501.6152              1540.0662              1540.9774
 Red. masses --      1.0425                 2.3162                 2.3578
 Frc consts  --      1.3850                 3.2367                 3.2987
 IR Inten    --     13.3481                 4.7211                26.9439

                     79                     80                     81
                      A                      A                      A
 Frequencies --   1644.1176              1649.1907              1653.7433
 Red. masses --      1.2843                 5.1879                 3.6662
 Frc consts  --      2.0455                 8.3136                 5.9075
 IR Inten    --    105.7838                54.5735                 4.0929

                     82                     83                     84
                      A                      A                      A
 Frequencies --   1671.7273              1673.4941              1674.3894
 Red. masses --      9.3896                 6.0125                 6.4230
 Frc consts  --     15.4607                 9.9210                10.6097
 IR Inten    --    307.4600                 1.2201                67.0062

                     85                     86                     87
                      A                      A                      A
 Frequencies --   3071.9951              3148.8991              3176.0722
 Red. masses --      1.0345                 1.1035                 1.1050
 Frc consts  --      5.7519                 6.4468                 6.5675
 IR Inten    --     35.3310                 9.7828                13.7977

                     88                     89                     90
                      A                      A                      A
 Frequencies --   3194.3218              3199.4516              3199.6409
 Red. masses --      1.0860                 1.0862                 1.0881
 Frc consts  --      6.5288                 6.5512                 6.5631
 IR Inten    --      1.7169                 0.3620                 0.6493

                     91                     92                     93
                      A                      A                      A
 Frequencies --   3206.6081              3207.5131              3214.3816
 Red. masses --      1.0917                 1.0894                 1.0953
 Frc consts  --      6.6136                 6.6032                 6.6679
 IR Inten    --      9.9694                 4.2159                33.2782

                     94                     95                     96
                      A                      A                      A
 Frequencies --   3216.0923              3222.9709              3224.8125
 Red. masses --      1.0937                 1.0989                 1.0980
 Frc consts  --      6.6650                 6.7256                 6.7279
 IR Inten    --     22.3300                19.6275                20.2753

                     97                     98                     99
                      A                      A                      A
 Frequencies --   3248.5968              3523.0160              3599.9479
 Red. masses --      1.0924                 1.0515                 1.0950
 Frc consts  --      6.7924                 7.6892                 8.3606
 IR Inten    --     14.7003                46.9914                47.8358

 - Thermochemistry -
 -------------------
 Temperature   298.150 Kelvin.  Pressure   1.00000 Atm.
 Atom     1 has atomic number  6 and mass  12.00000

 Molecular mass:   351.00255 amu.
 Principal axes and moments of inertia in atomic units:
                           1         2         3
     Eigenvalues --  4959.790648977.65783**********
           X            0.99972   0.02098  -0.01057
           Y           -0.02153   0.99826  -0.05492
           Z            0.00940   0.05513   0.99843
 This molecule is an asymmetric top.
 Rotational symmetry number  1.
 Warning -- assumption of classical behavior for rotation
           may cause significant error
 Rotational temperatures (Kelvin)      0.01746     0.00965     0.00780
 Rotational constants (GHZ):           0.36387     0.20103     0.16254
    1 imaginary frequencies ignored.
 Zero-point vibrational energy     718415.1 (Joules/Mol)
                                  171.70532 (Kcal/Mol)
 Warning -- explicit consideration of  27 degrees of freedom as
           vibrations may cause significant error
 Vibrational temperatures:     35.99    60.71    62.36    70.10   110.59
          (Kelvin)            125.96   157.28   182.12   229.47   233.78
                              251.39   266.93   293.07   310.79   342.82
                              371.41   408.60   452.89   509.43   564.19
                              596.64   604.98   605.73   736.16   790.89
                              806.38   842.63   914.07   919.61   946.28
                              963.58  1034.44  1042.70  1067.87  1084.22
                             1149.71  1182.21  1238.71  1247.28  1266.46
                             1351.07  1388.75  1391.78  1416.17  1453.90
                             1459.39  1474.61  1476.83  1482.51  1486.01
                             1514.54  1524.05  1529.64  1551.43  1597.94
                             1611.99  1636.00  1703.95  1705.31  1733.29
                             1737.19  1746.13  1757.64  1878.87  1896.76
                             1916.82  1928.68  1948.66  1953.27  2011.90
                             2105.07  2137.20  2142.46  2144.77  2160.49
                             2215.81  2217.12  2365.52  2372.82  2379.37
                             2405.24  2407.78  2409.07  4419.92  4530.56
                             4569.66  4595.92  4603.30  4603.57  4613.59
                             4614.90  4624.78  4627.24  4637.14  4639.79
                             4674.01  5068.83  5179.52

 Zero-point correction=                           0.273630 (Hartree/Particle)
 Thermal correction to Energy=                    0.292519
 Thermal correction to Enthalpy=                  0.293463
 Thermal correction to Gibbs Free Energy=         0.224184
 Sum of electronic and zero-point Energies=          -3782.833769
 Sum of electronic and thermal Energies=             -3782.814880
 Sum of electronic and thermal Enthalpies=           -3782.813936
 Sum of electronic and thermal Free Energies=        -3782.883215

                     E (Thermal)             CV                S
                      KCal/Mol        Cal/Mol-Kelvin    Cal/Mol-Kelvin
 Total                  183.559             69.992            145.810
 Electronic               0.000              0.000              0.000
 Translational            0.889              2.981             43.461
 Rotational               0.889              2.981             34.557
 Vibrational            181.781             64.030             67.792
 Vibration     1          0.593              1.985              6.190
 Vibration     2          0.595              1.980              5.153
 Vibration     3          0.595              1.980              5.100
 Vibration     4          0.595              1.978              4.869
 Vibration     5          0.599              1.965              3.969
 Vibration     6          0.601              1.958              3.714
 Vibration     7          0.606              1.942              3.281
 Vibration     8          0.611              1.927              2.997
 Vibration     9          0.621              1.892              2.556
 Vibration    10          0.623              1.888              2.521
 Vibration    11          0.627              1.874              2.384
 Vibration    12          0.632              1.860              2.272
 Vibration    13          0.639              1.835              2.099
 Vibration    14          0.645              1.817              1.992
 Vibration    15          0.656              1.782              1.816
 Vibration    16          0.667              1.749              1.674
 Vibration    17          0.682              1.703              1.510
 Vibration    18          0.702              1.645              1.337
 Vibration    19          0.730              1.567              1.148
 Vibration    20          0.760              1.487              0.992
 Vibration    21          0.778              1.438              0.910
 Vibration    22          0.783              1.426              0.890
 Vibration    23          0.784              1.425              0.889
 Vibration    24          0.867              1.224              0.630
 Vibration    25          0.905              1.140              0.545
 Vibration    26          0.916              1.117              0.523
 Vibration    27          0.943              1.062              0.475

 Optimization completed.
    -- Stationary point found.
 Normal termination of Gaussian 16 at Sat Feb 27 07:59:05 2021.
