 Gaussian 16, Revision A.03,
 Gaussian 16:  ES64L-G16RevA.03 25-Dec-2016

 ----------------------------------------------------------------------
 # wB97XD def2tzvp, opt=(ts, noeigen, calcfc, maxcycles=70, maxstep=8),
  freq=noraman, scrf=(iefpcm, solvent=water)
 ----------------------------------------------------------------------

 ------------------------
 1_iteration/TS-806-1.out
 ------------------------
 Symbolic Z-matrix:
 Charge =  0 Multiplicity = 1

 SCF Done:  E(RwB97XD) =  -1343.48817979     A.U. after   15 cycles
 Optimization completed.
    -- Stationary point found.
 Normal termination of Gaussian 16 at Fri Apr 16 17:33:02 2021.

 ---------------------------------------------------------------------
 #N Geom=AllCheck Guess=TCheck SCRF=Check GenChk RwB97XD/def2TZVP Freq
 ---------------------------------------------------------------------

 Structure from the checkpoint file:  "/beegfs/scratch/user/q/tla25/Gau-445097.chk"
 ------------------------
 1_iteration/TS-806-1.out
 ------------------------
 Charge =  0 Multiplicity = 1

                         Standard orientation:
 ---------------------------------------------------------------------
 Center     Atomic      Atomic             Coordinates (Angstroms)
 Number     Number       Type             X           Y           Z
 ---------------------------------------------------------------------
      1          6           0        0.469480    0.131090    0.021410
      2          6           0        0.254071    1.476400    0.540830
      3          8           0       -0.552869    1.712630    1.466680
      4          6           0       -0.622720   -0.753059    0.182640
      5          6           0       -1.731311   -2.021019    2.586190
      6          1           0       -1.658451   -2.003159    3.674280
      7          1           0       -2.744871   -1.763188    2.290880
      8          1           0       -1.503721   -3.022579    2.228470
      9          7           0       -0.785910   -1.076029    1.989960
     10          1           0       -0.896370   -0.106579    2.296580
     11          1           0        0.170220   -1.342530    2.198680
     12         17           0       -0.340311   -2.441340   -0.348320
     13          6           0       -1.998600   -0.304479   -0.270780
     14          6           0       -2.270850   -0.406989   -1.635710
     15          6           0       -3.480350    0.015232   -2.157150
     16          6           0       -4.449369    0.554453   -1.321290
     17          6           0       -4.185369    0.672372    0.031920
     18          6           0       -2.968840    0.249942    0.553320
     19          1           0       -1.520100   -0.819179   -2.297780
     20          1           0       -3.664820   -0.074698   -3.220110
     21          1           0       -5.397849    0.885133   -1.724860
     22          1           0       -4.924219    1.102883    0.695810
     23          1           0       -2.787759    0.395202    1.606030
     24          6           0        1.870170   -0.328681   -0.157860
     25          6           0        2.827660   -0.067931    0.826580
     26          6           0        4.154210   -0.443412    0.668360
     27          6           0        4.558310   -1.105732   -0.481160
     28          6           0        3.623470   -1.373622   -1.473070
     29          6           0        2.304370   -0.980281   -1.316090
     30          1           0        2.524361    0.443889    1.733150
     31          1           0        4.871480   -0.223932    1.450000
     32          1           0        5.591460   -1.404273   -0.607380
     33          1           0        3.927999   -1.877462   -2.382520
     34          1           0        1.593520   -1.164881   -2.111770
     35          7           0        0.992832    2.500120    0.025500
     36          6           0        1.671642    2.444449   -1.248950
     37          6           0        1.048392    3.771680    0.709470
     38          1           0        1.268831    1.635780   -1.852930
     39          1           0        1.510062    3.386569   -1.777840
     40          1           0        2.749652    2.292389   -1.134290
     41          1           0        0.730112    3.646590    1.740270
     42          1           0        2.073273    4.149869    0.690680
     43          1           0        0.400773    4.514780    0.232490
 ---------------------------------------------------------------------

 SCF Done:  E(RwB97XD) =  -1343.48817979     A.U. after    1 cycles

 The electronic state is 1-A.
 Alpha  occ. eigenvalues -- -101.69621 -19.19868 -14.48855 -14.45032 -10.40592
 Alpha  occ. eigenvalues --  -10.37112 -10.31812 -10.31101 -10.30271 -10.30097
 Alpha  occ. eigenvalues --  -10.29504 -10.29449 -10.29306 -10.29132 -10.29090
 Alpha  occ. eigenvalues --  -10.29047 -10.28431 -10.28394 -10.28262 -10.28076
 Alpha  occ. eigenvalues --  -10.27965 -10.25528  -9.58237  -7.32869  -7.32026
 Alpha  occ. eigenvalues --   -7.31984  -1.12420  -1.04879  -1.02433  -0.98464
 Alpha  occ. eigenvalues --   -0.96260  -0.95204  -0.88291  -0.86474  -0.85383
 Alpha  occ. eigenvalues --   -0.84346  -0.82205  -0.81144  -0.79658  -0.77593
 Alpha  occ. eigenvalues --   -0.73038  -0.70899  -0.69721  -0.68683  -0.66681
 Alpha  occ. eigenvalues --   -0.64225  -0.62698  -0.61127  -0.60115  -0.58348
 Alpha  occ. eigenvalues --   -0.56604  -0.56539  -0.56069  -0.55623  -0.54486
 Alpha  occ. eigenvalues --   -0.54189  -0.53008  -0.52382  -0.51997  -0.51070
 Alpha  occ. eigenvalues --   -0.50859  -0.50162  -0.48477  -0.48280  -0.48043
 Alpha  occ. eigenvalues --   -0.47643  -0.46871  -0.46349  -0.45786  -0.45056
 Alpha  occ. eigenvalues --   -0.44628  -0.44004  -0.42946  -0.42697  -0.42041
 Alpha  occ. eigenvalues --   -0.39803  -0.39117  -0.35131  -0.34144  -0.33653
 Alpha  occ. eigenvalues --   -0.33087  -0.32118  -0.31228  -0.25419
 Alpha virt. eigenvalues --    0.03831   0.04967   0.05521   0.05788   0.06803
 Alpha virt. eigenvalues --    0.10242   0.10604   0.12144   0.12756   0.13601
 Alpha virt. eigenvalues --    0.14659   0.14921   0.15468   0.15569   0.16484

 Mulliken charges:
               1
     1  C   -0.350757
     2  C    0.301176
     3  O   -0.588547
     4  C    0.261252
     5  C   -0.276604
     6  H    0.155254
     7  H    0.158113
     8  H    0.149794
     9  N   -0.291306
    10  H    0.277988
    11  H    0.282247
    12  Cl  -0.116786
    13  C    0.225633
    14  C   -0.321009
    15  C   -0.133003
    16  C   -0.155479
    17  C   -0.138827
    18  C   -0.286247
    19  H    0.158010
    20  H    0.143003
    21  H    0.144051
    22  H    0.142977
    23  H    0.167994
    24  C    0.162093
    25  C   -0.211858
    26  C   -0.183536
    27  C   -0.130179
    28  C   -0.163387
    29  C   -0.243793
    30  H    0.142556
    31  H    0.135316
    32  H    0.139242
    33  H    0.134761
    34  H    0.155667
    35  N   -0.086888
    36  C   -0.298794
    37  C   -0.293830
    38  H    0.153373
    39  H    0.143099
    40  H    0.132055
    41  H    0.139302
    42  H    0.133489
    43  H    0.132384
 Sum of Mulliken charges =  -0.00000

 Dipole moment (field-independent basis, Debye):
    X=             -0.5804    Y=             -1.2482    Z=              2.0829  Tot=              2.4967
 Quadrupole moment (field-independent basis, Debye-Ang):
   XX=           -127.2138   YY=           -137.1943   ZZ=           -120.9320
   XY=              4.4324   XZ=             -1.2608   YZ=             -8.9234

  Exact polarizability: 396.063 -16.000 307.021 -16.094  12.398 330.068
 Approx polarizability: 299.422 -15.693 246.585 -10.750  16.066 284.784

 ******    1 imaginary frequencies (negative Signs) ******

                      1                      2                      3
                      A                      A                      A
 Frequencies --   -363.5125                26.5753                36.3868
 Red. masses --      6.3678                 4.7968                 4.3955
 Frc consts  --      0.4958                 0.0020                 0.0034
 IR Inten    --    897.7557                 1.4672                 1.8596

                      4                      5                      6
                      A                      A                      A
 Frequencies --     43.6789                60.1027                71.4528
 Red. masses --      4.1416                 3.5418                 3.5592
 Frc consts  --      0.0047                 0.0075                 0.0107
 IR Inten    --      1.8627                 0.3525                 1.5452

                      7                      8                      9
                      A                      A                      A
 Frequencies --     90.9245                98.3935               104.0537
 Red. masses --      3.3726                 3.3632                 1.3952
 Frc consts  --      0.0164                 0.0192                 0.0089
 IR Inten    --      2.5144                11.6654                 1.2828

                     10                     11                     12
                      A                      A                      A
 Frequencies --    114.0598               127.1109               149.5013
 Red. masses --      1.3488                 2.1267                 3.7001
 Frc consts  --      0.0103                 0.0202                 0.0487
 IR Inten    --      0.4763                13.5143                 1.6504

                     13                     14                     15
                      A                      A                      A
 Frequencies --    175.1453               177.7084               204.7865
 Red. masses --      3.0789                 5.3703                 1.7687
 Frc consts  --      0.0556                 0.0999                 0.0437
 IR Inten    --      1.1446                 8.6774                13.0334

                     16                     17                     18
                      A                      A                      A
 Frequencies --    211.3446               236.8796               241.6620
 Red. masses --      2.8608                 3.1110                 5.5313
 Frc consts  --      0.0753                 0.1028                 0.1903
 IR Inten    --      5.6463                 3.1038                 2.0886

                     19                     20                     21
                      A                      A                      A
 Frequencies --    256.8789               265.0935               292.1319
 Red. masses --      4.4900                 3.0788                 3.3041
 Frc consts  --      0.1746                 0.1275                 0.1661
 IR Inten    --      2.6881                 1.9220                 2.1778

                     22                     23                     24
                      A                      A                      A
 Frequencies --    312.8793               332.7102               369.7940
 Red. masses --      3.4189                 3.8375                 5.4063
 Frc consts  --      0.1972                 0.2503                 0.4356
 IR Inten    --     51.2049                11.5505                54.1159

                     25                     26                     27
                      A                      A                      A
 Frequencies --    404.0390               425.3944               426.9179
 Red. masses --      4.1723                 2.9698                 2.8962
 Frc consts  --      0.4013                 0.3166                 0.3110
 IR Inten    --     30.1763                 3.3726                 1.2136

                     28                     29                     30
                      A                      A                      A
 Frequencies --    439.2589               482.5574               507.8081
 Red. masses --      3.8860                 4.4426                 4.2291
 Frc consts  --      0.4418                 0.6095                 0.6425
 IR Inten    --     32.5961                20.1218                32.0385

                     31                     32                     33
                      A                      A                      A
 Frequencies --    521.5629               578.7399               623.3418
 Red. masses --      3.6522                 4.7594                 5.4791
 Frc consts  --      0.5853                 0.9392                 1.2543
 IR Inten    --    100.8772               115.2181                24.4464

                     34                     35                     36
                      A                      A                      A
 Frequencies --    638.2760               642.0490               660.1990
 Red. masses --      6.3305                 5.7570                 4.9933
 Frc consts  --      1.5195                 1.3982                 1.2823
 IR Inten    --      4.5992                 2.0570                79.2255

                     37                     38                     39
                      A                      A                      A
 Frequencies --    703.0890               725.6267               726.8601
 Red. masses --      4.5951                 1.8193                 1.5419
 Frc consts  --      1.3383                 0.5644                 0.4800
 IR Inten    --     23.3554                23.9167               140.0787

                     40                     41                     42
                      A                      A                      A
 Frequencies --    733.1342               753.9612               785.2092
 Red. masses --      2.1341                 2.4136                 2.6910
 Frc consts  --      0.6758                 0.8084                 0.9775
 IR Inten    --     40.7475                29.2165               106.7799

                     43                     44                     45
                      A                      A                      A
 Frequencies --    798.2121               825.7470               872.1673
 Red. masses --      2.8684                 3.4965                 1.2522
 Frc consts  --      1.0768                 1.4047                 0.5612
 IR Inten    --     68.8874                31.9793                 1.2692

                     46                     47                     48
                      A                      A                      A
 Frequencies --    875.5670               890.8337               946.4664
 Red. masses --      1.2677                 3.4482                 1.7857
 Frc consts  --      0.5726                 1.6123                 0.9425
 IR Inten    --      1.5836                59.9397                27.9689

                     49                     50                     51
                      A                      A                      A
 Frequencies --    955.2001               974.7168              1009.9550
 Red. masses --      1.5809                 2.1549                 1.3770
 Frc consts  --      0.8498                 1.2062                 0.8276
 IR Inten    --     10.5112                27.5116                 0.4663

                     52                     53                     54
                      A                      A                      A
 Frequencies --   1010.3196              1020.9996              1024.3020
 Red. masses --      1.3772                 1.2996                 6.0207
 Frc consts  --      0.8282                 0.7982                 3.7218
 IR Inten    --      0.6356                 0.2302                 0.4815

                     55                     56                     57
                      A                      A                      A
 Frequencies --   1026.4059              1029.2513              1042.2300
 Red. masses --      4.9740                 1.3401                 2.9506
 Frc consts  --      3.0874                 0.8364                 1.8884
 IR Inten    --      1.5723                 0.6607                49.5241

                     58                     59                     60
                      A                      A                      A
 Frequencies --   1043.0544              1063.1885              1066.0862
 Red. masses --      1.9847                 1.9014                 1.8584
 Frc consts  --      1.2722                 1.2663                 1.2444
 IR Inten    --     20.7738                 4.4255                57.1233

                     61                     62                     63
                      A                      A                      A
 Frequencies --   1082.5087              1088.2331              1101.4882
 Red. masses --      1.5376                 1.3712                 1.7172
 Frc consts  --      1.0616                 0.9567                 1.2276
 IR Inten    --      4.1693                15.8479               294.7960

                     64                     65                     66
                      A                      A                      A
 Frequencies --   1109.2648              1124.7117              1134.0100
 Red. masses --      1.5772                 1.6198                 1.2282
 Frc consts  --      1.1434                 1.2072                 0.9306
 IR Inten    --     20.1295                38.7614                 0.4944

                     67                     68                     69
                      A                      A                      A
 Frequencies --   1167.7403              1176.0688              1180.2454
 Red. masses --      1.6765                 1.9875                 1.1269
 Frc consts  --      1.3470                 1.6197                 0.9249
 IR Inten    --      0.6037                 6.3228                 0.7881

                     70                     71                     72
                      A                      A                      A
 Frequencies --   1185.2640              1209.3298              1217.5272
 Red. masses --      1.1306                 1.1245                 1.1234
 Frc consts  --      0.9358                 0.9690                 0.9811
 IR Inten    --      0.7176                 0.8699                 5.3832

                     73                     74                     75
                      A                      A                      A
 Frequencies --   1226.8846              1250.4148              1281.9888
 Red. masses --      2.7281                 1.6312                 4.0683
 Frc consts  --      2.4194                 1.5027                 3.9394
 IR Inten    --    270.6763                97.3892               269.3564

                     76                     77                     78
                      A                      A                      A
 Frequencies --   1309.9417              1320.7269              1326.6134
 Red. masses --      5.0498                 5.5830                 4.2574
 Frc consts  --      5.1054                 5.7378                 4.4146
 IR Inten    --      8.3790               130.5191                 5.5246

                     79                     80                     81
                      A                      A                      A
 Frequencies --   1345.2859              1359.5148              1361.3427
 Red. masses --      1.3160                 1.4484                 1.4398
 Frc consts  --      1.4032                 1.5772                 1.5721
 IR Inten    --     13.4170                 4.2702                10.3369

                     82                     83                     84
                      A                      A                      A
 Frequencies --   1392.8415              1430.6753              1442.3347
 Red. masses --      5.4666                 1.8876                 1.2689
 Frc consts  --      6.2484                 2.2763                 1.5553
 IR Inten    --    602.0358               142.1765                37.9791

                     85                     86                     87
                      A                      A                      A
 Frequencies --   1456.5011              1471.6738              1484.9564
 Red. masses --      1.1844                 1.2311                 1.3289
 Frc consts  --      1.4804                 1.5710                 1.7266
 IR Inten    --      7.2533                61.9988                 5.4996

                     88                     89                     90
                      A                      A                      A
 Frequencies --   1486.5391              1488.5258              1489.5095
 Red. masses --      1.5197                 2.1390                 1.0907
 Frc consts  --      1.9786                 2.7923                 1.4258
 IR Inten    --     10.6263                18.8091                30.4473

                     91                     92                     93
                      A                      A                      A
 Frequencies --   1494.4479              1498.8502              1503.0581
 Red. masses --      1.0494                 1.0456                 1.0514
 Frc consts  --      1.3809                 1.3840                 1.3995
 IR Inten    --     25.6427                13.0421                19.3697

                     94                     95                     96
                      A                      A                      A
 Frequencies --   1533.5971              1539.7406              1543.0802
 Red. masses --      1.6072                 2.3054                 2.2488
 Frc consts  --      2.2271                 3.2203                 3.1548
 IR Inten    --    223.4423               123.8782                 9.4126

                     97                     98                     99
                      A                      A                      A
 Frequencies --   1597.9328              1639.7080              1651.5476
 Red. masses --      5.4648                 5.6119                 4.3858
 Frc consts  --      8.2213                 8.8899                 7.0482
 IR Inten    --    828.8488                 7.0536                 8.9442

                    100                    101                    102
                      A                      A                      A
 Frequencies --   1666.7892              1668.5824              1675.4326
 Red. masses --      2.6649                 1.7611                 3.8852
 Frc consts  --      4.3620                 2.8889                 6.4256
 IR Inten    --     63.5473                33.0226                 7.3011

                    103                    104                    105
                      A                      A                      A
 Frequencies --   3026.1974              3031.5192              3073.4959
 Red. masses --      1.0417                 1.0422                 1.0370
 Frc consts  --      5.6206                 5.6431                 5.7716
 IR Inten    --     77.2447               145.9466                56.1908

                    106                    107                    108
                      A                      A                      A
 Frequencies --   3084.4906              3093.0486              3155.5301
 Red. masses --      1.0988                 1.1004                 1.1010
 Frc consts  --      6.1595                 6.2025                 6.4592
 IR Inten    --     90.1576                21.5814                12.2334

                    109                    110                    111
                      A                      A                      A
 Frequencies --   3166.2212              3175.2567              3181.8051
 Red. masses --      1.0983                 1.0978                 1.0870
 Frc consts  --      6.4872                 6.5212                 6.4839
 IR Inten    --     12.4589                 8.8231                13.0141

                    112                    113                    114
                      A                      A                      A
 Frequencies --   3182.8609              3188.9644              3196.8863
 Red. masses --      1.1055                 1.0869                 1.0859
 Frc consts  --      6.5988                 6.5123                 6.5390
 IR Inten    --     10.8139                 1.2941                 0.5080

                    115                    116                    117
                      A                      A                      A
 Frequencies --   3199.0135              3204.6525              3206.3006
 Red. masses --      1.0914                 1.0893                 1.0945
 Frc consts  --      6.5804                 6.5912                 6.6292
 IR Inten    --     20.0595                 5.9604                47.9664

                    118                    119                    120
                      A                      A                      A
 Frequencies --   3213.7640              3217.2290              3223.0469
 Red. masses --      1.0936                 1.0986                 1.0982
 Frc consts  --      6.6549                 6.6998                 6.7216
 IR Inten    --     27.1071                22.2535                20.7180

                    121                    122                    123
                      A                      A                      A
 Frequencies --   3258.8738              3420.7516              3562.3742
 Red. masses --      1.0920                 1.0641                 1.0849
 Frc consts  --      6.8330                 7.3362                 8.1118
 IR Inten    --      8.7066               152.7314                63.7826

 - Thermochemistry -
 -------------------
 Temperature   298.150 Kelvin.  Pressure   1.00000 Atm.
 Atom     1 has atomic number  6 and mass  12.00000

 Molecular mass:   316.13424 amu.
 Principal axes and moments of inertia in atomic units:
                           1         2         3
     Eigenvalues --  4681.004798559.018449936.09048
           X            0.99992   0.01022  -0.00757
           Y           -0.01047   0.99936  -0.03410
           Z            0.00722   0.03418   0.99939
 This molecule is an asymmetric top.
 Rotational symmetry number  1.
 Warning -- assumption of classical behavior for rotation
           may cause significant error
 Rotational temperatures (Kelvin)      0.01850     0.01012     0.00872
 Rotational constants (GHZ):           0.38555     0.21086     0.18163
    1 imaginary frequencies ignored.
 Zero-point vibrational energy     939246.2 (Joules/Mol)
                                  224.48522 (Kcal/Mol)
 Warning -- explicit consideration of  31 degrees of freedom as
           vibrations may cause significant error
 Vibrational temperatures:     38.24    52.35    62.84    86.47   102.80
          (Kelvin)            130.82   141.57   149.71   164.11   182.88
                              215.10   252.00   255.68   294.64   304.08
                              340.82   347.70   369.59   381.41   420.31
                              450.16   478.70   532.05   581.32   612.05
                              614.24   632.00   694.29   730.62   750.41
                              832.68   896.85   918.34   923.77   949.88
                             1011.59  1044.02  1045.79  1054.82  1084.78
                             1129.74  1148.45  1188.07  1254.85  1259.75
                             1281.71  1361.75  1374.32  1402.40  1453.10
                             1453.62  1468.99  1473.74  1476.77  1480.86
                             1499.54  1500.72  1529.69  1533.86  1557.49
                             1565.72  1584.80  1595.98  1618.21  1631.59
                             1680.12  1692.10  1698.11  1705.33  1739.96
                             1751.75  1765.21  1799.07  1844.50  1884.71
                             1900.23  1908.70  1935.57  1956.04  1958.67
                             2003.99  2058.42  2075.20  2095.58  2117.41
                             2136.52  2138.80  2141.66  2143.07  2150.18
                             2156.51  2162.57  2206.50  2215.34  2220.15
                             2299.07  2359.17  2376.21  2398.14  2400.72
                             2410.57  4354.02  4361.68  4422.08  4437.89
                             4450.21  4540.10  4555.49  4568.49  4577.91
                             4579.43  4588.21  4599.61  4602.67  4610.78
                             4613.15  4623.89  4628.87  4637.25  4688.79
                             4921.70  5125.46

 Zero-point correction=                           0.357740 (Hartree/Particle)
 Thermal correction to Energy=                    0.379179
 Thermal correction to Enthalpy=                  0.380123
 Thermal correction to Gibbs Free Energy=         0.306416
 Sum of electronic and zero-point Energies=          -1343.130440
 Sum of electronic and thermal Energies=             -1343.109001
 Sum of electronic and thermal Enthalpies=           -1343.108057
 Sum of electronic and thermal Free Energies=        -1343.181764

                     E (Thermal)             CV                S
                      KCal/Mol        Cal/Mol-Kelvin    Cal/Mol-Kelvin
 Total                  237.938             80.453            155.129
 Electronic               0.000              0.000              0.000
 Translational            0.889              2.981             43.149
 Rotational               0.889              2.981             34.342
 Vibrational            236.161             74.491             77.639
 Vibration     1          0.593              1.984              6.070
 Vibration     2          0.594              1.982              5.447
 Vibration     3          0.595              1.980              5.085
 Vibration     4          0.597              1.973              4.454
 Vibration     5          0.598              1.968              4.113
 Vibration     6          0.602              1.956              3.640
 Vibration     7          0.604              1.950              3.486
 Vibration     8          0.605              1.946              3.377
 Vibration     9          0.607              1.938              3.199
 Vibration    10          0.611              1.926              2.989
 Vibration    11          0.618              1.903              2.679
 Vibration    12          0.627              1.873              2.380
 Vibration    13          0.628              1.870              2.352
 Vibration    14          0.640              1.833              2.090
 Vibration    15          0.643              1.824              2.032
 Vibration    16          0.656              1.784              1.826
 Vibration    17          0.658              1.777              1.791
 Vibration    18          0.666              1.751              1.683
 Vibration    19          0.671              1.737              1.628
 Vibration    20          0.688              1.688              1.462
 Vibration    21          0.701              1.649              1.347
 Vibration    22          0.715              1.610              1.247
 Vibration    23          0.742              1.534              1.081
 Vibration    24          0.769              1.461              0.948
 Vibration    25          0.787              1.415              0.874
 Vibration    26          0.789              1.412              0.869
 Vibration    27          0.799              1.385              0.829
 Vibration    28          0.839              1.289              0.703
 Vibration    29          0.863              1.233              0.639
 Vibration    30          0.877              1.202              0.606
 Vibration    31          0.935              1.077              0.488

 Optimization completed.
    -- Stationary point found.
 Normal termination of Gaussian 16 at Fri Apr 16 19:06:48 2021.
