 Gaussian 16, Revision A.03,
 Gaussian 16:  ES64L-G16RevA.03 25-Dec-2016

 ----------------------------------------------------------------------
 # wB97XD def2tzvp, opt=(ts, noeigen, calcfc, maxcycles=70, maxstep=5),
  freq=noraman, scrf=(iefpcm, solvent=water)
 ----------------------------------------------------------------------

 -----------------------
 2_iteration/TS-84-2.out
 -----------------------
 Symbolic Z-matrix:
 Charge =  0 Multiplicity = 1

 SCF Done:  E(RwB97XD) =  -903.765364922     A.U. after   15 cycles
 SCF Done:  E(RwB97XD) =  -903.765401726     A.U. after   12 cycles
 SCF Done:  E(RwB97XD) =  -903.765401981     A.U. after    8 cycles
 SCF Done:  E(RwB97XD) =  -903.765401572     A.U. after    7 cycles
 Optimization completed.
    -- Stationary point found.
 Normal termination of Gaussian 16 at Sat Apr 17 17:26:23 2021.

 ---------------------------------------------------------------------
 #N Geom=AllCheck Guess=TCheck SCRF=Check GenChk RwB97XD/def2TZVP Freq
 ---------------------------------------------------------------------

 Structure from the checkpoint file:  "/beegfs/scratch/user/q/tla25/Gau-352804.chk"
 -----------------------
 2_iteration/TS-84-2.out
 -----------------------
 Charge =  0 Multiplicity = 1

                         Standard orientation:
 ---------------------------------------------------------------------
 Center     Atomic      Atomic             Coordinates (Angstroms)
 Number     Number       Type             X           Y           Z
 ---------------------------------------------------------------------
      1          6           0       -0.955774    0.334156   -0.278290
      2          6           0       -2.351183    0.635719   -0.286924
      3          8           0       -2.858683    1.749532   -0.375312
      4          6           0       -0.438714   -0.997374   -0.376895
      5          6           0       -0.600006   -3.270219    1.500434
      6          1           0       -0.943617   -3.590528    2.484974
      7          1           0       -1.012332   -3.940826    0.750179
      8          1           0        0.487377   -3.324607    1.467451
      9          7           0       -1.019572   -1.900880    1.210315
     10          1           0       -2.025316   -1.817300    1.097611
     11          1           0       -0.748736   -1.263415    1.948993
     12          6           0        1.056946   -1.146882   -0.225495
     13          6           0        1.705433   -0.701661    0.927065
     14          6           0        3.074035   -0.829952    1.075340
     15          6           0        3.834876   -1.400268    0.062718
     16          6           0        3.206654   -1.846482   -1.087194
     17          6           0        1.829221   -1.729594   -1.224299
     18          1           0        1.138727   -0.226389    1.717114
     19          1           0        3.549754   -0.478440    1.982080
     20          1           0        4.907420   -1.496653    0.173355
     21          1           0        3.785586   -2.293409   -1.885486
     22          1           0        1.367183   -2.086563   -2.133928
     23          6           0       -1.037971   -1.959184   -1.386284
     24          1           0       -0.774369   -1.611561   -2.386409
     25          1           0       -0.648413   -2.969850   -1.269017
     26          1           0       -2.119558   -1.980295   -1.321097
     27          6           0       -0.056483    1.509802   -0.111653
     28          6           0        0.903710    1.827676   -1.073468
     29          6           0        1.763493    2.904686   -0.911934
     30          6           0        1.669946    3.708728    0.214767
     31          6           0        0.705518    3.423621    1.173011
     32          6           0       -0.141960    2.339342    1.008474
     33          1           0        0.983800    1.208466   -1.959102
     34          1           0        2.504573    3.119683   -1.672492
     35          1           0        2.338338    4.550893    0.344211
     36          1           0        0.620523    4.043746    2.057448
     37          1           0       -0.881521    2.117755    1.769065
     38          8           0       -3.169205   -0.454915   -0.123355
     39          6           0       -4.566384   -0.217048   -0.178581
     40          1           0       -4.852174    0.229709   -1.131400
     41          1           0       -5.038337   -1.191286   -0.071890
     42          1           0       -4.886933    0.439699    0.630716
 ---------------------------------------------------------------------

 SCF Done:  E(RwB97XD) =  -903.765401572     A.U. after    1 cycles

 The electronic state is 1-A.
 Alpha  occ. eigenvalues --  -19.27660 -19.20201 -14.47985 -10.38614 -10.35763
 Alpha  occ. eigenvalues --  -10.32407 -10.31646 -10.30443 -10.29262 -10.29247
 Alpha  occ. eigenvalues --  -10.29194 -10.29148 -10.29112 -10.28994 -10.28205
 Alpha  occ. eigenvalues --  -10.28185 -10.28078 -10.27699 -10.27692 -10.27443
 Alpha  occ. eigenvalues --  -10.25421  -1.18612  -1.08832  -1.03741  -0.97480
 Alpha  occ. eigenvalues --   -0.95674  -0.91688  -0.86345  -0.85409  -0.84098
 Alpha  occ. eigenvalues --   -0.83964  -0.81844  -0.79131  -0.77477  -0.72862
 Alpha  occ. eigenvalues --   -0.70528  -0.69377  -0.68612  -0.66717  -0.63988
 Alpha  occ. eigenvalues --   -0.62986  -0.61016  -0.59949  -0.58427  -0.56750
 Alpha  occ. eigenvalues --   -0.56373  -0.56035  -0.54682  -0.54224  -0.53588
 Alpha  occ. eigenvalues --   -0.53183  -0.52233  -0.51788  -0.51201  -0.50150
 Alpha  occ. eigenvalues --   -0.49863  -0.48832  -0.48428  -0.47043  -0.46957
 Alpha  occ. eigenvalues --   -0.46727  -0.46264  -0.45192  -0.43579  -0.43379
 Alpha  occ. eigenvalues --   -0.42274  -0.41707  -0.41343  -0.40647  -0.37446
 Alpha  occ. eigenvalues --   -0.34952  -0.34348  -0.33788  -0.32719  -0.32039
 Alpha  occ. eigenvalues --   -0.25652
 Alpha virt. eigenvalues --    0.02603   0.04688   0.06110   0.06383   0.08478
 Alpha virt. eigenvalues --    0.09997   0.12581   0.12934   0.13321   0.13867
 Alpha virt. eigenvalues --    0.14967   0.15890   0.16034   0.16588   0.16908

 Mulliken charges:
               1
     1  C   -0.261208
     2  C    0.365242
     3  O   -0.515400
     4  C    0.273692
     5  C   -0.297455
     6  H    0.154554
     7  H    0.156922
     8  H    0.156507
     9  N   -0.304545
    10  H    0.279382
    11  H    0.266484
    12  C    0.122155
    13  C   -0.294062
    14  C   -0.165825
    15  C   -0.129797
    16  C   -0.161596
    17  C   -0.216677
    18  H    0.167356
    19  H    0.141882
    20  H    0.144269
    21  H    0.141933
    22  H    0.154389
    23  C   -0.451391
    24  H    0.149880
    25  H    0.148917
    26  H    0.171651
    27  C    0.253087
    28  C   -0.213407
    29  C   -0.176567
    30  C   -0.145044
    31  C   -0.144564
    32  C   -0.284254
    33  H    0.139469
    34  H    0.133029
    35  H    0.137577
    36  H    0.134046
    37  H    0.129876
    38  O   -0.347260
    39  C   -0.200725
    40  H    0.126346
    41  H    0.135882
    42  H    0.125252
 Sum of Mulliken charges =  -0.00000

 Dipole moment (field-independent basis, Debye):
    X=              1.7796    Y=             -9.6945    Z=              3.5986  Tot=             10.4928
 Quadrupole moment (field-independent basis, Debye-Ang):
   XX=           -118.3777   YY=           -124.1968   ZZ=           -112.8327
   XY=             16.7841   XZ=             -6.6102   YZ=              1.5815

  Exact polarizability: 351.591   1.140 323.046  -9.639  16.736 283.112
 Approx polarizability: 269.790   3.434 250.748  -9.865  17.163 246.050

 ******    1 imaginary frequencies (negative Signs) ******

                      1                      2                      3
                      A                      A                      A
 Frequencies --   -359.8645                31.8169                40.7913
 Red. masses --      6.0295                 4.1920                 4.3605
 Frc consts  --      0.4601                 0.0025                 0.0043
 IR Inten    --    825.0418                 3.1864                 1.3267

                      4                      5                      6
                      A                      A                      A
 Frequencies --     59.2636                65.1547                72.4466
 Red. masses --      3.7454                 3.2779                 2.6755
 Frc consts  --      0.0078                 0.0082                 0.0083
 IR Inten    --      1.4222                 0.4309                 2.7224

                      7                      8                      9
                      A                      A                      A
 Frequencies --     80.3745                89.5376                99.3174
 Red. masses --      3.1957                 3.5305                 3.6971
 Frc consts  --      0.0122                 0.0167                 0.0215
 IR Inten    --      5.9901                 2.4259                 2.5954

                     10                     11                     12
                      A                      A                      A
 Frequencies --    124.4157               152.0759               165.8276
 Red. masses --      2.1664                 1.8735                 1.8915
 Frc consts  --      0.0198                 0.0255                 0.0306
 IR Inten    --      7.5259                 0.8560                 0.2484

                     13                     14                     15
                      A                      A                      A
 Frequencies --    184.5375               208.7319               238.1964
 Red. masses --      3.1763                 1.6608                 3.5011
 Frc consts  --      0.0637                 0.0426                 0.1170
 IR Inten    --      2.8172                 4.9464                 0.1477

                     16                     17                     18
                      A                      A                      A
 Frequencies --    274.1863               283.0599               295.3182
 Red. masses --      4.3699                 3.0568                 4.4632
 Frc consts  --      0.1936                 0.1443                 0.2293
 IR Inten    --      6.7423                12.0605                10.2274

                     19                     20                     21
                      A                      A                      A
 Frequencies --    306.3869               322.5081               339.0661
 Red. masses --      3.0985                 3.7722                 1.2292
 Frc consts  --      0.1714                 0.2312                 0.0833
 IR Inten    --     10.5291                57.6235                 0.6083

                     22                     23                     24
                      A                      A                      A
 Frequencies --    363.0777               397.4185               421.3097
 Red. masses --      3.3336                 4.5750                 2.9569
 Frc consts  --      0.2589                 0.4257                 0.3092
 IR Inten    --      3.5642                 9.1737                 2.3939

                     25                     26                     27
                      A                      A                      A
 Frequencies --    425.0548               428.6795               464.2537
 Red. masses --      3.1105                 3.6748                 3.8750
 Frc consts  --      0.3311                 0.3979                 0.4921
 IR Inten    --     10.0110                36.5725                 9.1305

                     28                     29                     30
                      A                      A                      A
 Frequencies --    516.4531               552.3510               580.7635
 Red. masses --      3.9052                 3.8091                 3.4804
 Frc consts  --      0.6137                 0.6847                 0.6916
 IR Inten    --     51.1300                30.2741                94.7307

                     31                     32                     33
                      A                      A                      A
 Frequencies --    637.6237               638.4044               646.1249
 Red. masses --      5.9698                 6.2791                 4.7681
 Frc consts  --      1.4300                 1.5078                 1.1728
 IR Inten    --      4.7195                 0.4002                32.2184

                     34                     35                     36
                      A                      A                      A
 Frequencies --    675.5678               702.1526               725.1992
 Red. masses --      5.4490                 1.3824                 1.5677
 Frc consts  --      1.4652                 0.4015                 0.4858
 IR Inten    --     33.5490                51.9069                79.6284

                     37                     38                     39
                      A                      A                      A
 Frequencies --    729.3647               745.2854               795.0847
 Red. masses --      1.4446                 4.3804                 3.9252
 Frc consts  --      0.4528                 1.4335                 1.4620
 IR Inten    --    108.3398                 0.7022                40.5888

                     40                     41                     42
                      A                      A                      A
 Frequencies --    802.8089               803.3982               854.6288
 Red. masses --      3.3139                 2.5622                 2.9756
 Frc consts  --      1.2584                 0.9744                 1.2805
 IR Inten    --     47.1278                27.7397                23.2687

                     43                     44                     45
                      A                      A                      A
 Frequencies --    873.6841               876.6530               912.4030
 Red. masses --      1.2570                 1.2487                 4.7722
 Frc consts  --      0.5653                 0.5654                 2.3407
 IR Inten    --      1.7027                 0.8910                50.5377

                     46                     47                     48
                      A                      A                      A
 Frequencies --    947.9173               961.0145              1007.6108
 Red. masses --      1.5365                 1.4301                 1.3773
 Frc consts  --      0.8135                 0.7782                 0.8239
 IR Inten    --      2.4950                 5.8185                 1.1045

                     49                     50                     51
                      A                      A                      A
 Frequencies --   1013.5277              1015.6051              1019.8573
 Red. masses --      1.3668                 1.4173                 1.2620
 Frc consts  --      0.8272                 0.8613                 0.7734
 IR Inten    --     17.5065                37.0285                 0.7887

                     52                     53                     54
                      A                      A                      A
 Frequencies --   1024.6432              1026.4996              1028.6043
 Red. masses --      3.2380                 3.4595                 2.5629
 Frc consts  --      2.0030                 2.1477                 1.5976
 IR Inten    --     43.3018                37.0178               104.6474

                     55                     56                     57
                      A                      A                      A
 Frequencies --   1031.5535              1052.5269              1056.6347
 Red. masses --      1.3537                 1.6474                 2.1417
 Frc consts  --      0.8487                 1.0753                 1.4088
 IR Inten    --      0.0924                17.8009                40.9768

                     58                     59                     60
                      A                      A                      A
 Frequencies --   1062.3844              1073.6171              1090.1411
 Red. masses --      2.4686                 1.6901                 2.4874
 Frc consts  --      1.6416                 1.1478                 1.7416
 IR Inten    --      7.8971                27.3255                79.4216

                     61                     62                     63
                      A                      A                      A
 Frequencies --   1105.4323              1109.1373              1124.9717
 Red. masses --      2.0309                 1.7353                 2.4950
 Frc consts  --      1.4622                 1.2577                 1.8604
 IR Inten    --     71.1217                31.0458               118.7483

                     64                     65                     66
                      A                      A                      A
 Frequencies --   1135.7044              1178.9321              1181.9268
 Red. masses --      2.0772                 1.1273                 1.2822
 Frc consts  --      1.5785                 0.9231                 1.0554
 IR Inten    --    100.5987                 0.7288                 1.4212

                     67                     68                     69
                      A                      A                      A
 Frequencies --   1186.7382              1206.6811              1209.3089
 Red. masses --      1.1264                 1.1242                 1.5388
 Frc consts  --      0.9346                 0.9644                 1.3259
 IR Inten    --      0.3084                 0.5239               159.6778

                     70                     71                     72
                      A                      A                      A
 Frequencies --   1223.5905              1228.2270              1233.1923
 Red. masses --      1.2128                 3.3640                 1.4111
 Frc consts  --      1.0699                 2.9900                 1.2644
 IR Inten    --     18.5653               243.8687                97.5543

                     73                     74                     75
                      A                      A                      A
 Frequencies --   1261.8263              1307.1380              1322.4792
 Red. masses --      4.1442                 4.4015                 4.7866
 Frc consts  --      3.8877                 4.4310                 4.9323
 IR Inten    --     84.4978                28.2805                36.0245

                     76                     77                     78
                      A                      A                      A
 Frequencies --   1337.3042              1355.1273              1369.1445
 Red. masses --      1.4563                 1.5970                 2.0980
 Frc consts  --      1.5345                 1.7279                 2.3171
 IR Inten    --     34.9452                77.4610               367.9633

                     79                     80                     81
                      A                      A                      A
 Frequencies --   1373.0840              1397.9922              1417.4412
 Red. masses --      1.8348                 3.1414                 1.3737
 Frc consts  --      2.0381                 3.6173                 1.6261
 IR Inten    --    254.9051               291.4060                80.6867

                     82                     83                     84
                      A                      A                      A
 Frequencies --   1460.6818              1476.2152              1480.7704
 Red. masses --      1.1991                 1.1675                 1.0612
 Frc consts  --      1.5073                 1.4990                 1.3710
 IR Inten    --      6.1558                56.4187                18.1088

                     85                     86                     87
                      A                      A                      A
 Frequencies --   1486.6154              1490.9678              1494.3424
 Red. masses --      2.1977                 1.2437                 1.2432
 Frc consts  --      2.8616                 1.6290                 1.6356
 IR Inten    --      3.8713                16.4322                 7.3650

                     88                     89                     90
                      A                      A                      A
 Frequencies --   1496.9286              1502.4691              1508.0112
 Red. masses --      1.2401                 1.1364                 1.0463
 Frc consts  --      1.6373                 1.5115                 1.4019
 IR Inten    --      8.3638                43.4552                 6.8287

                     91                     92                     93
                      A                      A                      A
 Frequencies --   1515.1799              1541.1028              1549.7252
 Red. masses --      1.0998                 2.4113                 2.2398
 Frc consts  --      1.4876                 3.3741                 3.1694
 IR Inten    --     45.3403                71.4521                 7.2541

                     94                     95                     96
                      A                      A                      A
 Frequencies --   1641.0601              1652.3810              1655.1915
 Red. masses --      5.7077                 1.9235                 2.6040
 Frc consts  --      9.0565                 3.0943                 4.2032
 IR Inten    --      2.1184               398.6051               131.1262

                     97                     98                     99
                      A                      A                      A
 Frequencies --   1659.8477              1675.6075              1678.6340
 Red. masses --      3.3345                 6.5071                 5.8587
 Frc consts  --      5.4127                10.7642                 9.7267
 IR Inten    --    321.5180               533.4576                31.0994

                    100                    101                    102
                      A                      A                      A
 Frequencies --   3059.5853              3067.0436              3075.5322
 Red. masses --      1.0306                 1.0354                 1.0416
 Frc consts  --      5.6840                 5.7387                 5.8050
 IR Inten    --     81.5044                50.1670                28.2177

                    103                    104                    105
                      A                      A                      A
 Frequencies --   3133.6816              3139.6748              3143.1640
 Red. masses --      1.1065                 1.1012                 1.1028
 Frc consts  --      6.4018                 6.3959                 6.4192
 IR Inten    --     42.6934                35.1339                14.5945

                    106                    107                    108
                      A                      A                      A
 Frequencies --   3163.6866              3172.5275              3183.6199
 Red. masses --      1.1053                 1.1045                 1.0853
 Frc consts  --      6.5178                 6.5495                 6.4810
 IR Inten    --     28.2670                16.1642                10.3063

                    109                    110                    111
                      A                      A                      A
 Frequencies --   3187.4812              3196.3736              3198.1214
 Red. masses --      1.0877                 1.0858                 1.0913
 Frc consts  --      6.5110                 6.5363                 6.5765
 IR Inten    --      0.4244                 1.8295                17.1909

                    112                    113                    114
                      A                      A                      A
 Frequencies --   3203.4479              3203.6332              3207.7521
 Red. masses --      1.0946                 1.0893                 1.0971
 Frc consts  --      6.6184                 6.5871                 6.6511
 IR Inten    --     53.7329                11.2403                 6.7700

                    115                    116                    117
                      A                      A                      A
 Frequencies --   3212.6766              3215.8553              3222.1420
 Red. masses --      1.0932                 1.0986                 1.0970
 Frc consts  --      6.6479                 6.6942                 6.7102
 IR Inten    --     29.2062                22.7827                22.3195

                    118                    119                    120
                      A                      A                      A
 Frequencies --   3232.8461              3505.5904              3596.5839
 Red. masses --      1.0939                 1.0553                 1.0927
 Frc consts  --      6.7360                 7.6410                 8.3280
 IR Inten    --     10.3060                59.7191                56.7591

 - Thermochemistry -
 -------------------
 Temperature   298.150 Kelvin.  Pressure   1.00000 Atm.
 Atom     1 has atomic number  6 and mass  12.00000

 Molecular mass:   283.15723 amu.
 Principal axes and moments of inertia in atomic units:
                           1         2         3
     Eigenvalues --  4760.911915851.952768888.21228
           X            0.99787   0.06518  -0.00309
           Y           -0.06518   0.99787   0.00254
           Z            0.00325  -0.00233   0.99999
 This molecule is an asymmetric top.
 Rotational symmetry number  1.
 Warning -- assumption of classical behavior for rotation
           may cause significant error
 Rotational temperatures (Kelvin)      0.01819     0.01480     0.00974
 Rotational constants (GHZ):           0.37907     0.30840     0.20305
    1 imaginary frequencies ignored.
 Zero-point vibrational energy     932878.0 (Joules/Mol)
                                  222.96320 (Kcal/Mol)
 Warning -- explicit consideration of  29 degrees of freedom as
           vibrations may cause significant error
 Vibrational temperatures:     45.78    58.69    85.27    93.74   104.23
          (Kelvin)            115.64   128.82   142.90   179.01   218.80
                              238.59   265.51   300.32   342.71   394.49
                              407.26   424.90   440.82   464.02   487.84
                              522.39   571.80   606.17   611.56   616.77
                              667.96   743.06   794.71   835.59   917.40
                              918.52   929.63   971.99  1010.24  1043.40
                             1049.39  1072.30  1143.95  1155.06  1155.91
                             1229.62  1257.04  1261.31  1312.74  1363.84
                             1382.69  1449.73  1458.24  1461.23  1467.35
                             1474.23  1476.90  1479.93  1484.18  1514.35
                             1520.26  1528.53  1544.70  1568.47  1590.47
                             1595.80  1618.58  1634.03  1696.22  1700.53
                             1707.45  1736.15  1739.93  1760.47  1767.14
                             1774.29  1815.49  1880.68  1902.75  1924.08
                             1949.73  1969.89  1975.56  2011.40  2039.38
                             2101.60  2123.94  2130.50  2138.91  2145.17
                             2150.03  2153.75  2161.72  2169.69  2180.01
                             2217.30  2229.71  2361.12  2377.41  2381.45
                             2388.15  2410.83  2415.18  4402.06  4412.79
                             4425.00  4508.67  4517.29  4522.31  4551.84
                             4564.56  4580.52  4586.07  4598.87  4601.38
                             4609.05  4609.31  4615.24  4622.33  4626.90
                             4635.94  4651.34  5043.76  5174.68

 Zero-point correction=                           0.355314 (Hartree/Particle)
 Thermal correction to Energy=                    0.375271
 Thermal correction to Enthalpy=                  0.376215
 Thermal correction to Gibbs Free Energy=         0.306190
 Sum of electronic and zero-point Energies=           -903.410087
 Sum of electronic and thermal Energies=              -903.390131
 Sum of electronic and thermal Enthalpies=            -903.389187
 Sum of electronic and thermal Free Energies=         -903.459211

                     E (Thermal)             CV                S
                      KCal/Mol        Cal/Mol-Kelvin    Cal/Mol-Kelvin
 Total                  235.486             76.036            147.380
 Electronic               0.000              0.000              0.000
 Translational            0.889              2.981             42.821
 Rotational               0.889              2.981             33.870
 Vibrational            233.708             70.075             70.689
 Vibration     1          0.594              1.983              5.713
 Vibration     2          0.594              1.981              5.220
 Vibration     3          0.597              1.974              4.482
 Vibration     4          0.597              1.971              4.295
 Vibration     5          0.599              1.967              4.086
 Vibration     6          0.600              1.962              3.882
 Vibration     7          0.602              1.957              3.670
 Vibration     8          0.604              1.950              3.468
 Vibration     9          0.610              1.929              3.031
 Vibration    10          0.619              1.900              2.646
 Vibration    11          0.624              1.884              2.482
 Vibration    12          0.631              1.861              2.282
 Vibration    13          0.642              1.827              2.055
 Vibration    14          0.656              1.782              1.816
 Vibration    15          0.677              1.721              1.570
 Vibration    16          0.682              1.705              1.515
 Vibration    17          0.690              1.682              1.443
 Vibration    18          0.697              1.662              1.382
 Vibration    19          0.708              1.630              1.297
 Vibration    20          0.719              1.597              1.217
 Vibration    21          0.737              1.548              1.109
 Vibration    22          0.764              1.476              0.972
 Vibration    23          0.784              1.424              0.888
 Vibration    24          0.787              1.416              0.875
 Vibration    25          0.790              1.408              0.863
 Vibration    26          0.822              1.329              0.754
 Vibration    27          0.871              1.214              0.618
 Vibration    28          0.908              1.135              0.539
 Vibration    29          0.937              1.073              0.484

 Optimization completed.
    -- Stationary point found.
 Normal termination of Gaussian 16 at Sat Apr 17 18:54:30 2021.
