 Gaussian 16, Revision A.03,
 Gaussian 16:  ES64L-G16RevA.03 25-Dec-2016

 ----------------------------------------------------------------------
 # wB97XD def2tzvp, opt=(ts, noeigen, calcfc, maxcycles=70, maxstep=8),
  freq=noraman, scrf=(iefpcm, solvent=water)
 ----------------------------------------------------------------------

 ------------------------
 1_iteration/TS-844-1.out
 ------------------------
 Symbolic Z-matrix:
 Charge =  0 Multiplicity = 1

 SCF Done:  E(RwB97XD) =  -1093.01033377     A.U. after   14 cycles
 SCF Done:  E(RwB97XD) =  -1093.01033366     A.U. after    8 cycles
 Optimization completed.
    -- Stationary point found.
 Normal termination of Gaussian 16 at Fri Feb 26 02:17:29 2021.

 ---------------------------------------------------------------------
 #N Geom=AllCheck Guess=TCheck SCRF=Check GenChk RwB97XD/def2TZVP Freq
 ---------------------------------------------------------------------

 Structure from the checkpoint file:  "/beegfs/scratch/user/q/tla25/Gau-81104.chk"
 ------------------------
 1_iteration/TS-844-1.out
 ------------------------
 Charge =  0 Multiplicity = 1

                         Standard orientation:
 ---------------------------------------------------------------------
 Center     Atomic      Atomic             Coordinates (Angstroms)
 Number     Number       Type             X           Y           Z
 ---------------------------------------------------------------------
      1          6           0       -0.257095    0.392326   -0.247878
      2          6           0       -0.437337    1.814610   -0.133286
      3          8           0       -1.505526    2.409280   -0.236100
      4          6           0       -1.427128   -0.302413   -0.531772
      5          6           0       -3.856839   -1.035241    0.779609
      6          1           0       -4.408223   -1.164267    1.710995
      7          1           0       -4.310694   -0.227672    0.206892
      8          1           0       -3.909958   -1.955315    0.201275
      9          7           0       -2.453554   -0.708643    1.026200
     10          1           0       -2.355847    0.145147    1.564045
     11          1           0       -1.976760   -1.452212    1.523255
     12         17           0       -1.323951   -1.909380   -1.242378
     13          1           0       -2.239065    0.262620   -0.968776
     14          6           0        1.045338   -0.269463   -0.003155
     15          6           0        2.157492    0.020666   -0.796906
     16          6           0        3.374077   -0.608766   -0.587940
     17          6           0        3.508035   -1.558107    0.417029
     18          6           0        2.414156   -1.862558    1.212640
     19          6           0        1.201628   -1.219038    1.007194
     20          1           0        2.060539    0.751511   -1.589943
     21          1           0        4.220078   -0.364044   -1.218647
     22          1           0        4.456758   -2.054545    0.577717
     23          1           0        2.504344   -2.597137    2.003454
     24          1           0        0.366079   -1.455609    1.654516
     25          8           0        0.706226    2.485567    0.129089
     26          6           0        0.596319    3.896066    0.258611
     27          1           0        1.602761    4.254051    0.461224
     28          1           0        0.220326    4.346442   -0.660407
     29          1           0       -0.065774    4.163722    1.082654
 ---------------------------------------------------------------------

 SCF Done:  E(RwB97XD) =  -1093.01033366     A.U. after    1 cycles

 The electronic state is 1-A.
 Alpha  occ. eigenvalues -- -101.70239 -19.28171 -19.21215 -14.48924 -10.39735
 Alpha  occ. eigenvalues --  -10.38891 -10.32595 -10.32066 -10.29829 -10.28631
 Alpha  occ. eigenvalues --  -10.28571 -10.28488 -10.28440 -10.28243 -10.26756
 Alpha  occ. eigenvalues --   -9.58821  -7.33457  -7.32616  -7.32566  -1.19553
 Alpha  occ. eigenvalues --   -1.09849  -1.04565  -0.97792  -0.95822  -0.88985
 Alpha  occ. eigenvalues --   -0.84613  -0.83270  -0.81367  -0.79049  -0.72024
 Alpha  occ. eigenvalues --   -0.69977  -0.68625  -0.64270  -0.63662  -0.61597
 Alpha  occ. eigenvalues --   -0.59721  -0.56986  -0.56621  -0.55886  -0.54682
 Alpha  occ. eigenvalues --   -0.53669  -0.53294  -0.52553  -0.50436  -0.50321
 Alpha  occ. eigenvalues --   -0.48664  -0.48407  -0.47678  -0.46260  -0.46044
 Alpha  occ. eigenvalues --   -0.44096  -0.42452  -0.42176  -0.40156  -0.39217
 Alpha  occ. eigenvalues --   -0.38013  -0.35861  -0.33373  -0.33271  -0.27210
 Alpha virt. eigenvalues --    0.04973   0.05612   0.06117   0.09768   0.10459
 Alpha virt. eigenvalues --    0.13107   0.13342   0.14337   0.15754   0.16268
 Alpha virt. eigenvalues --    0.16853   0.17174   0.18068   0.18620   0.19026

 Mulliken charges:
               1
     1  C   -0.201192
     2  C    0.425794
     3  O   -0.525206
     4  C   -0.013112
     5  C   -0.279109
     6  H    0.157036
     7  H    0.153073
     8  H    0.151287
     9  N   -0.317000
    10  H    0.286141
    11  H    0.279629
    12  Cl  -0.103771
    13  H    0.179233
    14  C    0.183961
    15  C   -0.257673
    16  C   -0.135681
    17  C   -0.157857
    18  C   -0.144949
    19  C   -0.247216
    20  H    0.133162
    21  H    0.138153
    22  H    0.140661
    23  H    0.137986
    24  H    0.127929
    25  O   -0.300930
    26  C   -0.199292
    27  H    0.136679
    28  H    0.126540
    29  H    0.125725
 Sum of Mulliken charges =  -0.00000

 Dipole moment (field-independent basis, Debye):
    X=             -3.7640    Y=             -2.6841    Z=              4.1883  Tot=              6.2381
 Quadrupole moment (field-independent basis, Debye-Ang):
   XX=            -79.0962   YY=            -95.1225   ZZ=            -90.8029
   XY=             10.6721   XZ=            -10.2299   YZ=             -5.3964

  Exact polarizability: 260.768   4.099 229.896 -12.933 -19.003 178.502
 Approx polarizability: 200.721  -1.789 182.213  -9.698 -15.924 156.490

 ******    1 imaginary frequencies (negative Signs) ******

                      1                      2                      3
                      A                      A                      A
 Frequencies --   -372.0132                22.6786                46.3105
 Red. masses --      6.4695                 3.7490                 3.6785
 Frc consts  --      0.5275                 0.0011                 0.0046
 IR Inten    --    998.3498                 3.4638                 1.5062

                      4                      5                      6
                      A                      A                      A
 Frequencies --     58.3323                65.9443                74.5454
 Red. masses --      2.2096                 4.5391                 5.4818
 Frc consts  --      0.0044                 0.0116                 0.0179
 IR Inten    --      1.9860                10.0239                 2.3045

                      7                      8                      9
                      A                      A                      A
 Frequencies --     81.5961               128.3863               145.2138
 Red. masses --      4.0376                 3.2400                 2.7963
 Frc consts  --      0.0158                 0.0315                 0.0347
 IR Inten    --      2.3008                 4.5465                 3.6557

                     10                     11                     12
                      A                      A                      A
 Frequencies --    164.4806               178.7990               187.3517
 Red. masses --      1.5282                 1.6382                 2.0741
 Frc consts  --      0.0244                 0.0309                 0.0429
 IR Inten    --      0.3740                 2.8347                 1.9451

                     13                     14                     15
                      A                      A                      A
 Frequencies --    230.9082               272.3339               296.4008
 Red. masses --      4.8952                 3.4780                 5.3735
 Frc consts  --      0.1538                 0.1520                 0.2781
 IR Inten    --      6.2530                21.2709                27.6382

                     16                     17                     18
                      A                      A                      A
 Frequencies --    324.1438               362.4195               402.4123
 Red. masses --      4.3724                 5.4752                 7.5295
 Frc consts  --      0.2707                 0.4237                 0.7184
 IR Inten    --     55.0182                57.1978                13.1404

                     19                     20                     21
                      A                      A                      A
 Frequencies --    420.8464               465.9285               558.7295
 Red. masses --      2.8750                 4.8140                 4.1868
 Frc consts  --      0.3000                 0.6157                 0.7701
 IR Inten    --      0.9594                42.8537                76.4517

                     22                     23                     24
                      A                      A                      A
 Frequencies --    612.6435               638.9565               659.2534
 Red. masses --      3.6761                 6.0097                 1.8016
 Frc consts  --      0.8129                 1.4456                 0.4613
 IR Inten    --      9.2549                 1.3329                14.8509

                     25                     26                     27
                      A                      A                      A
 Frequencies --    709.8049               723.6730               768.0824
 Red. masses --      5.5285                 1.4841                 4.3264
 Frc consts  --      1.6411                 0.4579                 1.5038
 IR Inten    --     29.6955               123.7699                43.4107

                     28                     29                     30
                      A                      A                      A
 Frequencies --    800.7682               807.8286               830.1861
 Red. masses --      4.4688                 3.3695                 4.1339
 Frc consts  --      1.6883                 1.2955                 1.6786
 IR Inten    --     16.0696                59.5011               185.3092

                     31                     32                     33
                      A                      A                      A
 Frequencies --    870.7758               946.9360               993.9640
 Red. masses --      1.2548                 1.5031                 3.2145
 Frc consts  --      0.5606                 0.7941                 1.8712
 IR Inten    --      0.8685                 3.1766                 7.0005

                     34                     35                     36
                      A                      A                      A
 Frequencies --   1004.4862              1012.9459              1022.3706
 Red. masses --      1.3778                 1.2717                 1.3329
 Frc consts  --      0.8191                 0.7688                 0.8209
 IR Inten    --      1.0868                16.2899                 0.2799

                     37                     38                     39
                      A                      A                      A
 Frequencies --   1026.2969              1040.8822              1060.8364
 Red. masses --      4.3447                 1.2142                 2.3061
 Frc consts  --      2.6962                 0.7750                 1.5290
 IR Inten    --      1.2918                61.0737                31.8473

                     40                     41                     42
                      A                      A                      A
 Frequencies --   1072.6865              1100.7780              1112.6340
 Red. masses --      4.4666                 3.4628                 1.7008
 Frc consts  --      3.0281                 2.4722                 1.2406
 IR Inten    --    171.8111               230.9526                45.7177

                     43                     44                     45
                      A                      A                      A
 Frequencies --   1166.8936              1180.9324              1182.4797
 Red. masses --      1.3550                 1.1306                 1.2799
 Frc consts  --      1.0871                 0.9290                 1.0544
 IR Inten    --     56.3858                 0.2359                 1.9260

                     46                     47                     48
                      A                      A                      A
 Frequencies --   1198.9506              1209.1935              1218.5794
 Red. masses --      1.4528                 1.1214                 1.5384
 Frc consts  --      1.2305                 0.9660                 1.3459
 IR Inten    --     83.8425                 0.8207               126.7016

                     49                     50                     51
                      A                      A                      A
 Frequencies --   1232.0782              1281.8468              1307.6922
 Red. masses --      1.4366                 3.0071                 3.5952
 Frc consts  --      1.2849                 2.9112                 3.6223
 IR Inten    --     23.1185               557.1795                 8.9004

                     52                     53                     54
                      A                      A                      A
 Frequencies --   1345.9494              1354.3472              1375.2601
 Red. masses --      1.3262                 1.8103                 2.2166
 Frc consts  --      1.4155                 1.9564                 2.4701
 IR Inten    --     22.2895               174.5316               464.0575

                     55                     56                     57
                      A                      A                      A
 Frequencies --   1437.0904              1465.4655              1479.5507
 Red. masses --      4.2569                 1.2272                 1.2284
 Frc consts  --      5.1798                 1.5528                 1.5844
 IR Inten    --    408.2532                27.3156                43.5580

                     58                     59                     60
                      A                      A                      A
 Frequencies --   1481.5810              1490.5322              1492.2358
 Red. masses --      1.0473                 2.0755                 1.0441
 Frc consts  --      1.3544                 2.7168                 1.3699
 IR Inten    --     11.7769                52.5081                17.5800

                     61                     62                     63
                      A                      A                      A
 Frequencies --   1497.5977              1506.7531              1548.2620
 Red. masses --      1.1141                 1.0321                 2.5542
 Frc consts  --      1.4722                 1.3806                 3.6075
 IR Inten    --     10.6835                13.1957                47.1758

                     64                     65                     66
                      A                      A                      A
 Frequencies --   1636.8599              1643.9493              1671.1181
 Red. masses --      1.1056                 5.5832                 6.2838
 Frc consts  --      1.7453                 8.8901                10.3392
 IR Inten    --     38.5936                16.1549               231.9644

                     67                     68                     69
                      A                      A                      A
 Frequencies --   1683.4084              3061.3345              3070.2991
 Red. masses --      9.0341                 1.0308                 1.0335
 Frc consts  --     15.0839                 5.6920                 5.7399
 IR Inten    --    601.0516                67.3794                44.9699

                     70                     71                     72
                      A                      A                      A
 Frequencies --   3136.1544              3148.7002              3169.1217
 Red. masses --      1.1066                 1.1052                 1.1056
 Frc consts  --      6.4127                 6.4561                 6.5425
 IR Inten    --     40.0406                14.5082                11.7113

                     73                     74                     75
                      A                      A                      A
 Frequencies --   3169.6385              3188.8535              3194.2291
 Red. masses --      1.1052                 1.0851                 1.0877
 Frc consts  --      6.5422                 6.5014                 6.5388
 IR Inten    --     26.3990                 7.3304                 0.4742

                     76                     77                     78
                      A                      A                      A
 Frequencies --   3204.6947              3209.8592              3210.6440
 Red. masses --      1.0913                 1.0950                 1.0912
 Frc consts  --      6.6035                 6.6472                 6.6272
 IR Inten    --     29.0144                58.0598                 3.2714

                     79                     80                     81
                      A                      A                      A
 Frequencies --   3219.3982              3521.7491              3608.0505
 Red. masses --      1.0987                 1.0505                 1.0971
 Frc consts  --      6.7092                 7.6765                 8.4145
 IR Inten    --     12.5862                23.2418                49.1890

 - Thermochemistry -
 -------------------
 Temperature   298.150 Kelvin.  Pressure   1.00000 Atm.
 Atom     1 has atomic number  6 and mass  12.00000

 Molecular mass:   227.07131 amu.
 Principal axes and moments of inertia in atomic units:
                           1         2         3
     Eigenvalues --  3145.359483955.323226050.91373
           X            0.99966   0.01818  -0.01857
           Y           -0.01859   0.99959  -0.02175
           Z            0.01816   0.02209   0.99959
 This molecule is an asymmetric top.
 Rotational symmetry number  1.
 Warning -- assumption of classical behavior for rotation
           may cause significant error
 Rotational temperatures (Kelvin)      0.02754     0.02190     0.01431
 Rotational constants (GHZ):           0.57378     0.45628     0.29826
    1 imaginary frequencies ignored.
 Zero-point vibrational energy     619102.7 (Joules/Mol)
                                  147.96909 (Kcal/Mol)
 Warning -- explicit consideration of  21 degrees of freedom as
           vibrations may cause significant error
 Vibrational temperatures:     32.63    66.63    83.93    94.88   107.25
          (Kelvin)            117.40   184.72   208.93   236.65   257.25
                              269.56   332.23   391.83   426.45   466.37
                              521.44   578.98   605.50   670.37   803.89
                              881.46   919.32   948.52  1021.25  1041.20
                             1105.10  1152.13  1162.29  1194.45  1252.85
                             1362.43  1430.09  1445.23  1457.40  1470.96
                             1476.61  1497.60  1526.31  1543.36  1583.77
                             1600.83  1678.90  1699.10  1701.32  1725.02
                             1739.76  1753.26  1772.69  1844.29  1881.48
                             1936.52  1948.60  1978.69  2067.65  2108.48
                             2128.74  2131.66  2144.54  2146.99  2154.71
                             2167.88  2227.60  2355.08  2365.28  2404.37
                             2422.05  4404.58  4417.48  4512.23  4530.28
                             4559.66  4560.40  4588.05  4595.78  4610.84
                             4618.27  4619.40  4632.00  5067.01  5191.18

 Zero-point correction=                           0.235804 (Hartree/Particle)
 Thermal correction to Energy=                    0.251430
 Thermal correction to Enthalpy=                  0.252374
 Thermal correction to Gibbs Free Energy=         0.190483
 Sum of electronic and zero-point Energies=          -1092.774530
 Sum of electronic and thermal Energies=             -1092.758904
 Sum of electronic and thermal Enthalpies=           -1092.757960
 Sum of electronic and thermal Free Energies=        -1092.819851

                     E (Thermal)             CV                S
                      KCal/Mol        Cal/Mol-Kelvin    Cal/Mol-Kelvin
 Total                  157.774             55.300            130.260
 Electronic               0.000              0.000              0.000
 Translational            0.889              2.981             42.163
 Rotational               0.889              2.981             32.687
 Vibrational            155.997             49.339             55.410
 Vibration     1          0.593              1.985              6.385
 Vibration     2          0.595              1.979              4.969
 Vibration     3          0.596              1.974              4.513
 Vibration     4          0.597              1.971              4.271
 Vibration     5          0.599              1.966              4.030
 Vibration     6          0.600              1.962              3.852
 Vibration     7          0.611              1.925              2.970
 Vibration     8          0.617              1.908              2.734
 Vibration     9          0.623              1.886              2.498
 Vibration    10          0.629              1.868              2.341
 Vibration    11          0.632              1.857              2.254
 Vibration    12          0.653              1.794              1.872
 Vibration    13          0.675              1.724              1.581
 Vibration    14          0.690              1.680              1.437
 Vibration    15          0.709              1.627              1.289
 Vibration    16          0.736              1.550              1.112
 Vibration    17          0.768              1.465              0.954
 Vibration    18          0.783              1.425              0.889
 Vibration    19          0.823              1.326              0.749
 Vibration    20          0.914              1.121              0.526
 Vibration    21          0.972              1.005              0.428

 Optimization completed.
    -- Stationary point found.
 Normal termination of Gaussian 16 at Fri Feb 26 03:10:39 2021.
