 Gaussian 16, Revision C.01,
 Gaussian 16:  ES64L-G16RevC.01  3-Jul-2019

 ----------------------------------------------------------------------
 # opt=(calcfc,ts,noeigen,maxcycles=100,maxstep=10) freq=noraman wb97xd
  scrf=(iefpcm,solvent=water) def2tzvp
 ----------------------------------------------------------------------

 --------
 TS-8.out
 --------
 Symbolic Z-matrix:
 Charge =  0 Multiplicity = 1

 SCF Done:  E(RwB97XD) =  -1211.98984100     A.U. after   15 cycles
 SCF Done:  E(RwB97XD) =  -1211.98984166     A.U. after    9 cycles
 SCF Done:  E(RwB97XD) =  -1211.98984166     A.U. after    5 cycles
 Optimization completed.
    -- Stationary point found.
 Normal termination of Gaussian 16 at Tue Jun  7 07:02:08 2022.

 ---------------------------------------------------------------------
 #N Geom=AllCheck Guess=TCheck SCRF=Check GenChk RwB97XD/def2TZVP Freq
 ---------------------------------------------------------------------

 Structure from the checkpoint file:  "/local/jobs/107542/Gau-1247484.chk"
 --------
 TS-8.out
 --------
 Charge =  0 Multiplicity = 1

                         Standard orientation:
 ---------------------------------------------------------------------
 Center     Atomic      Atomic             Coordinates (Angstroms)
 Number     Number       Type             X           Y           Z
 ---------------------------------------------------------------------
      1          6           0       -0.387496   -0.955299   -0.115015
      2          6           0        0.672485   -1.873254   -0.356158
      3          8           0        0.499871   -2.994519   -0.871492
      4          6           0       -0.192413    0.425875    0.238830
      5          6           0       -0.032480    1.641962    2.941272
      6          1           0        0.462123    1.522978    3.905256
      7          1           0        0.340517    2.538046    2.450971
      8          1           0       -1.100946    1.756532    3.097539
      9          7           0        0.211723    0.470646    2.088058
     10          1           0        1.184671    0.183339    2.119379
     11          1           0       -0.327570   -0.328442    2.402369
     12          6           0       -1.424495    1.313599    0.274198
     13          6           0       -2.529044    0.963521    1.055034
     14          6           0       -3.657373    1.759228    1.100895
     15          6           0       -3.715348    2.933123    0.360007
     16          6           0       -2.625340    3.301085   -0.407541
     17          6           0       -1.487878    2.502953   -0.442400
     18          1           0       -2.515264    0.052024    1.637096
     19          1           0       -4.495863    1.461418    1.717406
     20          1           0       -4.600586    3.555414    0.389741
     21          1           0       -2.648450    4.217295   -0.983744
     22          1           0       -0.650066    2.819885   -1.046194
     23          6           0        1.004147    1.112329   -0.400429
     24          6           0        2.007222    1.809312    0.260087
     25          6           0        3.032559    2.423790   -0.446214
     26          6           0        3.061405    2.377441   -1.828960
     27          6           0        2.054014    1.702833   -2.503197
     28          6           0        1.046238    1.074083   -1.795042
     29          1           0        2.040671    1.877902    1.336490
     30          1           0        3.813520    2.939626    0.097720
     31          1           0        3.861594    2.858575   -2.376478
     32          1           0        2.058613    1.653158   -3.584643
     33          1           0        0.276380    0.531695   -2.328215
     34          6           0       -1.753526   -1.512620   -0.343487
     35          6           0       -2.287728   -2.476308    0.511298
     36          6           0       -3.557842   -2.994001    0.309879
     37          6           0       -4.324766   -2.560051   -0.763693
     38          6           0       -3.802808   -1.614677   -1.634852
     39          6           0       -2.529675   -1.104061   -1.426372
     40          1           0       -1.695855   -2.814617    1.354398
     41          1           0       -3.953367   -3.734373    0.994742
     42          1           0       -5.319196   -2.958731   -0.921230
     43          1           0       -4.388347   -1.273534   -2.480026
     44          1           0       -2.133853   -0.359816   -2.107700
     45          6           0        2.094908   -1.584060    0.062730
     46          6           0        3.078694   -1.325426   -0.886328
     47          6           0        4.392463   -1.122074   -0.500508
     48          6           0        4.749327   -1.201236    0.840162
     49          6           0        3.784542   -1.503024    1.788172
     50          6           0        2.465001   -1.696715    1.398529
     51          1           0        2.805473   -1.255455   -1.931265
     52          1           0        5.142799   -0.896529   -1.248101
     53          1           0        5.776567   -1.038656    1.140803
     54          1           0        4.055593   -1.592691    2.832681
     55          1           0        1.721072   -1.963383    2.141149
 ---------------------------------------------------------------------

 SCF Done:  E(RwB97XD) =  -1211.98984166     A.U. after    1 cycles

 The electronic state is 1-A.
 Alpha  occ. eigenvalues --  -19.19743 -14.49534 -10.37087 -10.34699 -10.32189
 Alpha  occ. eigenvalues --  -10.30955 -10.30953 -10.29590 -10.29544 -10.29432
 Alpha  occ. eigenvalues --  -10.29339 -10.29309 -10.29303 -10.29232 -10.29223
 Alpha  occ. eigenvalues --  -10.29198 -10.29155 -10.29132 -10.29104 -10.29095
 Alpha  occ. eigenvalues --  -10.29070 -10.28965 -10.28839 -10.28774 -10.28398
 Alpha  occ. eigenvalues --  -10.28374 -10.28292 -10.27958 -10.27942 -10.26018
 Alpha  occ. eigenvalues --   -1.10300  -1.05095  -0.98349  -0.96901  -0.96389
 Alpha  occ. eigenvalues --   -0.95885  -0.91799  -0.86746  -0.86314  -0.85582
 Alpha  occ. eigenvalues --   -0.85385  -0.85154  -0.85034  -0.84297  -0.81815
 Alpha  occ. eigenvalues --   -0.79397  -0.75725  -0.72281  -0.71281  -0.70967
 Alpha  occ. eigenvalues --   -0.70354  -0.70155  -0.69556  -0.68277  -0.66891
 Alpha  occ. eigenvalues --   -0.64781  -0.63458  -0.61552  -0.60954  -0.60409
 Alpha  occ. eigenvalues --   -0.58824  -0.57221  -0.56656  -0.56549  -0.55188
 Alpha  occ. eigenvalues --   -0.54769  -0.54427  -0.54141  -0.53772  -0.53305
 Alpha  occ. eigenvalues --   -0.52958  -0.52211  -0.51670  -0.51255  -0.51031
 Alpha  occ. eigenvalues --   -0.50933  -0.50146  -0.49479  -0.48959  -0.48466
 Alpha  occ. eigenvalues --   -0.47769  -0.47183  -0.46001  -0.45604  -0.45124
 Alpha  occ. eigenvalues --   -0.44633  -0.44083  -0.44062  -0.43055  -0.42896
 Alpha  occ. eigenvalues --   -0.42419  -0.41889  -0.41717  -0.41119  -0.35208
 Alpha  occ. eigenvalues --   -0.34636  -0.34415  -0.33972  -0.33458  -0.33141
 Alpha  occ. eigenvalues --   -0.32625  -0.32140  -0.30573  -0.26627
 Alpha virt. eigenvalues --    0.01665   0.03653   0.04001   0.05139   0.05200
 Alpha virt. eigenvalues --    0.05731   0.06283   0.06603   0.07819   0.09872
 Alpha virt. eigenvalues --    0.12000   0.12499   0.12783   0.13469   0.14384

 Mulliken charges:
               1
     1  C   -0.326350
     2  C    0.164179
     3  O   -0.516788
     4  C    0.558713
     5  C   -0.303573
     6  H    0.165196
     7  H    0.165161
     8  H    0.166971
     9  N   -0.339699
    10  H    0.275061
    11  H    0.285876
    12  C    0.113530
    13  C   -0.433965
    14  C   -0.117518
    15  C   -0.146000
    16  C   -0.150617
    17  C   -0.180485
    18  H    0.185783
    19  H    0.142328
    20  H    0.143771
    21  H    0.140726
    22  H    0.163645
    23  C    0.170527
    24  C   -0.185463
    25  C   -0.193565
    26  C   -0.132357
    27  C   -0.117832
    28  C   -0.377895
    29  H    0.153455
    30  H    0.139686
    31  H    0.142159
    32  H    0.139749
    33  H    0.155071
    34  C    0.282597
    35  C   -0.299525
    36  C   -0.142516
    37  C   -0.138110
    38  C   -0.176297
    39  C   -0.218808
    40  H    0.133722
    41  H    0.134843
    42  H    0.138594
    43  H    0.133913
    44  H    0.140844
    45  C    0.266053
    46  C   -0.244285
    47  C   -0.159600
    48  C   -0.152372
    49  C   -0.111685
    50  C   -0.377808
    51  H    0.148837
    52  H    0.137561
    53  H    0.141424
    54  H    0.142494
    55  H    0.170645
 Sum of Mulliken charges =  -0.00000

 Dipole moment (field-independent basis, Debye):
    X=              0.9747    Y=              9.9007    Z=              7.4456  Tot=             12.4262
 Quadrupole moment (field-independent basis, Debye-Ang):
   XX=           -156.8170   YY=           -195.8574   ZZ=           -150.2809
   XY=              6.4138   XZ=             -0.9739   YZ=            -11.6150

  Exact polarizability:     529.764      22.506     432.331      -5.168     -15.017     442.320
 Approx polarizability:     405.653      22.944     347.908      -2.422     -16.744     384.558

 ******    1 imaginary frequencies (negative Signs) ******

                      1                      2                      3
                      A                      A                      A
 Frequencies --   -328.2279                28.4786                40.3368
 Red. masses --      6.0644                 5.3437                 5.0096
 Frc consts  --      0.3849                 0.0026                 0.0048
 IR Inten    --    784.9121                 0.6682                 1.8281

                      4                      5                      6
                      A                      A                      A
 Frequencies --     41.5196                55.7132                60.2871
 Red. masses --      4.9826                 4.4005                 4.9028
 Frc consts  --      0.0051                 0.0080                 0.0105
 IR Inten    --      1.7298                 1.1728                 0.2216

                      7                      8                      9
                      A                      A                      A
 Frequencies --     61.8871                74.5783                81.1793
 Red. masses --      3.7392                 2.8454                 2.9905
 Frc consts  --      0.0084                 0.0093                 0.0116
 IR Inten    --      0.5241                 2.4479                 3.2595

                     10                     11                     12
                      A                      A                      A
 Frequencies --     83.0702                89.5365               109.0850
 Red. masses --      3.3411                 4.8347                 2.5113
 Frc consts  --      0.0136                 0.0228                 0.0176
 IR Inten    --      2.5288                 1.6831                 0.9805

                     13                     14                     15
                      A                      A                      A
 Frequencies --    114.6046               142.3597               171.4796
 Red. masses --      4.8798                 1.8934                 3.4166
 Frc consts  --      0.0378                 0.0226                 0.0592
 IR Inten    --      4.5136                11.2941                 1.3911

                     16                     17                     18
                      A                      A                      A
 Frequencies --    200.0521               203.1556               219.0463
 Red. masses --      5.3585                 5.2246                 4.3721
 Frc consts  --      0.1264                 0.1270                 0.1236
 IR Inten    --      2.5809                 2.5820                 1.8405

                     19                     20                     21
                      A                      A                      A
 Frequencies --    247.8831               257.1694               273.6288
 Red. masses --      4.8491                 3.7033                 4.3808
 Frc consts  --      0.1756                 0.1443                 0.1933
 IR Inten    --      1.5639                 3.1016                 3.9997

                     22                     23                     24
                      A                      A                      A
 Frequencies --    282.2766               299.4463               308.7968
 Red. masses --      4.3667                 4.7387                 3.3617
 Frc consts  --      0.2050                 0.2503                 0.1889
 IR Inten    --      1.8067                 1.8429                 5.6842

                     25                     26                     27
                      A                      A                      A
 Frequencies --    334.3076               346.5559               385.1846
 Red. masses --      6.0467                 3.8723                 5.1426
 Frc consts  --      0.3982                 0.2740                 0.4495
 IR Inten    --     20.5054                52.5528                12.5337

                     28                     29                     30
                      A                      A                      A
 Frequencies --    423.4483               424.4416               426.2411
 Red. masses --      2.8840                 2.8580                 3.0041
 Frc consts  --      0.3047                 0.3034                 0.3216
 IR Inten    --      0.9650                 0.1245                 4.5557

                     31                     32                     33
                      A                      A                      A
 Frequencies --    430.6768               461.4024               514.2890
 Red. masses --      2.9992                 4.9055                 4.2409
 Frc consts  --      0.3278                 0.6153                 0.6609
 IR Inten    --      0.5182                67.7268                 8.5037

                     34                     35                     36
                      A                      A                      A
 Frequencies --    528.0113               533.6174               557.4856
 Red. masses --      3.7494                 4.1125                 4.3463
 Frc consts  --      0.6159                 0.6899                 0.7959
 IR Inten    --      6.4800                20.8656                21.0507

                     37                     38                     39
                      A                      A                      A
 Frequencies --    596.0741               621.9789               635.3225
 Red. masses --      4.2651                 4.6598                 6.3947
 Frc consts  --      0.8929                 1.0621                 1.5208
 IR Inten    --     31.0559               163.9689                 0.3921

                     40                     41                     42
                      A                      A                      A
 Frequencies --    636.9093               639.6089               645.6940
 Red. masses --      6.3375                 6.4125                 5.3961
 Frc consts  --      1.5147                 1.5456                 1.3255
 IR Inten    --      2.0521                 3.0964                71.9068

                     43                     44                     45
                      A                      A                      A
 Frequencies --    657.8610               670.1030               708.1072
 Red. masses --      4.3333                 5.5180                 5.3931
 Frc consts  --      1.1049                 1.4599                 1.5933
 IR Inten    --     80.9476                61.0380                27.1039

                     46                     47                     48
                      A                      A                      A
 Frequencies --    718.2870               726.3843               728.6470
 Red. masses --      1.6219                 1.5604                 1.5397
 Frc consts  --      0.4930                 0.4851                 0.4816
 IR Inten    --    105.1885                89.1757                66.8922

                     49                     50                     51
                      A                      A                      A
 Frequencies --    736.9437               741.9257               776.0203
 Red. masses --      1.5066                 1.4717                 2.5533
 Frc consts  --      0.4821                 0.4773                 0.9059
 IR Inten    --     31.7465               134.4204                27.0476

                     52                     53                     54
                      A                      A                      A
 Frequencies --    782.5063               789.6457               805.4406
 Red. masses --      2.8805                 2.8021                 2.8368
 Frc consts  --      1.0392                 1.0294                 1.0843
 IR Inten    --      1.8428                78.1228                59.1826

                     55                     56                     57
                      A                      A                      A
 Frequencies --    809.1205               858.9691               872.6412
 Red. masses --      3.0190                 4.0493                 1.2559
 Frc consts  --      1.1645                 1.7603                 0.5635
 IR Inten    --     48.5010                30.5629                 0.7474

                     58                     59                     60
                      A                      A                      A
 Frequencies --    876.6621               887.2879               889.0450
 Red. masses --      1.2610                 1.3635                 1.4642
 Frc consts  --      0.5710                 0.6325                 0.6819
 IR Inten    --      2.8455                 7.7344                10.6345

                     61                     62                     63
                      A                      A                      A
 Frequencies --    893.0263               937.7131               959.7436
 Red. masses --      2.0848                 1.8622                 1.6725
 Frc consts  --      0.9796                 0.9647                 0.9076
 IR Inten    --     18.5212                 1.2487                22.8928

                     64                     65                     66
                      A                      A                      A
 Frequencies --    964.2567               975.4421               978.7676
 Red. masses --      1.5598                 1.5837                 1.8336
 Frc consts  --      0.8545                 0.8878                 1.0349
 IR Inten    --     26.0288                 1.3932                 5.6717

                     67                     68                     69
                      A                      A                      A
 Frequencies --   1009.7408              1013.3001              1019.6881
 Red. masses --      1.3843                 1.3759                 1.5972
 Frc consts  --      0.8315                 0.8323                 0.9785
 IR Inten    --      0.7528                 0.2746                 3.4071

                     70                     71                     72
                      A                      A                      A
 Frequencies --   1023.1174              1023.8606              1025.9995
 Red. masses --      1.3480                 3.8085                 1.6288
 Frc consts  --      0.8314                 2.3523                 1.0102
 IR Inten    --      0.3987                 2.9452                 1.4618

                     73                     74                     75
                      A                      A                      A
 Frequencies --   1026.4933              1026.6237              1027.6800
 Red. masses --      3.5685                 4.1361                 3.6801
 Frc consts  --      2.2154                 2.5684                 2.2900
 IR Inten    --      3.4261                 0.6144                 1.8213

                     76                     77                     78
                      A                      A                      A
 Frequencies --   1030.7734              1031.1239              1038.8509
 Red. masses --      1.3807                 1.3372                 1.5417
 Frc consts  --      0.8643                 0.8377                 0.9803
 IR Inten    --      0.4310                 0.1999                22.2352

                     79                     80                     81
                      A                      A                      A
 Frequencies --   1042.7250              1045.9986              1057.3020
 Red. masses --      1.3152                 2.0476                 2.7025
 Frc consts  --      0.8425                 1.3199                 1.7799
 IR Inten    --      1.3257                25.9184                10.9626

                     82                     83                     84
                      A                      A                      A
 Frequencies --   1062.0273              1067.8849              1072.8504
 Red. masses --      2.1287                 2.3758                 1.9503
 Frc consts  --      1.4146                 1.5963                 1.3226
 IR Inten    --     17.4816                19.0272                29.3458

                     85                     86                     87
                      A                      A                      A
 Frequencies --   1083.8326              1108.3499              1110.7981
 Red. masses --      1.5015                 1.5621                 1.5556
 Frc consts  --      1.0392                 1.1306                 1.1309
 IR Inten    --    156.2727                14.7768                 6.9873

                     88                     89                     90
                      A                      A                      A
 Frequencies --   1119.8747              1130.6470              1135.4989
 Red. masses --      2.1766                 1.5966                 1.9144
 Frc consts  --      1.6083                 1.2025                 1.4543
 IR Inten    --     27.7217                13.6420                10.2518

                     91                     92                     93
                      A                      A                      A
 Frequencies --   1179.0718              1181.9974              1186.8096
 Red. masses --      1.1429                 1.1388                 1.2430
 Frc consts  --      0.9362                 0.9374                 1.0315
 IR Inten    --      0.7769                 0.8004                 3.9362

                     94                     95                     96
                      A                      A                      A
 Frequencies --   1188.0786              1188.7222              1206.3575
 Red. masses --      1.6299                 1.5302                 1.1252
 Frc consts  --      1.3555                 1.2740                 0.9648
 IR Inten    --     12.7919                15.9023                 0.0600

                     97                     98                     99
                      A                      A                      A
 Frequencies --   1207.0171              1226.8558              1230.7639
 Red. masses --      1.1236                 1.1391                 1.1421
 Frc consts  --      0.9645                 1.0102                 1.0193
 IR Inten    --      1.2903                 3.1509                 4.8125

                    100                    101                    102
                      A                      A                      A
 Frequencies --   1239.9449              1252.5205              1267.3183
 Red. masses --      2.0684                 2.3177                 3.1500
 Frc consts  --      1.8737                 2.1423                 2.9808
 IR Inten    --     31.4070                15.0189                73.5341

                    103                    104                    105
                      A                      A                      A
 Frequencies --   1308.7616              1319.0885              1319.5046
 Red. masses --      4.6373                 4.3415                 4.5984
 Frc consts  --      4.6799                 4.4508                 4.7171
 IR Inten    --      1.4847                71.7722                46.9691

                    106                    107                    108
                      A                      A                      A
 Frequencies --   1324.0532              1338.1072              1354.6843
 Red. masses --      4.4841                 1.3414                 2.0322
 Frc consts  --      4.6317                 1.4151                 2.1974
 IR Inten    --      2.1051                 1.9875               247.8808

                    109                    110                    111
                      A                      A                      A
 Frequencies --   1359.1826              1362.2589              1368.1540
 Red. masses --      1.4938                 2.6454                 1.4030
 Frc consts  --      1.6259                 2.8924                 1.5473
 IR Inten    --      8.5756               430.1888                13.0271

                    112                    113                    114
                      A                      A                      A
 Frequencies --   1379.2377              1411.3225              1462.0776
 Red. masses --      1.5511                 4.6767                 1.1685
 Frc consts  --      1.7385                 5.4883                 1.4717
 IR Inten    --    221.6107               334.4457                 0.1496

                    115                    116                    117
                      A                      A                      A
 Frequencies --   1486.4287              1487.6589              1489.2277
 Red. masses --      2.2041                 2.2268                 2.1306
 Frc consts  --      2.8692                 2.9036                 2.7840
 IR Inten    --      2.9541                 8.5162                40.1181

                    118                    119                    120
                      A                      A                      A
 Frequencies --   1494.4883              1495.8381              1503.1332
 Red. masses --      1.6963                 1.2560                 1.0542
 Frc consts  --      2.2322                 1.6559                 1.4033
 IR Inten    --      7.3765                38.2127                18.6578

                    121                    122                    123
                      A                      A                      A
 Frequencies --   1540.6481              1542.1938              1546.0855
 Red. masses --      2.3675                 2.4192                 2.2592
 Frc consts  --      3.3108                 3.3899                 3.1818
 IR Inten    --      9.9647                53.6813                12.3004

                    124                    125                    126
                      A                      A                      A
 Frequencies --   1548.2337              1577.5336              1644.0486
 Red. masses --      2.1639                11.5008                 5.7273
 Frc consts  --      3.0560                16.8630                 9.1208
 IR Inten    --     18.8189              1000.5230                 2.8573

                    127                    128                    129
                      A                      A                      A
 Frequencies --   1647.4679              1652.6417              1653.4657
 Red. masses --      5.7316                 4.7125                 5.6226
 Frc consts  --      9.1656                 7.5833                 9.0569
 IR Inten    --      4.9986                 4.3069                 1.9803

                    130                    131                    132
                      A                      A                      A
 Frequencies --   1670.7352              1672.5427              1674.4578
 Red. masses --      3.0962                 1.8266                 5.8090
 Frc consts  --      5.0920                 3.0106                 9.5961
 IR Inten    --     58.1861                47.9984                 3.2633

                    133                    134                    135
                      A                      A                      A
 Frequencies --   1675.4352              1679.3023              3079.9068
 Red. masses --      4.9477                 3.0635                 1.0371
 Frc consts  --      8.1830                 5.0901                 5.7964
 IR Inten    --     11.2157                19.7537                41.4855

                    136                    137                    138
                      A                      A                      A
 Frequencies --   3163.3642              3181.7720              3182.7497
 Red. masses --      1.1021                 1.0869                 1.0879
 Frc consts  --      6.4981                 6.4828                 6.4932
 IR Inten    --     13.5935                 9.9352                13.1259

                    139                    140                    141
                      A                      A                      A
 Frequencies --   3185.5928              3190.1204              3195.6023
 Red. masses --      1.0872                 1.1046                 1.0867
 Frc consts  --      6.5005                 6.6232                 6.5386
 IR Inten    --      4.4016                 9.1436                 0.0902

                    142                    143                    144
                      A                      A                      A
 Frequencies --   3196.3092              3197.6308              3198.1033
 Red. masses --      1.0908                 1.0860                 1.0861
 Frc consts  --      6.5659                 6.5423                 6.5452
 IR Inten    --     11.4756                 0.3168                 0.2306

                    145                    146                    147
                      A                      A                      A
 Frequencies --   3203.3586              3205.0020              3205.5468
 Red. masses --      1.0948                 1.0910                 1.0893
 Frc consts  --      6.6193                 6.6028                 6.5949
 IR Inten    --     59.3993                15.3619                 5.9677

                    148                    149                    150
                      A                      A                      A
 Frequencies --   3207.2311              3214.5452              3215.0225
 Red. masses --      1.0897                 1.0942                 1.0932
 Frc consts  --      6.6044                 6.6617                 6.6579
 IR Inten    --     11.0247                32.1739                19.0481

                    151                    152                    153
                      A                      A                      A
 Frequencies --   3215.9523              3217.6462              3222.3440
 Red. masses --      1.0985                 1.0938                 1.0985
 Frc consts  --      6.6939                 6.6718                 6.7201
 IR Inten    --     32.7784                29.2558                17.9844

                    154                    155                    156
                      A                      A                      A
 Frequencies --   3223.7735              3226.4593              3236.4478
 Red. masses --      1.0979                 1.0961                 1.0931
 Frc consts  --      6.7227                 6.7227                 6.7458
 IR Inten    --     22.8101                15.0289                 6.9326

                    157                    158                    159
                      A                      A                      A
 Frequencies --   3248.0279              3512.3168              3586.0756
 Red. masses --      1.0915                 1.0520                 1.0954
 Frc consts  --      6.7844                 7.6467                 8.2993
 IR Inten    --     12.1688                53.3556                87.8588

 - Thermochemistry -
 -------------------
 Temperature   298.150 Kelvin.  Pressure   1.00000 Atm.
 Atom     1 has atomic number  6 and mass  12.00000

 Molecular mass:   391.19361 amu.
 Principal axes and moments of inertia in atomic units:
                           1         2         3
     Eigenvalues --  7443.82351********************
           X            0.99997   0.00827   0.00019
           Y           -0.00827   0.99995  -0.00496
           Z           -0.00023   0.00496   0.99999
 This molecule is an asymmetric top.
 Rotational symmetry number  1.
 Warning -- assumption of classical behavior for rotation
           may cause significant error
 Rotational temperatures (Kelvin)      0.01164     0.00708     0.00572
 Rotational constants (GHZ):           0.24245     0.14753     0.11913
    1 imaginary frequencies ignored.
 Zero-point vibrational energy    1201773.1 (Joules/Mol)
                                  287.23066 (Kcal/Mol)
 Warning -- explicit consideration of  36 degrees of freedom as
           vibrations may cause significant error
 Vibrational temperatures:     40.97    58.04    59.74    80.16    86.74
          (Kelvin)             89.04   107.30   116.80   119.52   128.82
                              156.95   164.89   204.82   246.72   287.83
                              292.30   315.16   356.65   370.01   393.69
                              406.13   430.84   444.29   480.99   498.62
                              554.19   609.25   610.68   613.27   619.65
                              663.86   739.95   759.69   767.76   802.10
                              857.62   894.89   914.09   916.37   920.25
                              929.01   946.52   964.13  1018.81  1033.45
                             1045.10  1048.36  1060.30  1067.47  1116.52
                             1125.85  1136.12  1158.85  1164.14  1235.86
                             1255.54  1261.32  1276.61  1279.14  1284.87
                             1349.16  1380.86  1387.35  1403.44  1408.23
                             1452.79  1457.91  1467.10  1472.04  1473.11
                             1476.18  1476.89  1477.08  1478.60  1483.05
                             1483.56  1494.67  1500.25  1504.96  1521.22
                             1528.02  1536.45  1543.59  1559.39  1594.67
                             1598.19  1611.25  1626.75  1633.73  1696.42
                             1700.63  1707.55  1709.38  1710.31  1735.68
                             1736.63  1765.17  1770.79  1784.00  1802.10
                             1823.39  1883.02  1897.87  1898.47  1905.02
                             1925.24  1949.09  1955.56  1959.99  1968.47
                             1984.42  2030.58  2103.60  2138.64  2140.41
                             2142.67  2150.24  2152.18  2162.67  2216.65
                             2218.87  2224.47  2227.56  2269.72  2365.42
                             2370.34  2377.78  2378.97  2403.82  2406.42
                             2409.17  2410.58  2416.14  4431.30  4551.38
                             4577.86  4579.27  4583.36  4589.87  4597.76
                             4598.78  4600.68  4601.36  4608.92  4611.28
                             4612.07  4614.49  4625.01  4625.70  4627.04
                             4629.48  4636.23  4638.29  4642.16  4656.53
                             4673.19  5053.44  5159.56

 Zero-point correction=                           0.457731 (Hartree/Particle)
 Thermal correction to Energy=                    0.482768
 Thermal correction to Enthalpy=                  0.483712
 Thermal correction to Gibbs Free Energy=         0.402107
 Sum of electronic and zero-point Energies=          -1211.532110
 Sum of electronic and thermal Energies=             -1211.507074
 Sum of electronic and thermal Enthalpies=           -1211.506130
 Sum of electronic and thermal Free Energies=        -1211.587735

                     E (Thermal)             CV                S
                      KCal/Mol        Cal/Mol-Kelvin    Cal/Mol-Kelvin
 Total                  302.941             99.094            171.753
 Electronic               0.000              0.000              0.000
 Translational            0.889              2.981             43.784
 Rotational               0.889              2.981             35.577
 Vibrational            301.164             93.133             92.392
 Vibration     1          0.593              1.984              5.933
 Vibration     2          0.594              1.981              5.242
 Vibration     3          0.594              1.981              5.185
 Vibration     4          0.596              1.975              4.604
 Vibration     5          0.597              1.973              4.448
 Vibration     6          0.597              1.972              4.396
 Vibration     7          0.599              1.966              4.029
 Vibration     8          0.600              1.962              3.862
 Vibration     9          0.600              1.961              3.817
 Vibration    10          0.602              1.957              3.670
 Vibration    11          0.606              1.942              3.285
 Vibration    12          0.608              1.937              3.189
 Vibration    13          0.616              1.911              2.772
 Vibration    14          0.626              1.878              2.419
 Vibration    15          0.638              1.840              2.133
 Vibration    16          0.639              1.835              2.104
 Vibration    17          0.647              1.812              1.967
 Vibration    18          0.662              1.766              1.746
 Vibration    19          0.667              1.751              1.681
 Vibration    20          0.676              1.722              1.573
 Vibration    21          0.681              1.706              1.520
 Vibration    22          0.692              1.675              1.420
 Vibration    23          0.698              1.657              1.369
 Vibration    24          0.716              1.607              1.239
 Vibration    25          0.725              1.582              1.182
 Vibration    26          0.754              1.502              1.019
 Vibration    27          0.786              1.419              0.880
 Vibration    28          0.786              1.417              0.877
 Vibration    29          0.788              1.413              0.871
 Vibration    30          0.792              1.403              0.856
 Vibration    31          0.819              1.336              0.762
 Vibration    32          0.869              1.218              0.623
 Vibration    33          0.883              1.188              0.592
 Vibration    34          0.889              1.176              0.579
 Vibration    35          0.913              1.123              0.529
 Vibration    36          0.954              1.040              0.456

 Optimization completed.
    -- Stationary point found.
 Normal termination of Gaussian 16 at Tue Jun  7 13:30:12 2022.
