 Gaussian 16, Revision A.03,
 Gaussian 16:  ES64L-G16RevA.03 25-Dec-2016

 ----------------------------------------------------------------------
 # wB97XD def2tzvp, opt=(ts, noeigen, calcfc, maxcycles=70, maxstep=1),
  freq=noraman, scrf=(iefpcm, solvent=water)
 ----------------------------------------------------------------------

 ------------------------
 0_iteration/TS-856-0.out
 ------------------------
 Symbolic Z-matrix:
 Charge =  0 Multiplicity = 1

 SCF Done:  E(RwB97XD) =  -978.454452909     A.U. after   15 cycles
 SCF Done:  E(RwB97XD) =  -978.454372247     A.U. after   10 cycles
 SCF Done:  E(RwB97XD) =  -978.454295519     A.U. after   10 cycles
 SCF Done:  E(RwB97XD) =  -978.454222762     A.U. after   10 cycles
 SCF Done:  E(RwB97XD) =  -978.454154006     A.U. after   10 cycles
 SCF Done:  E(RwB97XD) =  -978.454089293     A.U. after   10 cycles
 SCF Done:  E(RwB97XD) =  -978.454028666     A.U. after   10 cycles
 SCF Done:  E(RwB97XD) =  -978.453972167     A.U. after   10 cycles
 SCF Done:  E(RwB97XD) =  -978.453919845     A.U. after   10 cycles
 SCF Done:  E(RwB97XD) =  -978.453871753     A.U. after   10 cycles
 SCF Done:  E(RwB97XD) =  -978.455356601     A.U. after   10 cycles
 SCF Done:  E(RwB97XD) =  -978.455391520     A.U. after   10 cycles
 SCF Done:  E(RwB97XD) =  -978.455417488     A.U. after    9 cycles
 SCF Done:  E(RwB97XD) =  -978.455434076     A.U. after    9 cycles
 SCF Done:  E(RwB97XD) =  -978.455443006     A.U. after    9 cycles
 SCF Done:  E(RwB97XD) =  -978.455447756     A.U. after   10 cycles
 SCF Done:  E(RwB97XD) =  -978.455450018     A.U. after    9 cycles
 SCF Done:  E(RwB97XD) =  -978.455450424     A.U. after    9 cycles
 SCF Done:  E(RwB97XD) =  -978.455450521     A.U. after    7 cycles
 Optimization completed.
    -- Stationary point found.
 Normal termination of Gaussian 16 at Wed Feb 24 07:05:33 2021.

 ---------------------------------------------------------------------
 #N Geom=AllCheck Guess=TCheck SCRF=Check GenChk RwB97XD/def2TZVP Freq
 ---------------------------------------------------------------------

 Structure from the checkpoint file:  "/beegfs/scratch/user/q/tla25/Gau-120542.chk"
 ------------------------
 0_iteration/TS-856-0.out
 ------------------------
 Charge =  0 Multiplicity = 1

                         Standard orientation:
 ---------------------------------------------------------------------
 Center     Atomic      Atomic             Coordinates (Angstroms)
 Number     Number       Type             X           Y           Z
 ---------------------------------------------------------------------
      1          6           0       -0.651513   -0.543383   -0.207789
      2          6           0        0.322827    0.489570   -0.334558
      3          8           0        0.027931    1.652811   -0.648325
      4          6           0       -1.963408   -0.230949   -0.489999
      5          6           0       -4.060535    1.396395    0.838173
      6          1           0       -4.357211    2.025319    1.679351
      7          1           0       -4.037475    2.006069   -0.064721
      8          1           0       -4.798251    0.606414    0.708706
      9          7           0       -2.747467    0.794781    1.037620
     10          1           0       -2.022256    1.491578    1.160875
     11          1           0       -2.724110    0.162215    1.828127
     12         17           0       -3.122452   -1.529091   -0.625081
     13          1           0       -2.195502    0.594014   -1.148918
     14          1           0       -0.399353   -1.525169    0.160426
     15          6           0        1.769924    0.153685   -0.088009
     16          6           0        2.745471    0.967006   -0.660662
     17          6           0        4.091245    0.705232   -0.463463
     18          6           0        4.482193   -0.367714    0.326582
     19          6           0        3.519339   -1.176118    0.913067
     20          6           0        2.172334   -0.921092    0.702013
     21          1           0        2.432478    1.807496   -1.266067
     22          1           0        4.837754    1.339919   -0.924320
     23          1           0        5.533541   -0.570727    0.487226
     24          1           0        3.816700   -2.007942    1.539041
     25          1           0        1.436919   -1.556383    1.177775
 ---------------------------------------------------------------------

 SCF Done:  E(RwB97XD) =  -978.455450521     A.U. after    1 cycles

 The electronic state is 1-A.
 Alpha  occ. eigenvalues -- -101.70569 -19.21050 -14.47364 -10.38780 -10.35926
 Alpha  occ. eigenvalues --  -10.31569 -10.29715 -10.29436 -10.29308 -10.29159
 Alpha  occ. eigenvalues --  -10.29126 -10.29040 -10.26058  -9.59147  -7.33783
 Alpha  occ. eigenvalues --   -7.32946  -7.32890  -1.11781  -1.03135  -0.97652
 Alpha  occ. eigenvalues --   -0.96724  -0.87431  -0.85384  -0.84806  -0.78516
 Alpha  occ. eigenvalues --   -0.74548  -0.70763  -0.68819  -0.63989  -0.62722
 Alpha  occ. eigenvalues --   -0.61141  -0.56992  -0.56473  -0.55018  -0.53849
 Alpha  occ. eigenvalues --   -0.53584  -0.52478  -0.51197  -0.50005  -0.48959
 Alpha  occ. eigenvalues --   -0.47729  -0.47635  -0.46362  -0.44700  -0.43984
 Alpha  occ. eigenvalues --   -0.42570  -0.40587  -0.38518  -0.34072  -0.33971
 Alpha  occ. eigenvalues --   -0.32806  -0.28709
 Alpha virt. eigenvalues --    0.00740   0.05096   0.07074   0.09714   0.11472
 Alpha virt. eigenvalues --    0.13312   0.14304   0.15371   0.15549   0.16608
 Alpha virt. eigenvalues --    0.16947   0.17747   0.19037   0.19466   0.19975

 Mulliken charges:
               1
     1  C   -0.395184
     2  C    0.317727
     3  O   -0.526223
     4  C    0.049874
     5  C   -0.265270
     6  H    0.148342
     7  H    0.147246
     8  H    0.145331
     9  N   -0.378014
    10  H    0.280004
    11  H    0.277638
    12  Cl  -0.095572
    13  H    0.175797
    14  H    0.136571
    15  C    0.136388
    16  C   -0.231224
    17  C   -0.125975
    18  C   -0.140065
    19  C   -0.144303
    20  C   -0.231749
    21  H    0.139983
    22  H    0.143648
    23  H    0.146226
    24  H    0.143927
    25  H    0.144877
 Sum of Mulliken charges =  -0.00000

 Dipole moment (field-independent basis, Debye):
    X=             -3.7287    Y=             -0.4372    Z=              4.2860  Tot=              5.6978
 Quadrupole moment (field-independent basis, Debye-Ang):
   XX=            -60.6066   YY=            -86.3997   ZZ=            -81.3652
   XY=             -9.3700   XZ=             -7.3592   YZ=             -0.8846

  Exact polarizability: 298.254   2.669 186.759  -9.054 -19.496 147.635
 Approx polarizability: 205.308   2.804 162.934  -4.236 -18.503 130.084

 ******    1 imaginary frequencies (negative Signs) ******

                      1                      2                      3
                      A                      A                      A
 Frequencies --   -360.0292                23.6602                35.3685
 Red. masses --      6.3216                 3.9070                 2.8406
 Frc consts  --      0.4828                 0.0013                 0.0021
 IR Inten    --   1020.2067                 2.4008                 2.1894

                      4                      5                      6
                      A                      A                      A
 Frequencies --     44.4370                71.4549                98.7095
 Red. masses --      3.1293                 3.3399                 6.9137
 Frc consts  --      0.0036                 0.0100                 0.0397
 IR Inten    --      4.2143                19.6722                 2.4582

                      7                      8                      9
                      A                      A                      A
 Frequencies --    140.9860               155.6005               177.5741
 Red. masses --      4.1929                 1.2608                 4.4255
 Frc consts  --      0.0491                 0.0180                 0.0822
 IR Inten    --      0.9740                 3.6315                12.5611

                     10                     11                     12
                      A                      A                      A
 Frequencies --    228.0135               268.1453               317.0848
 Red. masses --      4.2724                 5.3968                 4.8181
 Frc consts  --      0.1309                 0.2286                 0.2854
 IR Inten    --      6.8260                13.7000                13.3449

                     13                     14                     15
                      A                      A                      A
 Frequencies --    355.1728               411.5532               418.5182
 Red. masses --      5.3279                 5.1024                 2.8692
 Frc consts  --      0.3960                 0.5092                 0.2961
 IR Inten    --     46.1545                30.2065                 0.2237

                     16                     17                     18
                      A                      A                      A
 Frequencies --    488.2937               522.9171               612.5439
 Red. masses --      3.1237                 4.1236                 1.4916
 Frc consts  --      0.4388                 0.6643                 0.3297
 IR Inten    --     29.8504                 2.3595                31.9934

                     19                     20                     21
                      A                      A                      A
 Frequencies --    636.1681               668.7285               708.9490
 Red. masses --      6.3856                 5.7873                 1.4195
 Frc consts  --      1.5226                 1.5249                 0.4203
 IR Inten    --      0.2316                84.2177                10.5758

                     22                     23                     24
                      A                      A                      A
 Frequencies --    718.7315               743.5595               786.9962
 Red. masses --      2.1356                 1.7906                 5.7895
 Frc consts  --      0.6500                 0.5833                 2.1127
 IR Inten    --     33.2054               295.2495               119.5706

                     25                     26                     27
                      A                      A                      A
 Frequencies --    836.3906               879.0786               915.6183
 Red. masses --      3.0126                 1.2516                 3.9191
 Frc consts  --      1.2417                 0.5699                 1.9358
 IR Inten    --      4.0867                 1.0161                24.2743

                     28                     29                     30
                      A                      A                      A
 Frequencies --    970.6523               994.3320              1011.4685
 Red. masses --      1.4833                 1.1014                 1.1057
 Frc consts  --      0.8234                 0.6416                 0.6665
 IR Inten    --      1.2863                48.1270               118.1088

                     31                     32                     33
                      A                      A                      A
 Frequencies --   1017.2528              1025.9139              1034.3931
 Red. masses --      1.3795                 5.8795                 1.3214
 Frc consts  --      0.8410                 3.6460                 0.8330
 IR Inten    --      0.4593                 2.7678                 1.1930

                     34                     35                     36
                      A                      A                      A
 Frequencies --   1056.2933              1072.5210              1095.0996
 Red. masses --      2.3097                 3.9396                 1.9569
 Frc consts  --      1.5184                 2.6700                 1.3827
 IR Inten    --     34.0398               229.8031                20.7934

                     37                     38                     39
                      A                      A                      A
 Frequencies --   1117.2407              1139.9917              1182.8815
 Red. masses --      1.9131                 1.1692                 1.1348
 Frc consts  --      1.4069                 0.8952                 0.9355
 IR Inten    --      4.3754               161.0094                 1.6165

                     40                     41                     42
                      A                      A                      A
 Frequencies --   1197.5315              1199.9512              1219.3171
 Red. masses --      1.3569                 1.1851                 1.4397
 Frc consts  --      1.1465                 1.0054                 1.2612
 IR Inten    --      8.9060                23.8350                70.9413

                     43                     44                     45
                      A                      A                      A
 Frequencies --   1275.6978              1313.5399              1338.8299
 Red. masses --      1.5136                 2.7926                 2.5237
 Frc consts  --      1.4513                 2.8389                 2.6652
 IR Inten    --    240.9066                11.9013                23.6030

                     46                     47                     48
                      A                      A                      A
 Frequencies --   1342.7410              1350.8982              1456.9699
 Red. masses --      1.8804                 1.5700                 1.2986
 Frc consts  --      1.9975                 1.6881                 1.6242
 IR Inten    --      3.3420                20.6665               292.4459

                     49                     50                     51
                      A                      A                      A
 Frequencies --   1476.2075              1489.8805              1496.6543
 Red. masses --      2.2849                 1.0409                 2.3576
 Frc consts  --      2.9337                 1.3614                 3.1114
 IR Inten    --    892.4838                14.2327               642.3491

                     52                     53                     54
                      A                      A                      A
 Frequencies --   1505.3706              1538.5857              1626.3805
 Red. masses --      1.0673                 2.3471                 5.3235
 Frc consts  --      1.4251                 3.2736                 8.2964
 IR Inten    --     35.5867                40.2755               271.0640

                     55                     56                     57
                      A                      A                      A
 Frequencies --   1641.1961              1663.3976              1672.3413
 Red. masses --      1.1703                 6.4819                 6.0631
 Frc consts  --      1.8573                10.5668                 9.9906
 IR Inten    --     65.6379               123.9467                15.6495

                     58                     59                     60
                      A                      A                      A
 Frequencies --   3059.9724              3134.0762              3159.0000
 Red. masses --      1.0346                 1.1036                 1.1050
 Frc consts  --      5.7079                 6.3869                 6.4970
 IR Inten    --     63.1424                20.5923                15.9191

                     61                     62                     63
                      A                      A                      A
 Frequencies --   3195.4137              3203.6012              3212.6255
 Red. masses --      1.0860                 1.0889                 1.0924
 Frc consts  --      6.5331                 6.5844                 6.6427
 IR Inten    --      0.8550                 6.2892                19.4091

                     64                     65                     66
                      A                      A                      A
 Frequencies --   3216.7515              3220.6006              3225.4491
 Red. masses --      1.0923                 1.0946                 1.0971
 Frc consts  --      6.6595                 6.6892                 6.7250
 IR Inten    --      4.4309                23.9978                15.8032

                     67                     68                     69
                      A                      A                      A
 Frequencies --   3250.8993              3527.7240              3615.4928
 Red. masses --      1.0899                 1.0503                 1.0972
 Frc consts  --      6.7867                 7.7011                 8.4500
 IR Inten    --      2.2408                19.2712                46.9381

 - Thermochemistry -
 -------------------
 Temperature   298.150 Kelvin.  Pressure   1.00000 Atm.
 Atom     1 has atomic number  6 and mass  12.00000

 Molecular mass:   197.06074 amu.
 Principal axes and moments of inertia in atomic units:
                           1         2         3
     Eigenvalues --  1159.239906124.204866646.10583
           X            0.99971  -0.02229  -0.00877
           Y            0.02202   0.99931  -0.02989
           Z            0.00943   0.02969   0.99951
 This molecule is an asymmetric top.
 Rotational symmetry number  1.
 Warning -- assumption of classical behavior for rotation
           may cause significant error
 Rotational temperatures (Kelvin)      0.07472     0.01414     0.01303
 Rotational constants (GHZ):           1.55683     0.29469     0.27155
    1 imaginary frequencies ignored.
 Zero-point vibrational energy     531198.1 (Joules/Mol)
                                  126.95940 (Kcal/Mol)
 Warning -- explicit consideration of  17 degrees of freedom as
           vibrations may cause significant error
 Vibrational temperatures:     34.04    50.89    63.93   102.81   142.02
          (Kelvin)            202.85   223.87   255.49   328.06   385.80
                              456.21   511.01   592.13   602.15   702.55
                              752.36   881.31   915.30   962.15  1020.02
                             1034.09  1069.82  1132.31  1203.38  1264.80
                             1317.37  1396.55  1430.62  1455.28  1463.60
                             1476.06  1488.26  1519.77  1543.12  1575.60
                             1607.46  1640.19  1701.90  1722.98  1726.46
                             1754.33  1835.44  1889.89  1926.28  1931.90
                             1943.64  2096.25  2123.93  2143.61  2153.35
                             2165.89  2213.68  2340.00  2361.32  2393.26
                             2406.13  4402.62  4509.24  4545.10  4597.49
                             4609.27  4622.25  4628.19  4633.73  4640.70
                             4677.32  5075.61  5201.89

 Zero-point correction=                           0.202323 (Hartree/Particle)
 Thermal correction to Energy=                    0.215433
 Thermal correction to Enthalpy=                  0.216377
 Thermal correction to Gibbs Free Energy=         0.159755
 Sum of electronic and zero-point Energies=           -978.253128
 Sum of electronic and thermal Energies=              -978.240017
 Sum of electronic and thermal Enthalpies=            -978.239073
 Sum of electronic and thermal Free Energies=         -978.295695

                     E (Thermal)             CV                S
                      KCal/Mol        Cal/Mol-Kelvin    Cal/Mol-Kelvin
 Total                  135.186             46.842            119.171
 Electronic               0.000              0.000              0.000
 Translational            0.889              2.981             41.740
 Rotational               0.889              2.981             32.223
 Vibrational            133.409             40.881             45.209
 Vibration     1          0.593              1.985              6.301
 Vibration     2          0.594              1.982              5.503
 Vibration     3          0.595              1.980              5.051
 Vibration     4          0.598              1.968              4.113
 Vibration     5          0.604              1.950              3.480
 Vibration     6          0.615              1.912              2.790
 Vibration     7          0.620              1.896              2.603
 Vibration     8          0.628              1.870              2.354
 Vibration     9          0.651              1.798              1.895
 Vibration    10          0.673              1.732              1.608
 Vibration    11          0.704              1.641              1.325
 Vibration    12          0.731              1.565              1.143
 Vibration    13          0.776              1.445              0.921
 Vibration    14          0.781              1.430              0.897
 Vibration    15          0.844              1.276              0.688
 Vibration    16          0.878              1.199              0.603
 Vibration    17          0.972              1.005              0.429

 Optimization completed.
    -- Stationary point found.
 Normal termination of Gaussian 16 at Wed Feb 24 07:36:10 2021.
