 Gaussian 16, Revision A.03,
 Gaussian 16:  ES64L-G16RevA.03 25-Dec-2016

 ----------------------------------------------------------------------
 # wB97XD def2tzvp, opt=(ts, noeigen, calcfc, maxcycles=70, maxstep=8),
  freq=noraman, scrf=(iefpcm, solvent=water)
 ----------------------------------------------------------------------

 ------------------------
 1_iteration/TS-845-1.out
 ------------------------
 Symbolic Z-matrix:
 Charge =  0 Multiplicity = 1

 SCF Done:  E(RwB97XD) =  -1073.14651371     A.U. after   14 cycles
 Optimization completed.
    -- Stationary point found.
 Normal termination of Gaussian 16 at Fri Feb 26 01:52:05 2021.

 ---------------------------------------------------------------------
 #N Geom=AllCheck Guess=TCheck SCRF=Check GenChk RwB97XD/def2TZVP Freq
 ---------------------------------------------------------------------

 Structure from the checkpoint file:  "/beegfs/scratch/user/q/tla25/Gau-34311.chk"
 ------------------------
 1_iteration/TS-845-1.out
 ------------------------
 Charge =  0 Multiplicity = 1

                         Standard orientation:
 ---------------------------------------------------------------------
 Center     Atomic      Atomic             Coordinates (Angstroms)
 Number     Number       Type             X           Y           Z
 ---------------------------------------------------------------------
      1          6           0       -0.489390    0.081288   -0.318719
      2          6           0       -1.321466    1.274275   -0.305839
      3          8           0       -2.533856    1.272410   -0.583079
      4          6           0       -1.160215   -1.102945   -0.590749
      5          6           0       -2.234085   -1.199219    1.911221
      6          1           0       -2.374393   -1.724080    2.854611
      7          1           0       -1.555798   -0.358016    2.055491
      8          1           0       -3.187716   -0.820113    1.551921
      9          7           0       -1.659951   -2.078797    0.897341
     10          1           0       -0.829599   -2.552973    1.236351
     11          1           0       -2.315388   -2.792540    0.597341
     12         17           0       -0.299000   -2.412131   -1.447399
     13          1           0       -2.161006   -0.986889   -0.983989
     14          6           0        0.962819    0.124985   -0.028579
     15          6           0        1.836676    0.845448   -0.849869
     16          6           0        3.199166    0.885704   -0.597319
     17          6           0        3.731409    0.188127    0.478441
     18          6           0        2.884352   -0.538067    1.302221
     19          6           0        1.519112   -0.558463    1.055581
     20          1           0        1.434244    1.375897   -1.704899
     21          1           0        3.849854    1.452907   -1.251609
     22          1           0        4.796169    0.211501    0.672981
     23          1           0        3.284605   -1.082365    2.148761
     24          1           0        0.874465   -1.105526    1.732611
     25          7           0       -0.721181    2.446397    0.039861
     26          6           0       -1.449806    3.687854    0.119341
     27          1           0        0.240669    2.434322    0.324431
     28          1           0       -2.227946    3.654751    0.886301
     29          1           0       -0.751489    4.484727    0.367981
     30          1           0       -1.926357    3.928212   -0.832679
 ---------------------------------------------------------------------

 SCF Done:  E(RwB97XD) =  -1073.14651371     A.U. after    1 cycles

 The electronic state is 1-A.
 Alpha  occ. eigenvalues -- -101.69478 -19.19020 -14.49809 -14.43857 -10.38188
 Alpha  occ. eigenvalues --  -10.36875 -10.31921 -10.30373 -10.29917 -10.28851
 Alpha  occ. eigenvalues --  -10.28821 -10.28691 -10.28631 -10.28490 -10.25629
 Alpha  occ. eigenvalues --   -9.58066  -7.32684  -7.31863  -7.31829  -1.11727
 Alpha  occ. eigenvalues --   -1.05343  -1.00520  -0.97045  -0.95566  -0.88231
 Alpha  occ. eigenvalues --   -0.84827  -0.82621  -0.79653  -0.79344  -0.71623
 Alpha  occ. eigenvalues --   -0.70160  -0.68290  -0.65386  -0.64196  -0.61665
 Alpha  occ. eigenvalues --   -0.59087  -0.57891  -0.56000  -0.55087  -0.53627
 Alpha  occ. eigenvalues --   -0.53467  -0.52856  -0.51425  -0.50573  -0.50155
 Alpha  occ. eigenvalues --   -0.48360  -0.47252  -0.47097  -0.46687  -0.45964
 Alpha  occ. eigenvalues --   -0.45419  -0.42760  -0.42459  -0.39741  -0.38916
 Alpha  occ. eigenvalues --   -0.34617  -0.33750  -0.32717  -0.32534  -0.26269
 Alpha virt. eigenvalues --    0.05101   0.05283   0.07471   0.09455   0.10605
 Alpha virt. eigenvalues --    0.12132   0.13760   0.14731   0.14784   0.15390
 Alpha virt. eigenvalues --    0.16488   0.17339   0.17771   0.18398   0.19080

 Mulliken charges:
               1
     1  C   -0.226801
     2  C    0.346958
     3  O   -0.577141
     4  C    0.011763
     5  C   -0.295564
     6  H    0.166758
     7  H    0.158283
     8  H    0.158845
     9  N   -0.300342
    10  H    0.280391
    11  H    0.295216
    12  Cl  -0.143184
    13  H    0.182154
    14  C    0.148377
    15  C   -0.309796
    16  C   -0.110995
    17  C   -0.156172
    18  C   -0.162349
    19  C   -0.238626
    20  H    0.143465
    21  H    0.140441
    22  H    0.141979
    23  H    0.138796
    24  H    0.140740
    25  N   -0.317058
    26  C   -0.255876
    27  H    0.259138
    28  H    0.120135
    29  H    0.136909
    30  H    0.123556
 Sum of Mulliken charges =  -0.00000

 Dipole moment (field-independent basis, Debye):
    X=              0.8233    Y=             -3.7426    Z=              5.9033  Tot=              7.0380
 Quadrupole moment (field-independent basis, Debye-Ang):
   XX=            -96.9631   YY=            -82.2641   ZZ=            -93.4451
   XY=             17.2028   XZ=             -8.2033   YZ=             -8.9233

  Exact polarizability: 251.786   8.752 238.405   0.171 -18.814 194.266
 Approx polarizability: 201.297   6.316 186.531   1.652 -15.917 166.851

 ******    1 imaginary frequencies (negative Signs) ******

                      1                      2                      3
                      A                      A                      A
 Frequencies --   -367.4536                24.9921                54.1552
 Red. masses --      6.0767                 3.7892                 3.2625
 Frc consts  --      0.4834                 0.0014                 0.0056
 IR Inten    --    810.4156                 7.0413                13.3475

                      4                      5                      6
                      A                      A                      A
 Frequencies --     67.4910                76.7571                85.7922
 Red. masses --      5.2916                 2.9438                 2.7862
 Frc consts  --      0.0142                 0.0102                 0.0121
 IR Inten    --      4.2331                 2.1651                 8.1417

                      7                      8                      9
                      A                      A                      A
 Frequencies --     96.8996               126.3107               134.8732
 Red. masses --      2.3208                 2.6037                 3.1529
 Frc consts  --      0.0128                 0.0245                 0.0338
 IR Inten    --     10.2221                 6.5407                 8.5431

                     10                     11                     12
                      A                      A                      A
 Frequencies --    140.1631               182.3750               198.4351
 Red. masses --      2.4216                 1.1741                 3.8602
 Frc consts  --      0.0280                 0.0230                 0.0896
 IR Inten    --     13.9770                 4.1944                 2.3640

                     13                     14                     15
                      A                      A                      A
 Frequencies --    231.9145               272.4273               308.8748
 Red. masses --      4.8526                 4.6658                 3.9113
 Frc consts  --      0.1538                 0.2040                 0.2199
 IR Inten    --      8.0108                13.3100                41.3662

                     16                     17                     18
                      A                      A                      A
 Frequencies --    344.3950               366.6184               387.4421
 Red. masses --      3.0404                 5.3516                 5.3262
 Frc consts  --      0.2125                 0.4238                 0.4711
 IR Inten    --      5.6015               101.7671                20.9574

                     19                     20                     21
                      A                      A                      A
 Frequencies --    394.7770               425.4143               476.2678
 Red. masses --      1.3769                 2.7306                 3.9937
 Frc consts  --      0.1264                 0.2912                 0.5337
 IR Inten    --     41.4259                 2.6630                44.2328

                     22                     23                     24
                      A                      A                      A
 Frequencies --    555.9818               585.6075               639.6151
 Red. masses --      3.1389                 3.4717                 6.2591
 Frc consts  --      0.5717                 0.7015                 1.5087
 IR Inten    --     47.9454                37.3311                 3.6044

                     25                     26                     27
                      A                      A                      A
 Frequencies --    680.8584               718.7967               728.9703
 Red. masses --      3.3290                 4.2436                 1.5595
 Frc consts  --      0.9092                 1.2918                 0.4883
 IR Inten    --     29.5456               244.6977                62.4360

                     28                     29                     30
                      A                      A                      A
 Frequencies --    760.4325               799.0280               812.8497
 Red. masses --      2.7475                 3.4483                 3.1744
 Frc consts  --      0.9361                 1.2971                 1.2358
 IR Inten    --      3.2208                53.3226                24.4441

                     31                     32                     33
                      A                      A                      A
 Frequencies --    827.5101               876.2009               949.8264
 Red. masses --      3.4515                 1.2476                 1.4726
 Frc consts  --      1.3925                 0.5643                 0.7828
 IR Inten    --     72.3576                 1.3558                 3.0793

                     34                     35                     36
                      A                      A                      A
 Frequencies --    996.8090              1009.8149              1018.7532
 Red. masses --      2.2354                 1.4091                 1.2889
 Frc consts  --      1.3086                 0.8466                 0.7882
 IR Inten    --      4.6018                 0.7626                18.4950

                     37                     38                     39
                      A                      A                      A
 Frequencies --   1025.0925              1026.1521              1045.8063
 Red. masses --      3.4907                 1.4987                 1.1735
 Frc consts  --      2.1612                 0.9298                 0.7562
 IR Inten    --      1.6367                 0.0964                53.1312

                     40                     41                     42
                      A                      A                      A
 Frequencies --   1062.2860              1083.0084              1111.4555
 Red. masses --      2.2471                 4.2756                 1.6463
 Frc consts  --      1.4940                 2.9547                 1.1983
 IR Inten    --     14.1513                61.7589                21.7662

                     43                     44                     45
                      A                      A                      A
 Frequencies --   1131.5071              1155.3059              1175.7255
 Red. masses --      2.9218                 1.2837                 1.4679
 Frc consts  --      2.2040                 1.0095                 1.1955
 IR Inten    --     36.6624                 1.6989                45.6306

                     46                     47                     48
                      A                      A                      A
 Frequencies --   1182.4232              1184.6477              1211.1091
 Red. masses --      1.1311                 1.7690                 1.1375
 Frc consts  --      0.9318                 1.4627                 0.9830
 IR Inten    --      0.1808                37.3222                10.1777

                     49                     50                     51
                      A                      A                      A
 Frequencies --   1213.3695              1237.3124              1293.1072
 Red. masses --      1.2601                 1.3752                 2.2239
 Frc consts  --      1.0930                 1.2405                 2.1909
 IR Inten    --     27.0915                49.7858               270.9914

                     52                     53                     54
                      A                      A                      A
 Frequencies --   1303.1230              1340.5388              1347.0575
 Red. masses --      3.4058                 1.3293                 2.5481
 Frc consts  --      3.4075                 1.4074                 2.7241
 IR Inten    --     22.6862                 7.6704               343.8437

                     55                     56                     57
                      A                      A                      A
 Frequencies --   1365.9910              1427.9516              1456.3380
 Red. masses --      1.5985                 3.8329                 1.2289
 Frc consts  --      1.7574                 4.6048                 1.5356
 IR Inten    --    125.3352               394.5632                32.2836

                     58                     59                     60
                      A                      A                      A
 Frequencies --   1466.7196              1474.0432              1488.5390
 Red. masses --      1.2791                 1.0446                 2.2726
 Frc consts  --      1.6213                 1.3373                 2.9668
 IR Inten    --     48.7656                13.2235                17.9176

                     61                     62                     63
                      A                      A                      A
 Frequencies --   1494.3256              1500.8253              1508.9447
 Red. masses --      1.0407                 1.0379                 1.0851
 Frc consts  --      1.3692                 1.3774                 1.4557
 IR Inten    --     15.0781                26.9318                12.9916

                     64                     65                     66
                      A                      A                      A
 Frequencies --   1545.4375              1556.1587              1637.7985
 Red. masses --      2.4519                 1.9309                 5.7613
 Frc consts  --      3.4503                 2.7550                 9.1052
 IR Inten    --     53.6845               597.2837               366.4607

                     67                     68                     69
                      A                      A                      A
 Frequencies --   1643.8682              1648.5722              1671.2071
 Red. masses --      2.5678                 1.4520                 5.8681
 Frc consts  --      4.0884                 2.3250                 9.6563
 IR Inten    --    336.2592               131.7321                 9.8100

                     70                     71                     72
                      A                      A                      A
 Frequencies --   3042.3657              3073.9595              3099.0534
 Red. masses --      1.0377                 1.0330                 1.1021
 Frc consts  --      5.6590                 5.7512                 6.2363
 IR Inten    --     97.9722                26.8341                50.5966

                     73                     74                     75
                      A                      A                      A
 Frequencies --   3153.0346              3155.1096              3175.5895
 Red. masses --      1.1012                 1.1045                 1.1064
 Frc consts  --      6.4502                 6.4783                 6.5737
 IR Inten    --     26.7453                 7.1869                 8.8004

                     76                     77                     78
                      A                      A                      A
 Frequencies --   3188.4794              3192.0804              3202.3730
 Red. masses --      1.0857                 1.0875                 1.0912
 Frc consts  --      6.5035                 6.5286                 6.5935
 IR Inten    --     10.1245                 3.0991                15.5641

                     79                     80                     81
                      A                      A                      A
 Frequencies --   3208.2114              3213.9706              3220.1449
 Red. masses --      1.0950                 1.0901                 1.0987
 Frc consts  --      6.6401                 6.6341                 6.7124
 IR Inten    --     56.2947                 4.5781                17.2999

                     82                     83                     84
                      A                      A                      A
 Frequencies --   3514.6708              3595.5947              3683.6051
 Red. masses --      1.0509                 1.0965                 1.0777
 Frc consts  --      7.6489                 8.3521                 8.6161
 IR Inten    --     48.0356                54.2086                76.3850

 - Thermochemistry -
 -------------------
 Temperature   298.150 Kelvin.  Pressure   1.00000 Atm.
 Atom     1 has atomic number  6 and mass  12.00000

 Molecular mass:   226.08729 amu.
 Principal axes and moments of inertia in atomic units:
                           1         2         3
     Eigenvalues --  3271.376223774.490315470.70736
           X            0.99969   0.01577  -0.01913
           Y           -0.01654   0.99902  -0.04115
           Z            0.01847   0.04145   0.99897
 This molecule is an asymmetric top.
 Rotational symmetry number  1.
 Warning -- assumption of classical behavior for rotation
           may cause significant error
 Rotational temperatures (Kelvin)      0.02648     0.02295     0.01583
 Rotational constants (GHZ):           0.55168     0.47814     0.32989
    1 imaginary frequencies ignored.
 Zero-point vibrational energy     652511.6 (Joules/Mol)
                                  155.95402 (Kcal/Mol)
 Warning -- explicit consideration of  22 degrees of freedom as
           vibrations may cause significant error
 Vibrational temperatures:     35.96    77.92    97.10   110.44   123.44
          (Kelvin)            139.42   181.73   194.05   201.66   262.40
                              285.50   333.67   391.96   444.40   495.51
                              527.48   557.44   568.00   612.08   685.24
                              799.93   842.56   920.26   979.60  1034.19
                             1048.83  1094.09  1149.62  1169.51  1190.60
                             1260.66  1366.59  1434.19  1452.90  1465.76
                             1474.88  1476.40  1504.68  1528.39  1558.21
                             1599.14  1627.99  1662.23  1691.61  1701.24
                             1704.44  1742.52  1745.77  1780.22  1860.49
                             1874.90  1928.74  1938.12  1965.36  2054.50
                             2095.35  2110.28  2120.82  2141.68  2150.00
                             2159.35  2171.03  2223.54  2238.97  2356.43
                             2365.16  2371.93  2404.49  4377.29  4422.74
                             4458.85  4536.51  4539.50  4568.97  4587.51
                             4592.69  4607.50  4615.90  4624.19  4633.07
                             5056.83  5173.26  5299.89

 Zero-point correction=                           0.248529 (Hartree/Particle)
 Thermal correction to Energy=                    0.264355
 Thermal correction to Enthalpy=                  0.265300
 Thermal correction to Gibbs Free Energy=         0.203730
 Sum of electronic and zero-point Energies=          -1072.897985
 Sum of electronic and thermal Energies=             -1072.882158
 Sum of electronic and thermal Enthalpies=           -1072.881214
 Sum of electronic and thermal Free Energies=        -1072.942783

                     E (Thermal)             CV                S
                      KCal/Mol        Cal/Mol-Kelvin    Cal/Mol-Kelvin
 Total                  165.886             56.735            129.583
 Electronic               0.000              0.000              0.000
 Translational            0.889              2.981             42.150
 Rotational               0.889              2.981             32.580
 Vibrational            164.108             50.773             54.854
 Vibration     1          0.593              1.985              6.192
 Vibration     2          0.596              1.976              4.660
 Vibration     3          0.598              1.970              4.225
 Vibration     4          0.599              1.965              3.972
 Vibration     5          0.601              1.959              3.754
 Vibration     6          0.603              1.951              3.516
 Vibration     7          0.611              1.927              3.001
 Vibration     8          0.613              1.919              2.875
 Vibration     9          0.615              1.913              2.802
 Vibration    10          0.630              1.864              2.304
 Vibration    11          0.637              1.842              2.148
 Vibration    12          0.653              1.792              1.864
 Vibration    13          0.675              1.724              1.581
 Vibration    14          0.698              1.657              1.368
 Vibration    15          0.723              1.587              1.192
 Vibration    16          0.740              1.541              1.094
 Vibration    17          0.756              1.497              1.010
 Vibration    18          0.762              1.481              0.982
 Vibration    19          0.787              1.415              0.874
 Vibration    20          0.833              1.303              0.720
 Vibration    21          0.911              1.127              0.532
 Vibration    22          0.943              1.063              0.475

 Optimization completed.
    -- Stationary point found.
 Normal termination of Gaussian 16 at Fri Feb 26 02:51:34 2021.
