 Gaussian 16, Revision A.03,
 Gaussian 16:  ES64L-G16RevA.03 25-Dec-2016

 ----------------------------------------------------------------------
 # wB97XD def2tzvp, opt=(ts, noeigen, calcfc, maxcycles=70, maxstep=3),
  freq=noraman, scrf=(iefpcm, solvent=water)
 ----------------------------------------------------------------------

 ------------------------
 3_iteration/TS-824-3.out
 ------------------------
 Symbolic Z-matrix:
 Charge =  0 Multiplicity = 1

 SCF Done:  E(RwB97XD) =  -1248.81099763     A.U. after   15 cycles
 SCF Done:  E(RwB97XD) =  -1248.81102342     A.U. after   11 cycles
 SCF Done:  E(RwB97XD) =  -1248.81102570     A.U. after   10 cycles
 SCF Done:  E(RwB97XD) =  -1248.81102574     A.U. after    7 cycles
 Optimization completed.
    -- Stationary point found.
 Normal termination of Gaussian 16 at Sat Feb 27 06:21:31 2021.

 ---------------------------------------------------------------------
 #N Geom=AllCheck Guess=TCheck SCRF=Check GenChk RwB97XD/def2TZVP Freq
 ---------------------------------------------------------------------

 Structure from the checkpoint file:  "/beegfs/scratch/user/q/tla25/Gau-3572.chk"
 ------------------------
 3_iteration/TS-824-3.out
 ------------------------
 Charge =  0 Multiplicity = 1

                         Standard orientation:
 ---------------------------------------------------------------------
 Center     Atomic      Atomic             Coordinates (Angstroms)
 Number     Number       Type             X           Y           Z
 ---------------------------------------------------------------------
      1          6           0        0.228087   -0.921417   -0.259555
      2          6           0        0.923342    0.089418    0.477325
      3          8           0        0.410286    0.856704    1.304777
      4          6           0       -1.173232   -0.886626   -0.291910
      5          6           0       -1.203353   -1.858432    2.355778
      6          1           0       -0.134199   -1.726172    2.193791
      7          1           0       -1.602678   -0.956614    2.812085
      8          1           0       -1.368600   -2.710737    3.013921
      9          7           0       -1.831447   -2.071419    1.054909
     10          1           0       -1.551299   -2.965638    0.668415
     11          1           0       -2.844463   -2.081445    1.102667
     12         17           0       -1.914739   -1.803007   -1.668549
     13          6           0       -1.937138    0.400059   -0.131189
     14          6           0       -1.595392    1.432123   -1.006478
     15          6           0       -2.267175    2.639894   -0.978764
     16          6           0       -3.304429    2.841462   -0.077540
     17          6           0       -3.659721    1.818904    0.784847
     18          6           0       -2.986363    0.604656    0.753633
     19          1           0       -0.785325    1.280090   -1.708211
     20          1           0       -1.979573    3.427437   -1.663735
     21          1           0       -3.831533    3.786527   -0.051752
     22          1           0       -4.467232    1.958371    1.492151
     23          1           0       -3.297639   -0.157855    1.450950
     24          6           0        0.965619   -2.086899   -0.876938
     25          1           0        0.491188   -3.039213   -0.623944
     26          1           0        1.011456   -2.038640   -1.968801
     27          1           0        1.987297   -2.139873   -0.506463
     28          6           0        2.399799    0.265860    0.219474
     29          6           0        2.901251    0.375439   -1.073613
     30          6           0        4.249089    0.623285   -1.287522
     31          6           0        5.113497    0.742801   -0.208116
     32          6           0        4.621427    0.628959    1.085371
     33          6           0        3.269530    0.404666    1.296306
     34          1           0        2.228730    0.273621   -1.917023
     35          1           0        4.625839    0.721005   -2.298013
     36          1           0        6.167552    0.926700   -0.374177
     37          1           0        5.292061    0.720515    1.930697
     38          1           0        2.877803    0.334443    2.303553
 ---------------------------------------------------------------------

 SCF Done:  E(RwB97XD) =  -1248.81102574     A.U. after    1 cycles

 The electronic state is 1-A.
 Alpha  occ. eigenvalues -- -101.69702 -19.20304 -14.49538 -10.40609 -10.35177
 Alpha  occ. eigenvalues --  -10.31750 -10.31389 -10.29680 -10.29294 -10.29288
 Alpha  occ. eigenvalues --  -10.29268 -10.29199 -10.29141 -10.29054 -10.29030
 Alpha  occ. eigenvalues --  -10.28981 -10.28957 -10.28918 -10.27265 -10.26509
 Alpha  occ. eigenvalues --   -9.58304  -7.32922  -7.32103  -7.32057  -1.11093
 Alpha  occ. eigenvalues --   -1.05203  -0.98639  -0.96518  -0.95736  -0.88607
 Alpha  occ. eigenvalues --   -0.86805  -0.85576  -0.85115  -0.84800  -0.79322
 Alpha  occ. eigenvalues --   -0.77983  -0.74146  -0.71132  -0.70585  -0.70340
 Alpha  occ. eigenvalues --   -0.67358  -0.65034  -0.62844  -0.60918  -0.58757
 Alpha  occ. eigenvalues --   -0.57985  -0.56648  -0.56257  -0.54686  -0.54064
 Alpha  occ. eigenvalues --   -0.53314  -0.53224  -0.52316  -0.51149  -0.51005
 Alpha  occ. eigenvalues --   -0.50403  -0.49012  -0.48568  -0.47768  -0.47006
 Alpha  occ. eigenvalues --   -0.46179  -0.46130  -0.45582  -0.44464  -0.43848
 Alpha  occ. eigenvalues --   -0.43166  -0.42968  -0.42358  -0.40018  -0.39279
 Alpha  occ. eigenvalues --   -0.34631  -0.34074  -0.33686  -0.33147  -0.30973
 Alpha  occ. eigenvalues --   -0.27360
 Alpha virt. eigenvalues --    0.02346   0.03536   0.04988   0.05339   0.06451
 Alpha virt. eigenvalues --    0.09722   0.10034   0.12450   0.13169   0.13689
 Alpha virt. eigenvalues --    0.14509   0.15279   0.15889   0.16134   0.16807

 Mulliken charges:
               1
     1  C   -0.277596
     2  C    0.296738
     3  O   -0.501985
     4  C    0.242848
     5  C   -0.276665
     6  H    0.155176
     7  H    0.152496
     8  H    0.160810
     9  N   -0.322216
    10  H    0.280446
    11  H    0.286252
    12  Cl  -0.130372
    13  C    0.236808
    14  C   -0.299387
    15  C   -0.136566
    16  C   -0.149360
    17  C   -0.164448
    18  C   -0.219344
    19  H    0.157988
    20  H    0.142755
    21  H    0.144528
    22  H    0.143800
    23  H    0.134061
    24  C   -0.407225
    25  H    0.122846
    26  H    0.132383
    27  H    0.145069
    28  C    0.130818
    29  C   -0.239483
    30  C   -0.143631
    31  C   -0.134099
    32  C   -0.152020
    33  C   -0.234786
    34  H    0.159087
    35  H    0.141581
    36  H    0.144475
    37  H    0.141215
    38  H    0.137003
 Sum of Mulliken charges =  -0.00000

 Dipole moment (field-independent basis, Debye):
    X=             -3.2615    Y=             -5.3999    Z=              1.5775  Tot=              6.5026
 Quadrupole moment (field-independent basis, Debye-Ang):
   XX=           -108.0066   YY=           -114.2848   ZZ=           -119.3948
   XY=              4.6508   XZ=            -12.5695   YZ=            -14.3555

  Exact polarizability: 360.660  15.093 283.966 -20.758   0.868 295.637
 Approx polarizability: 272.152   9.333 234.463 -18.004   1.086 255.998

 ******    1 imaginary frequencies (negative Signs) ******

                      1                      2                      3
                      A                      A                      A
 Frequencies --   -369.8304                27.0871                38.0444
 Red. masses --      5.4365                 4.7516                 3.7306
 Frc consts  --      0.4381                 0.0021                 0.0032
 IR Inten    --    844.3754                 0.9009                 1.0912

                      4                      5                      6
                      A                      A                      A
 Frequencies --     40.5235                58.3918                83.1609
 Red. masses --      3.8305                 5.2529                 5.6956
 Frc consts  --      0.0037                 0.0106                 0.0232
 IR Inten    --      0.3858                 1.9931                 3.4947

                      7                      8                      9
                      A                      A                      A
 Frequencies --    109.5716               116.8197               144.4605
 Red. masses --      3.7148                 3.6558                 3.0774
 Frc consts  --      0.0263                 0.0294                 0.0378
 IR Inten    --      2.0982                 2.9832                 4.5112

                     10                     11                     12
                      A                      A                      A
 Frequencies --    172.0880               181.4832               187.9299
 Red. masses --      1.3328                 2.2828                 1.9356
 Frc consts  --      0.0233                 0.0443                 0.0403
 IR Inten    --      2.2331                11.8863                 3.5256

                     13                     14                     15
                      A                      A                      A
 Frequencies --    208.0110               221.2590               234.4815
 Red. masses --      2.6326                 4.1550                 4.8689
 Frc consts  --      0.0671                 0.1198                 0.1577
 IR Inten    --      2.8160                 4.6456                 1.1463

                     16                     17                     18
                      A                      A                      A
 Frequencies --    265.2584               279.9620               303.7067
 Red. masses --      2.6695                 4.5330                 4.2095
 Frc consts  --      0.1107                 0.2093                 0.2288
 IR Inten    --      7.1500                 9.1901                13.9606

                     19                     20                     21
                      A                      A                      A
 Frequencies --    334.7310               340.4663               377.3498
 Red. masses --      3.4555                 4.5483                 5.7775
 Frc consts  --      0.2281                 0.3106                 0.4847
 IR Inten    --      7.9389                16.1336                21.8044

                     22                     23                     24
                      A                      A                      A
 Frequencies --    399.0857               419.3072               420.1314
 Red. masses --      5.0690                 2.8482                 2.8798
 Frc consts  --      0.4757                 0.2950                 0.2995
 IR Inten    --     13.1475                 0.1471                 0.4962

                     25                     26                     27
                      A                      A                      A
 Frequencies --    482.6971               535.1388               572.1956
 Red. masses --      3.9226                 3.5906                 3.9599
 Frc consts  --      0.5385                 0.6058                 0.7639
 IR Inten    --     26.4684                 6.3197               199.3086

                     28                     29                     30
                      A                      A                      A
 Frequencies --    590.7766               622.7615               636.0982
 Red. masses --      3.1167                 5.3490                 6.4149
 Frc consts  --      0.6409                 1.2223                 1.5293
 IR Inten    --      8.0504               149.9453                 0.2572

                     31                     32                     33
                      A                      A                      A
 Frequencies --    638.9557               687.0810               693.0277
 Red. masses --      6.3283                 3.7919                 2.2157
 Frc consts  --      1.5222                 1.0547                 0.6270
 IR Inten    --      6.3938                45.0873                33.7638

                     34                     35                     36
                      A                      A                      A
 Frequencies --    716.4125               724.1822               742.3441
 Red. masses --      1.6757                 1.5943                 3.7991
 Frc consts  --      0.5067                 0.4926                 1.2335
 IR Inten    --     61.6327                81.3871               158.6330

                     37                     38                     39
                      A                      A                      A
 Frequencies --    758.7515               797.8121               826.9817
 Red. masses --      3.3227                 2.3621                 2.9026
 Frc consts  --      1.1270                 0.8858                 1.1696
 IR Inten    --     98.2154                22.4540                25.5853

                     40                     41                     42
                      A                      A                      A
 Frequencies --    862.9055               879.1367               894.5396
 Red. masses --      1.2631                 1.2503                 3.3308
 Frc consts  --      0.5541                 0.5694                 1.5703
 IR Inten    --      0.8887                 0.6582               132.7010

                     43                     44                     45
                      A                      A                      A
 Frequencies --    945.7395               962.2538               993.7410
 Red. masses --      1.4927                 1.4876                 1.1810
 Frc consts  --      0.7866                 0.8115                 0.6871
 IR Inten    --      2.3107                 4.8440                32.9462

                     46                     47                     48
                      A                      A                      A
 Frequencies --   1006.9383              1012.8444              1021.7918
 Red. masses --      1.4043                 1.3874                 2.9537
 Frc consts  --      0.8389                 0.8386                 1.8169
 IR Inten    --      1.0199                 3.4382                31.9223

                     49                     50                     51
                      A                      A                      A
 Frequencies --   1023.7973              1026.1233              1027.4684
 Red. masses --      5.3362                 5.8484                 1.3309
 Frc consts  --      3.2954                 3.6282                 0.8278
 IR Inten    --     14.0155                 3.4635                 3.1249

                     52                     53                     54
                      A                      A                      A
 Frequencies --   1030.3255              1032.9563              1061.5823
 Red. masses --      1.3707                 2.1104                 1.8086
 Frc consts  --      0.8573                 1.3267                 1.2009
 IR Inten    --      1.0492               188.2550                16.6008

                     55                     56                     57
                      A                      A                      A
 Frequencies --   1064.5603              1065.1798              1072.1079
 Red. masses --      1.4387                 1.4275                 1.7925
 Frc consts  --      0.9606                 0.9543                 1.2139
 IR Inten    --     12.7564                28.8640                16.0727

                     58                     59                     60
                      A                      A                      A
 Frequencies --   1081.2315              1108.6430              1129.2969
 Red. masses --      3.5178                 1.5222                 1.5906
 Frc consts  --      2.4230                 1.1023                 1.1951
 IR Inten    --     81.3342                14.3485                 9.2161

                     61                     62                     63
                      A                      A                      A
 Frequencies --   1183.0611              1185.6662              1200.3989
 Red. masses --      1.1387                 1.1363                 1.1420
 Frc consts  --      0.9390                 0.9412                 0.9695
 IR Inten    --      0.3121                 0.3477                 6.5145

                     64                     65                     66
                      A                      A                      A
 Frequencies --   1215.5463              1221.2627              1224.3718
 Red. masses --      3.5159                 3.2852                 1.1643
 Frc consts  --      3.0608                 2.8869                 1.0283
 IR Inten    --     98.5759                24.4643                 3.0277

                     67                     68                     69
                      A                      A                      A
 Frequencies --   1238.7406              1318.9222              1324.5226
 Red. masses --      1.4663                 4.8068                 3.9115
 Frc consts  --      1.3257                 4.9266                 4.0431
 IR Inten    --     19.9075                10.4625                20.6056

                     70                     71                     72
                      A                      A                      A
 Frequencies --   1338.7594              1352.4161              1368.0376
 Red. masses --      1.3433                 1.6021                 1.4078
 Frc consts  --      1.4185                 1.7265                 1.5523
 IR Inten    --      1.8276                15.1246                10.3332

                     73                     74                     75
                      A                      A                      A
 Frequencies --   1376.2769              1400.6836              1429.6671
 Red. masses --      5.2801                 4.8812                 1.2215
 Frc consts  --      5.8926                 5.6423                 1.4711
 IR Inten    --    233.2729              1106.8268                 9.7607

                     76                     77                     78
                      A                      A                      A
 Frequencies --   1464.2188              1482.9496              1486.7026
 Red. masses --      1.2137                 1.0510                 1.0625
 Frc consts  --      1.5331                 1.3618                 1.3837
 IR Inten    --      9.2576                18.3528                19.9915

                     79                     80                     81
                      A                      A                      A
 Frequencies --   1489.3146              1489.9306              1499.6718
 Red. masses --      2.0437                 2.1698                 1.1034
 Frc consts  --      2.6709                 2.8379                 1.4621
 IR Inten    --     10.2280                28.1880               146.9469

                     82                     83                     84
                      A                      A                      A
 Frequencies --   1502.1215              1538.1865              1545.7203
 Red. masses --      1.0404                 2.3344                 2.3029
 Frc consts  --      1.3831                 3.2542                 3.2418
 IR Inten    --     15.3353                 2.3166                32.6334

                     85                     86                     87
                      A                      A                      A
 Frequencies --   1631.5829              1650.0780              1656.1535
 Red. masses --      8.7455                 2.3551                 4.2903
 Frc consts  --     13.7168                 3.7780                 6.9332
 IR Inten    --    461.0772                39.7822                66.6099

                     88                     89                     90
                      A                      A                      A
 Frequencies --   1659.5906              1673.3613              1676.3870
 Red. masses --      1.7761                 5.9723                 5.3771
 Frc consts  --      2.8821                 9.8531                 8.9032
 IR Inten    --     66.3321                10.5640                 1.4946

                     91                     92                     93
                      A                      A                      A
 Frequencies --   3032.8245              3075.0870              3079.3500
 Red. masses --      1.0416                 1.0336                 1.1013
 Frc consts  --      5.6448                 5.7589                 6.1528
 IR Inten    --     76.0231                36.4986                48.1037

                     94                     95                     96
                      A                      A                      A
 Frequencies --   3148.2432              3153.5539              3181.2459
 Red. masses --      1.0954                 1.1048                 1.1050
 Frc consts  --      6.3966                 6.4736                 6.5889
 IR Inten    --     31.4548                 4.7301                12.3561

                     97                     98                     99
                      A                      A                      A
 Frequencies --   3191.6980              3197.1805              3197.4390
 Red. masses --      1.0858                 1.0878                 1.0861
 Frc consts  --      6.5168                 6.5516                 6.5420
 IR Inten    --      2.3018                 0.3170                 0.7950

                    100                    101                    102
                      A                      A                      A
 Frequencies --   3204.8514              3205.3830              3211.9542
 Red. masses --      1.0915                 1.0892                 1.0951
 Frc consts  --      6.6053                 6.5935                 6.6566
 IR Inten    --     10.5370                 3.7765                41.0572

                    103                    104                    105
                      A                      A                      A
 Frequencies --   3214.2103              3221.0509              3223.1592
 Red. masses --      1.0936                 1.0988                 1.0979
 Frc consts  --      6.6566                 6.7170                 6.7198
 IR Inten    --     22.8089                23.1886                24.5731

                    106                    107                    108
                      A                      A                      A
 Frequencies --   3245.3177              3524.0927              3598.0650
 Red. masses --      1.0922                 1.0516                 1.0951
 Frc consts  --      6.7772                 7.6946                 8.3533
 IR Inten    --     22.7358                50.4420                45.7403

 - Thermochemistry -
 -------------------
 Temperature   298.150 Kelvin.  Pressure   1.00000 Atm.
 Atom     1 has atomic number  6 and mass  12.00000

 Molecular mass:   287.10769 amu.
 Principal axes and moments of inertia in atomic units:
                           1         2         3
     Eigenvalues --  3681.303798605.765669557.15327
           X            0.99984  -0.00958  -0.01534
           Y            0.00838   0.99703  -0.07656
           Z            0.01602   0.07642   0.99695
 This molecule is an asymmetric top.
 Rotational symmetry number  1.
 Warning -- assumption of classical behavior for rotation
           may cause significant error
 Rotational temperatures (Kelvin)      0.02353     0.01006     0.00906
 Rotational constants (GHZ):           0.49025     0.20971     0.18884
    1 imaginary frequencies ignored.
 Zero-point vibrational energy     819565.8 (Joules/Mol)
                                  195.88092 (Kcal/Mol)
 Warning -- explicit consideration of  27 degrees of freedom as
           vibrations may cause significant error
 Vibrational temperatures:     38.97    54.74    58.30    84.01   119.65
          (Kelvin)            157.65   168.08   207.85   247.60   261.11
                              270.39   299.28   318.34   337.37   381.65
                              402.80   436.97   481.60   489.86   542.92
                              574.20   603.29   604.48   694.49   769.95
                              823.26   850.00   896.01   915.20   919.31
                              988.56   997.11  1030.76  1041.94  1068.07
                             1091.67  1147.87  1189.84  1241.53  1264.88
                             1287.04  1360.71  1384.47  1429.77  1448.76
                             1457.26  1470.13  1473.02  1476.36  1478.30
                             1482.41  1486.19  1527.38  1531.66  1532.56
                             1542.52  1555.65  1595.09  1624.81  1702.16
                             1705.91  1727.11  1748.90  1757.12  1761.60
                             1782.27  1897.63  1905.69  1926.18  1945.83
                             1968.30  1980.16  2015.27  2056.97  2106.68
                             2133.63  2139.03  2142.79  2143.68  2157.69
                             2161.22  2213.11  2223.95  2347.48  2374.09
                             2382.84  2387.78  2407.59  2411.95  4363.56
                             4424.36  4430.50  4529.62  4537.26  4577.10
                             4592.14  4600.03  4600.40  4611.07  4611.83
                             4621.29  4624.53  4634.37  4637.41  4669.29
                             5070.38  5176.81

 Zero-point correction=                           0.312156 (Hartree/Particle)
 Thermal correction to Energy=                    0.330895
 Thermal correction to Enthalpy=                  0.331839
 Thermal correction to Gibbs Free Energy=         0.264017
 Sum of electronic and zero-point Energies=          -1248.498870
 Sum of electronic and thermal Energies=             -1248.480131
 Sum of electronic and thermal Enthalpies=           -1248.479186
 Sum of electronic and thermal Free Energies=        -1248.547009

                     E (Thermal)             CV                S
                      KCal/Mol        Cal/Mol-Kelvin    Cal/Mol-Kelvin
 Total                  207.640             71.334            142.745
 Electronic               0.000              0.000              0.000
 Translational            0.889              2.981             42.862
 Rotational               0.889              2.981             34.070
 Vibrational            205.862             65.373             65.813
 Vibration     1          0.593              1.984              6.032
 Vibration     2          0.594              1.982              5.358
 Vibration     3          0.594              1.981              5.233
 Vibration     4          0.596              1.974              4.511
 Vibration     5          0.600              1.961              3.815
 Vibration     6          0.606              1.942              3.276
 Vibration     7          0.608              1.935              3.152
 Vibration     8          0.616              1.909              2.744
 Vibration     9          0.626              1.877              2.413
 Vibration    10          0.630              1.865              2.313
 Vibration    11          0.633              1.856              2.248
 Vibration    12          0.641              1.828              2.061
 Vibration    13          0.648              1.809              1.949
 Vibration    14          0.654              1.788              1.844
 Vibration    15          0.671              1.737              1.627
 Vibration    16          0.680              1.711              1.534
 Vibration    17          0.695              1.667              1.396
 Vibration    18          0.716              1.606              1.237
 Vibration    19          0.720              1.595              1.210
 Vibration    20          0.748              1.518              1.050
 Vibration    21          0.765              1.472              0.966
 Vibration    22          0.782              1.428              0.894
 Vibration    23          0.783              1.426              0.892
 Vibration    24          0.839              1.288              0.703
 Vibration    25          0.890              1.172              0.576
 Vibration    26          0.928              1.091              0.500
 Vibration    27          0.948              1.051              0.466

 Optimization completed.
    -- Stationary point found.
 Normal termination of Gaussian 16 at Sat Feb 27 08:51:24 2021.
