 Gaussian 16, Revision A.03,
 Gaussian 16:  ES64L-G16RevA.03 25-Dec-2016

 ----------------------------------------------------------------------
 # wB97XD def2tzvp, opt=(ts, noeigen, calcfc, maxcycles=70, maxstep=3),
  freq=noraman, scrf=(iefpcm, solvent=water)
 ----------------------------------------------------------------------

 ------------------------
 0_iteration/TS-885-0.out
 ------------------------
 Symbolic Z-matrix:
 Charge =  0 Multiplicity = 1

 SCF Done:  E(RwB97XD) =  -1112.45974030     A.U. after   14 cycles
 SCF Done:  E(RwB97XD) =  -1112.45986295     A.U. after   10 cycles
 SCF Done:  E(RwB97XD) =  -1112.45992418     A.U. after   10 cycles
 SCF Done:  E(RwB97XD) =  -1112.45993979     A.U. after   10 cycles
 SCF Done:  E(RwB97XD) =  -1112.45994424     A.U. after    9 cycles
 SCF Done:  E(RwB97XD) =  -1112.45994324     A.U. after   10 cycles
 SCF Done:  E(RwB97XD) =  -1112.45994217     A.U. after    9 cycles
 SCF Done:  E(RwB97XD) =  -1112.45994485     A.U. after    9 cycles
 SCF Done:  E(RwB97XD) =  -1112.45994507     A.U. after    8 cycles
 SCF Done:  E(RwB97XD) =  -1112.45994507     A.U. after    7 cycles
 Optimization completed.
    -- Stationary point found.
 Normal termination of Gaussian 16 at Sun Mar 28 08:35:10 2021.

 ---------------------------------------------------------------------
 #N Geom=AllCheck Guess=TCheck SCRF=Check GenChk RwB97XD/def2TZVP Freq
 ---------------------------------------------------------------------

 Structure from the checkpoint file:  "/beegfs/scratch/user/q/tla25/Gau-15842.chk"
 ------------------------
 0_iteration/TS-885-0.out
 ------------------------
 Charge =  0 Multiplicity = 1

                         Standard orientation:
 ---------------------------------------------------------------------
 Center     Atomic      Atomic             Coordinates (Angstroms)
 Number     Number       Type             X           Y           Z
 ---------------------------------------------------------------------
      1          6           0       -0.420886    0.260679   -0.260203
      2          6           0       -0.820187    1.653264   -0.230977
      3          8           0       -1.979927    2.086419   -0.343534
      4          6           0       -1.352933   -0.778466   -0.381050
      5          6           0       -2.040809   -0.728269    2.266612
      6          1           0       -1.547217    0.234855    2.126428
      7          1           0       -3.115387   -0.599601    2.167899
      8          1           0       -1.810631   -1.114091    3.258060
      9          7           0       -1.559983   -1.633814    1.225453
     10          1           0       -2.160415   -2.444073    1.112166
     11          1           0       -0.627326   -1.973686    1.436496
     12         17           0       -0.728877   -2.265402   -1.263441
     13          6           0       -2.787328   -0.557683   -0.778414
     14          1           0       -3.255047    0.165759   -0.118131
     15          1           0       -2.820696   -0.149733   -1.787268
     16          1           0       -3.335851   -1.498347   -0.762936
     17          6           0        1.021651   -0.071986   -0.052941
     18          6           0        1.543147   -0.276477    1.225604
     19          6           0        2.884692   -0.578095    1.420244
     20          6           0        3.739723   -0.669421    0.332693
     21          6           0        3.244575   -0.453804   -0.946659
     22          6           0        1.902729   -0.159173   -1.132914
     23          1           0        0.892440   -0.177911    2.087302
     24          1           0        3.261663   -0.734775    2.423332
     25          1           0        4.786957   -0.901693    0.480154
     26          1           0        3.906237   -0.516954   -1.801829
     27          1           0        1.519229    0.005256   -2.132743
     28          7           0        0.194095    2.559772   -0.060720
     29          6           0       -0.041156    3.980265   -0.121540
     30          1           0        1.142914    2.235377   -0.060106
     31          1           0        0.901966    4.494842    0.054622
     32          1           0       -0.431868    4.292682   -1.094295
     33          1           0       -0.754731    4.295883    0.641744
 ---------------------------------------------------------------------

 SCF Done:  E(RwB97XD) =  -1112.45994507     A.U. after    1 cycles

 The electronic state is 1-A.
 Alpha  occ. eigenvalues -- -101.68537 -19.18542 -14.50150 -14.43313 -10.40051
 Alpha  occ. eigenvalues --  -10.36626 -10.32135 -10.30134 -10.29707 -10.28925
 Alpha  occ. eigenvalues --  -10.28867 -10.28811 -10.28772 -10.28533 -10.28048
 Alpha  occ. eigenvalues --  -10.25396  -9.57155  -7.31742  -7.30966  -7.30928
 Alpha  occ. eigenvalues --   -1.11317  -1.05882  -1.00029  -0.96981  -0.95398
 Alpha  occ. eigenvalues --   -0.88034  -0.84884  -0.84830  -0.80955  -0.79731
 Alpha  occ. eigenvalues --   -0.77560  -0.70213  -0.69563  -0.67896  -0.64474
 Alpha  occ. eigenvalues --   -0.64263  -0.61480  -0.59176  -0.57591  -0.56257
 Alpha  occ. eigenvalues --   -0.55416  -0.54061  -0.52941  -0.52621  -0.52050
 Alpha  occ. eigenvalues --   -0.50693  -0.50184  -0.49652  -0.48525  -0.47439
 Alpha  occ. eigenvalues --   -0.46721  -0.46178  -0.45712  -0.45201  -0.44482
 Alpha  occ. eigenvalues --   -0.42437  -0.42100  -0.39255  -0.38860  -0.34112
 Alpha  occ. eigenvalues --   -0.33806  -0.32347  -0.31513  -0.26469
 Alpha virt. eigenvalues --    0.05122   0.05208   0.07462   0.08493   0.10161
 Alpha virt. eigenvalues --    0.12495   0.13453   0.13895   0.14358   0.15548
 Alpha virt. eigenvalues --    0.15686   0.16657   0.16950   0.18200   0.18364

 Mulliken charges:
               1
     1  C   -0.301549
     2  C    0.373851
     3  O   -0.573706
     4  C    0.151162
     5  C   -0.334221
     6  H    0.163907
     7  H    0.171984
     8  H    0.170467
     9  N   -0.267286
    10  H    0.293972
    11  H    0.286815
    12  Cl  -0.172212
    13  C   -0.349590
    14  H    0.151708
    15  H    0.142076
    16  H    0.139796
    17  C    0.145412
    18  C   -0.290501
    19  C   -0.159128
    20  C   -0.136377
    21  C   -0.136678
    22  C   -0.239814
    23  H    0.168835
    24  H    0.139825
    25  H    0.142902
    26  H    0.139794
    27  H    0.134237
    28  N   -0.322960
    29  C   -0.258588
    30  H    0.254260
    31  H    0.134506
    32  H    0.116365
    33  H    0.120735
 Sum of Mulliken charges =  -0.00000

 Dipole moment (field-independent basis, Debye):
    X=              1.0070    Y=             -4.6899    Z=              5.6399  Tot=              7.4039
 Quadrupole moment (field-independent basis, Debye-Ang):
   XX=            -95.9041   YY=           -104.4221   ZZ=            -93.9718
   XY=             16.9850   XZ=             -8.6314   YZ=             -7.9483

  Exact polarizability: 260.712  -2.261 240.160  -4.422  -3.665 228.492
 Approx polarizability: 208.984  -5.378 188.723  -3.504  -2.237 195.206

 ******    1 imaginary frequencies (negative Signs) ******

                      1                      2                      3
                      A                      A                      A
 Frequencies --   -358.1605                36.0150                48.0467
 Red. masses --      5.7406                 4.0246                 3.4495
 Frc consts  --      0.4339                 0.0031                 0.0047
 IR Inten    --    676.4173                 2.3467                 8.1677

                      4                      5                      6
                      A                      A                      A
 Frequencies --     60.5580                69.4811                78.0006
 Red. masses --      4.9079                 5.0057                 2.6369
 Frc consts  --      0.0106                 0.0142                 0.0095
 IR Inten    --     35.7644                 0.7502                 5.7571

                      7                      8                      9
                      A                      A                      A
 Frequencies --    100.0085               137.7146               144.0392
 Red. masses --      3.3619                 1.4179                 2.6934
 Frc consts  --      0.0198                 0.0158                 0.0329
 IR Inten    --      3.9772                 1.8146                 4.8733

                     10                     11                     12
                      A                      A                      A
 Frequencies --    150.9879               194.8614               216.6753
 Red. masses --      3.0809                 3.1170                 1.1457
 Frc consts  --      0.0414                 0.0697                 0.0317
 IR Inten    --      3.8997                 2.6707                 1.0185

                     13                     14                     15
                      A                      A                      A
 Frequencies --    238.7640               255.8520               286.7933
 Red. masses --      4.0976                 2.5382                 1.6346
 Frc consts  --      0.1376                 0.0979                 0.0792
 IR Inten    --     27.2379                 7.1959                21.7162

                     16                     17                     18
                      A                      A                      A
 Frequencies --    296.0721               308.4399               337.4676
 Red. masses --      2.7935                 3.2831                 3.2551
 Frc consts  --      0.1443                 0.1840                 0.2184
 IR Inten    --      9.4712                19.8674                27.7312

                     19                     20                     21
                      A                      A                      A
 Frequencies --    352.6468               357.3632               391.3515
 Red. masses --      1.5954                 2.8943                 3.1390
 Frc consts  --      0.1169                 0.2178                 0.2833
 IR Inten    --    110.6362                 8.7020                11.3149

                     22                     23                     24
                      A                      A                      A
 Frequencies --    402.5672               425.4730               475.1355
 Red. masses --      4.6380                 2.8776                 3.6154
 Frc consts  --      0.4429                 0.3069                 0.4809
 IR Inten    --     50.8729                 0.1528                22.8696

                     25                     26                     27
                      A                      A                      A
 Frequencies --    549.0081               580.5407               636.7394
 Red. masses --      4.0054                 4.3672                 4.2442
 Frc consts  --      0.7113                 0.8672                 1.0138
 IR Inten    --      9.3430                90.4384               124.1048

                     28                     29                     30
                      A                      A                      A
 Frequencies --    644.1991               679.2891               730.9420
 Red. masses --      3.9194                 5.9510                 1.4790
 Frc consts  --      0.9583                 1.6179                 0.4656
 IR Inten    --     92.9198                 5.9684               131.4537

                     31                     32                     33
                      A                      A                      A
 Frequencies --    747.8836               791.2996               797.9499
 Red. masses --      1.6915                 4.8231                 2.7611
 Frc consts  --      0.5574                 1.7793                 1.0358
 IR Inten    --     98.1193                37.5322                20.8301

                     34                     35                     36
                      A                      A                      A
 Frequencies --    822.3793               882.1157               954.9340
 Red. masses --      3.3721                 1.2452                 1.4644
 Frc consts  --      1.3437                 0.5709                 0.7868
 IR Inten    --     27.7202                 0.0733                 8.9285

                     37                     38                     39
                      A                      A                      A
 Frequencies --    979.9169              1009.6384              1014.6856
 Red. masses --      4.3412                 1.7264                 1.4539
 Frc consts  --      2.4561                 1.0369                 0.8820
 IR Inten    --     36.6244                14.5820                 0.7936

                     40                     41                     42
                      A                      A                      A
 Frequencies --   1027.0384              1029.1861              1033.0961
 Red. masses --      3.2908                 1.3796                 1.5387
 Frc consts  --      2.0451                 0.8610                 0.9676
 IR Inten    --      2.2632                 1.4402                24.1990

                     43                     44                     45
                      A                      A                      A
 Frequencies --   1056.1431              1062.0597              1077.6659
 Red. masses --      1.3858                 2.1219                 1.5664
 Frc consts  --      0.9107                 1.4102                 1.0718
 IR Inten    --     11.8891                35.0575               102.1327

                     46                     47                     48
                      A                      A                      A
 Frequencies --   1080.5242              1109.0539              1120.2855
 Red. masses --      2.5759                 1.5742                 1.9683
 Frc consts  --      1.7720                 1.1408                 1.4554
 IR Inten    --      4.1360                26.7230               105.0187

                     49                     50                     51
                      A                      A                      A
 Frequencies --   1156.9854              1174.4459              1182.3574
 Red. masses --      1.2983                 2.0179                 1.1345
 Frc consts  --      1.0239                 1.6399                 0.9345
 IR Inten    --      2.6576                24.6493                 0.1543

                     52                     53                     54
                      A                      A                      A
 Frequencies --   1190.5927              1207.9604              1246.9998
 Red. masses --      2.8263                 1.1242                 1.3723
 Frc consts  --      2.3605                 0.9665                 1.2573
 IR Inten    --     24.3719                 0.1325                53.8270

                     55                     56                     57
                      A                      A                      A
 Frequencies --   1271.5841              1303.2616              1323.4919
 Red. masses --      2.8112                 4.6460                 4.0429
 Frc consts  --      2.6781                 4.6494                 4.1724
 IR Inten    --     70.2762                 1.6879               687.6632

                     58                     59                     60
                      A                      A                      A
 Frequencies --   1340.1047              1356.1341              1407.6889
 Red. masses --      1.3136                 1.4488                 1.6192
 Frc consts  --      1.3899                 1.5699                 1.8904
 IR Inten    --     21.6284                 2.7911               321.1804

                     61                     62                     63
                      A                      A                      A
 Frequencies --   1439.8509              1454.4895              1459.0757
 Red. masses --      1.9929                 1.1816                 1.1706
 Frc consts  --      2.4343                 1.4728                 1.4683
 IR Inten    --    302.8397                59.9429                27.8805

                     64                     65                     66
                      A                      A                      A
 Frequencies --   1464.0729              1474.8142              1484.9230
 Red. masses --      1.1654                 1.0559                 2.0156
 Frc consts  --      1.4718                 1.3532                 2.6185
 IR Inten    --     14.0905                15.7413                 8.2869

                     67                     68                     69
                      A                      A                      A
 Frequencies --   1486.8191              1503.3452              1507.1874
 Red. masses --      1.2008                 1.0401                 1.0428
 Frc consts  --      1.5640                 1.3850                 1.3957
 IR Inten    --     49.2846                10.3143                16.2349

                     70                     71                     72
                      A                      A                      A
 Frequencies --   1509.0906              1541.1767              1543.8066
 Red. masses --      1.1111                 2.0900                 1.9132
 Frc consts  --      1.4909                 2.9249                 2.6865
 IR Inten    --     31.0357               278.3052               273.3058

                     73                     74                     75
                      A                      A                      A
 Frequencies --   1642.1887              1643.5545              1646.5878
 Red. masses --      5.2666                 1.5781                 2.3136
 Frc consts  --      8.3681                 2.5117                 3.6959
 IR Inten    --     12.6060               426.7315               380.0853

                     76                     77                     78
                      A                      A                      A
 Frequencies --   1670.3200              3037.3378              3071.2244
 Red. masses --      5.9385                 1.0396                 1.0348
 Frc consts  --      9.7616                 5.6508                 5.7507
 IR Inten    --      3.2583               113.1179                30.0411

                     79                     80                     81
                      A                      A                      A
 Frequencies --   3082.6791              3094.9902              3148.6674
 Red. masses --      1.0371                 1.0993                 1.1011
 Frc consts  --      5.8066                 6.2040                 6.4319
 IR Inten    --     20.8264                55.8344                28.9507

                     82                     83                     84
                      A                      A                      A
 Frequencies --   3151.4463              3159.2936              3179.5852
 Red. masses --      1.1027                 1.1032                 1.1057
 Frc consts  --      6.4527                 6.4877                 6.5862
 IR Inten    --      4.9294                18.2229                11.0032

                     85                     86                     87
                      A                      A                      A
 Frequencies --   3185.1500              3189.4389              3190.6498
 Red. masses --      1.0871                 1.1014                 1.0872
 Frc consts  --      6.4982                 6.6013                 6.5211
 IR Inten    --     11.2329                 1.9191                 2.3137

                     88                     89                     90
                      A                      A                      A
 Frequencies --   3200.1570              3207.7325              3219.1492
 Red. masses --      1.0910                 1.0949                 1.0988
 Frc consts  --      6.5827                 6.6380                 6.7088
 IR Inten    --     12.1465                46.5013                19.9773

                     91                     92                     93
                      A                      A                      A
 Frequencies --   3511.3261              3590.5069              3687.9461
 Red. masses --      1.0512                 1.0964                 1.0776
 Frc consts  --      7.6362                 8.3281                 8.6355
 IR Inten    --     46.7891                74.5137                69.3104

 - Thermochemistry -
 -------------------
 Temperature   298.150 Kelvin.  Pressure   1.00000 Atm.
 Atom     1 has atomic number  6 and mass  12.00000

 Molecular mass:   240.10294 amu.
 Principal axes and moments of inertia in atomic units:
                           1         2         3
     Eigenvalues --  3491.244634081.313155665.70965
           X            0.99931   0.03287  -0.01744
           Y           -0.03343   0.99890  -0.03283
           Z            0.01635   0.03339   0.99931
 This molecule is an asymmetric top.
 Rotational symmetry number  1.
 Warning -- assumption of classical behavior for rotation
           may cause significant error
 Rotational temperatures (Kelvin)      0.02481     0.02122     0.01529
 Rotational constants (GHZ):           0.51693     0.44220     0.31854
    1 imaginary frequencies ignored.
 Zero-point vibrational energy     725661.2 (Joules/Mol)
                                  173.43719 (Kcal/Mol)
 Warning -- explicit consideration of  25 degrees of freedom as
           vibrations may cause significant error
 Vibrational temperatures:     51.82    69.13    87.13    99.97   112.23
          (Kelvin)            143.89   198.14   207.24   217.24   280.36
                              311.75   343.53   368.11   412.63   425.98
                              443.78   485.54   507.38   514.17   563.07
                              579.20   612.16   683.61   789.90   835.27
                              916.13   926.86   977.35  1051.66  1076.04
                             1138.50  1148.07  1183.22  1269.17  1373.94
                             1409.88  1452.64  1459.91  1477.68  1480.77
                             1486.39  1519.55  1528.07  1550.52  1554.63
                             1595.68  1611.84  1664.64  1689.77  1701.15
                             1713.00  1737.99  1794.15  1829.53  1875.10
                             1904.21  1928.11  1951.17  2025.35  2071.62
                             2092.69  2099.28  2106.47  2121.93  2136.47
                             2139.20  2162.98  2168.51  2171.24  2217.41
                             2221.19  2362.74  2364.71  2369.07  2403.22
                             4370.05  4418.81  4435.29  4453.00  4530.23
                             4534.23  4545.52  4574.71  4582.72  4588.89
                             4590.63  4604.31  4615.21  4631.64  5052.02
                             5165.94  5306.13

 Zero-point correction=                           0.276390 (Hartree/Particle)
 Thermal correction to Energy=                    0.293497
 Thermal correction to Enthalpy=                  0.294441
 Thermal correction to Gibbs Free Energy=         0.230886
 Sum of electronic and zero-point Energies=          -1112.183555
 Sum of electronic and thermal Energies=             -1112.166448
 Sum of electronic and thermal Enthalpies=           -1112.165504
 Sum of electronic and thermal Free Energies=        -1112.229059

                     E (Thermal)             CV                S
                      KCal/Mol        Cal/Mol-Kelvin    Cal/Mol-Kelvin
 Total                  184.172             62.629            133.762
 Electronic               0.000              0.000              0.000
 Translational            0.889              2.981             42.329
 Rotational               0.889              2.981             32.757
 Vibrational            182.395             56.667             58.677
 Vibration     1          0.594              1.982              5.467
 Vibration     2          0.595              1.978              4.896
 Vibration     3          0.597              1.973              4.439
 Vibration     4          0.598              1.969              4.168
 Vibration     5          0.599              1.964              3.941
 Vibration     6          0.604              1.949              3.454
 Vibration     7          0.614              1.916              2.835
 Vibration     8          0.616              1.909              2.750
 Vibration     9          0.618              1.902              2.660
 Vibration    10          0.636              1.847              2.181
 Vibration    11          0.646              1.816              1.987
 Vibration    12          0.657              1.781              1.812
 Vibration    13          0.666              1.753              1.690
 Vibration    14          0.684              1.698              1.493
 Vibration    15          0.690              1.681              1.439
 Vibration    16          0.698              1.658              1.371
 Vibration    17          0.718              1.601              1.224
 Vibration    18          0.729              1.570              1.154
 Vibration    19          0.733              1.560              1.134
 Vibration    20          0.759              1.489              0.995
 Vibration    21          0.768              1.465              0.953
 Vibration    22          0.787              1.415              0.874
 Vibration    23          0.832              1.305              0.723
 Vibration    24          0.904              1.142              0.546
 Vibration    25          0.937              1.073              0.484

 Optimization completed.
    -- Stationary point found.
 Normal termination of Gaussian 16 at Sun Mar 28 09:50:01 2021.
