 Gaussian 16, Revision A.03,
 Gaussian 16:  ES64L-G16RevA.03 25-Dec-2016

 ----------------------------------------------------------------------
 # wB97XD def2tzvp, opt=(ts, noeigen, calcfc, maxcycles=70, maxstep=1),
  freq=noraman, scrf=(iefpcm, solvent=water)
 ----------------------------------------------------------------------

 ------------------------
 0_iteration/TS-883-0.out
 ------------------------
 Symbolic Z-matrix:
 Charge =  0 Multiplicity = 1

 SCF Done:  E(RwB97XD) =  -1073.15395360     A.U. after   14 cycles
 SCF Done:  E(RwB97XD) =  -1073.15392911     A.U. after   10 cycles
 SCF Done:  E(RwB97XD) =  -1073.15390903     A.U. after   10 cycles
 SCF Done:  E(RwB97XD) =  -1073.15389349     A.U. after   10 cycles
 SCF Done:  E(RwB97XD) =  -1073.15388285     A.U. after   10 cycles
 SCF Done:  E(RwB97XD) =  -1073.15387845     A.U. after   10 cycles
 SCF Done:  E(RwB97XD) =  -1073.15388755     A.U. after   10 cycles
 SCF Done:  E(RwB97XD) =  -1073.15391651     A.U. after   10 cycles
 SCF Done:  E(RwB97XD) =  -1073.15394856     A.U. after   10 cycles
 SCF Done:  E(RwB97XD) =  -1073.15397934     A.U. after   10 cycles
 SCF Done:  E(RwB97XD) =  -1073.15400689     A.U. after   10 cycles
 SCF Done:  E(RwB97XD) =  -1073.15403021     A.U. after   10 cycles
 SCF Done:  E(RwB97XD) =  -1073.15404883     A.U. after    9 cycles
 SCF Done:  E(RwB97XD) =  -1073.15406244     A.U. after    9 cycles
 SCF Done:  E(RwB97XD) =  -1073.15407085     A.U. after    9 cycles
 SCF Done:  E(RwB97XD) =  -1073.15407386     A.U. after    9 cycles
 Optimization completed.
    -- Stationary point found.
 Normal termination of Gaussian 16 at Wed Feb 24 07:59:57 2021.

 ---------------------------------------------------------------------
 #N Geom=AllCheck Guess=TCheck SCRF=Check GenChk RwB97XD/def2TZVP Freq
 ---------------------------------------------------------------------

 Structure from the checkpoint file:  "/beegfs/scratch/user/q/tla25/Gau-5236.chk"
 ------------------------
 0_iteration/TS-883-0.out
 ------------------------
 Charge =  0 Multiplicity = 1

                         Standard orientation:
 ---------------------------------------------------------------------
 Center     Atomic      Atomic             Coordinates (Angstroms)
 Number     Number       Type             X           Y           Z
 ---------------------------------------------------------------------
      1          6           0       -0.416173    0.515427   -0.312966
      2          6           0       -0.808658    1.904113   -0.367127
      3          8           0       -1.962651    2.339703   -0.506737
      4          6           0       -1.355344   -0.523072   -0.380355
      5          6           0       -2.078970   -0.241600    2.265714
      6          1           0       -1.546209    0.688299    2.059372
      7          1           0       -3.145660   -0.080054    2.134474
      8          1           0       -1.882494   -0.551587    3.290667
      9          7           0       -1.616734   -1.245448    1.311631
     10          1           0       -0.699692   -1.599084    1.563206
     11          1           0       -2.244838   -2.039967    1.253840
     12         17           0       -0.727971   -2.071518   -1.113912
     13          6           0       -2.780645   -0.321688   -0.816476
     14          1           0       -3.255368    0.445952   -0.213703
     15          1           0       -2.792602    0.019811   -1.850629
     16          1           0       -3.334900   -1.256539   -0.749932
     17          6           0        1.024183    0.190346   -0.079091
     18          6           0        1.909696    0.032845   -1.146791
     19          6           0        3.248700   -0.255032   -0.934806
     20          6           0        3.736531   -0.391267    0.358582
     21          6           0        2.876496   -0.229224    1.433381
     22          6           0        1.536531    0.063214    1.212696
     23          1           0        1.532553    0.136720   -2.157032
     24          1           0        3.914822   -0.373888   -1.780529
     25          1           0        4.782125   -0.617338    0.525914
     26          1           0        3.247194   -0.324550    2.446441
     27          1           0        0.881059    0.214822    2.063016
     28          7           0        0.218898    2.823592   -0.300547
     29          1           0        1.117067    2.552328    0.058179
     30          1           0       -0.065580    3.771870   -0.127038
 ---------------------------------------------------------------------

 SCF Done:  E(RwB97XD) =  -1073.15407386     A.U. after    1 cycles

 The electronic state is 1-A.
 Alpha  occ. eigenvalues -- -101.68864 -19.18873 -14.49824 -14.42756 -10.40204
 Alpha  occ. eigenvalues --  -10.37179 -10.32059 -10.29769 -10.28948 -10.28879
 Alpha  occ. eigenvalues --  -10.28826 -10.28816 -10.28542 -10.28146 -10.25773
 Alpha  occ. eigenvalues --   -9.57481  -7.32078  -7.31288  -7.31246  -1.11455
 Alpha  occ. eigenvalues --   -1.05580  -0.98481  -0.96964  -0.95627  -0.87893
 Alpha  occ. eigenvalues --   -0.84941  -0.84881  -0.79794  -0.79569  -0.70658
 Alpha  occ. eigenvalues --   -0.70101  -0.69380  -0.64168  -0.63222  -0.61488
 Alpha  occ. eigenvalues --   -0.59793  -0.58458  -0.56263  -0.55915  -0.54075
 Alpha  occ. eigenvalues --   -0.53396  -0.52264  -0.50706  -0.50308  -0.49740
 Alpha  occ. eigenvalues --   -0.48824  -0.47848  -0.47384  -0.46345  -0.46191
 Alpha  occ. eigenvalues --   -0.44464  -0.42512  -0.42210  -0.39435  -0.38888
 Alpha  occ. eigenvalues --   -0.34813  -0.34050  -0.33429  -0.31691  -0.27137
 Alpha virt. eigenvalues --    0.05116   0.05201   0.06962   0.08370   0.10128
 Alpha virt. eigenvalues --    0.12919   0.13573   0.14140   0.14431   0.15332
 Alpha virt. eigenvalues --    0.16650   0.16885   0.17984   0.18443   0.18922

 Mulliken charges:
               1
     1  C   -0.266599
     2  C    0.312524
     3  O   -0.553640
     4  C    0.154537
     5  C   -0.332178
     6  H    0.163046
     7  H    0.170990
     8  H    0.168882
     9  N   -0.283364
    10  H    0.286394
    11  H    0.293410
    12  Cl  -0.155905
    13  C   -0.347498
    14  H    0.152289
    15  H    0.144115
    16  H    0.140299
    17  C    0.130599
    18  C   -0.226573
    19  C   -0.142948
    20  C   -0.136086
    21  C   -0.155801
    22  C   -0.283437
    23  H    0.135605
    24  H    0.139552
    25  H    0.143098
    26  H    0.140294
    27  H    0.166348
    28  N   -0.481280
    29  H    0.269354
    30  H    0.253973
 Sum of Mulliken charges =  -0.00000

 Dipole moment (field-independent basis, Debye):
    X=              0.4649    Y=             -4.5978    Z=              6.7537  Tot=              8.1834
 Quadrupole moment (field-independent basis, Debye-Ang):
   XX=            -88.9110   YY=           -102.0778   ZZ=            -87.3273
   XY=             15.3743   XZ=             -8.7072   YZ=             -1.6248

  Exact polarizability: 247.293  -3.468 214.083  -4.819  -4.079 215.054
 Approx polarizability: 196.958  -6.264 174.242  -3.528  -2.293 183.585

 ******    1 imaginary frequencies (negative Signs) ******

                      1                      2                      3
                      A                      A                      A
 Frequencies --   -365.0623                38.4422                49.4568
 Red. masses --      5.5546                 4.0347                 4.6299
 Frc consts  --      0.4362                 0.0035                 0.0067
 IR Inten    --    830.9658                 3.8420                 6.3231

                      4                      5                      6
                      A                      A                      A
 Frequencies --     70.9457                75.1759                96.2120
 Red. masses --      4.5200                 5.5668                 3.6700
 Frc consts  --      0.0134                 0.0185                 0.0200
 IR Inten    --     16.2814                 0.8918                 0.3089

                      7                      8                      9
                      A                      A                      A
 Frequencies --    128.3810               181.8533               189.3399
 Red. masses --      2.4872                 5.6217                 2.2065
 Frc consts  --      0.0242                 0.1095                 0.0466
 IR Inten    --      7.0510                 7.6051                 3.5963

                     10                     11                     12
                      A                      A                      A
 Frequencies --    209.6422               238.1309               271.0071
 Red. masses --      1.3367                 3.9747                 3.0861
 Frc consts  --      0.0346                 0.1328                 0.1335
 IR Inten    --      0.3991                42.4512                15.3907

                     13                     14                     15
                      A                      A                      A
 Frequencies --    287.5807               305.8679               345.8671
 Red. masses --      1.3399                 3.1301                 2.0158
 Frc consts  --      0.0653                 0.1725                 0.1421
 IR Inten    --      1.4979                82.9549               240.7236

                     16                     17                     18
                      A                      A                      A
 Frequencies --    353.5146               357.6722               384.9673
 Red. masses --      2.7031                 2.6219                 3.0798
 Frc consts  --      0.1990                 0.1976                 0.2689
 IR Inten    --     36.0887                28.5538                 3.6716

                     19                     20                     21
                      A                      A                      A
 Frequencies --    397.1797               425.9559               470.2153
 Red. masses --      4.4687                 2.8842                 1.8309
 Frc consts  --      0.4153                 0.3083                 0.2385
 IR Inten    --     38.2937                 0.5771                47.7320

                     22                     23                     24
                      A                      A                      A
 Frequencies --    495.8155               549.6438               577.9105
 Red. masses --      1.6256                 3.6723                 3.8805
 Frc consts  --      0.2354                 0.6537                 0.7636
 IR Inten    --     14.0708                 7.3833                75.0042

                     25                     26                     27
                      A                      A                      A
 Frequencies --    611.0237               640.8714               677.0089
 Red. masses --      3.2196                 6.1410                 5.4353
 Frc consts  --      0.7082                 1.4860                 1.4678
 IR Inten    --    142.5673                 3.0855                12.0122

                     28                     29                     30
                      A                      A                      A
 Frequencies --    716.3266               732.4734               763.4304
 Red. masses --      1.6020                 1.5159                 3.9159
 Frc consts  --      0.4843                 0.4792                 1.3447
 IR Inten    --     61.7296                81.7881               111.4253

                     31                     32                     33
                      A                      A                      A
 Frequencies --    798.3625               806.4937               882.8314
 Red. masses --      2.3531                 5.2315                 1.2448
 Frc consts  --      0.8837                 2.0048                 0.5716
 IR Inten    --      3.7989                74.2077                 0.0206

                     34                     35                     36
                      A                      A                      A
 Frequencies --    956.3982               977.1387              1012.2247
 Red. masses --      1.4577                 4.3760                 1.1725
 Frc consts  --      0.7856                 2.4617                 0.7078
 IR Inten    --      6.5256                39.7587                11.3501

                     37                     38                     39
                      A                      A                      A
 Frequencies --   1016.3544              1026.9597              1028.9609
 Red. masses --      1.3200                 4.6655                 1.3658
 Frc consts  --      0.8033                 2.8990                 0.8520
 IR Inten    --      3.6382                 0.9587                 0.6166

                     40                     41                     42
                      A                      A                      A
 Frequencies --   1052.7582              1060.0576              1065.2156
 Red. masses --      1.2903                 1.9321                 1.9206
 Frc consts  --      0.8426                 1.2792                 1.2840
 IR Inten    --      2.8592                54.6726                25.3654

                     43                     44                     45
                      A                      A                      A
 Frequencies --   1075.7122              1082.7842              1106.8680
 Red. masses --      1.4426                 3.9649                 1.7038
 Frc consts  --      0.9835                 2.7388                 1.2299
 IR Inten    --    137.2078                11.8366                34.0052

                     46                     47                     48
                      A                      A                      A
 Frequencies --   1108.9236              1149.7843              1182.4458
 Red. masses --      1.5635                 3.1346                 1.1336
 Frc consts  --      1.1328                 2.4415                 0.9339
 IR Inten    --     14.7114                70.2562                 0.0617

                     49                     50                     51
                      A                      A                      A
 Frequencies --   1206.9896              1236.3383              1276.5951
 Red. masses --      1.1220                 1.3809                 3.7836
 Frc consts  --      0.9630                 1.2436                 3.6330
 IR Inten    --      0.0580                49.2396                 8.3178

                     52                     53                     54
                      A                      A                      A
 Frequencies --   1304.0226              1338.6620              1355.6004
 Red. masses --      4.5664                 1.3262                 1.4610
 Frc consts  --      4.5751                 1.4002                 1.5818
 IR Inten    --      1.5955                 0.8884                 6.5341

                     55                     56                     57
                      A                      A                      A
 Frequencies --   1368.3255              1404.3437              1436.2678
 Red. masses --      5.0183                 1.7593                 1.8209
 Frc consts  --      5.5358                 2.0443                 2.2131
 IR Inten    --    719.0858               472.6998               267.4835

                     58                     59                     60
                      A                      A                      A
 Frequencies --   1457.4232              1460.7364              1485.2352
 Red. masses --      1.3003                 1.0782                 1.8775
 Frc consts  --      1.6273                 1.3555                 2.4402
 IR Inten    --    108.3909                 7.1843                 9.5851

                     61                     62                     63
                      A                      A                      A
 Frequencies --   1486.4993              1500.4055              1504.9626
 Red. masses --      1.2148                 1.0426                 1.0399
 Frc consts  --      1.5816                 1.3829                 1.3878
 IR Inten    --     25.1406                14.9336                15.1871

                     64                     65                     66
                      A                      A                      A
 Frequencies --   1542.3434              1610.8284              1641.4968
 Red. masses --      2.4073                 1.3231                 1.1785
 Frc consts  --      3.3740                 2.0228                 1.8709
 IR Inten    --     29.2716               336.9565                63.9241

                     67                     68                     69
                      A                      A                      A
 Frequencies --   1642.9853              1651.7081              1671.4029
 Red. masses --      4.0834                 4.8676                 5.8973
 Frc consts  --      6.4944                 7.8240                 9.7066
 IR Inten    --     11.8313               711.8590                 2.6805

                     70                     71                     72
                      A                      A                      A
 Frequencies --   3069.7495              3082.1265              3148.3171
 Red. masses --      1.0348                 1.0375                 1.1031
 Frc consts  --      5.7451                 5.8069                 6.4419
 IR Inten    --     32.9357                19.1238                 5.3595

                     73                     74                     75
                      A                      A                      A
 Frequencies --   3156.6587              3178.4196              3185.5453
 Red. masses --      1.1034                 1.1056                 1.0872
 Frc consts  --      6.4782                 6.5808                 6.5002
 IR Inten    --     18.3272                11.1475                10.6784

                     76                     77                     78
                      A                      A                      A
 Frequencies --   3191.4124              3193.8095              3200.6853
 Red. masses --      1.0871                 1.1004                 1.0910
 Frc consts  --      6.5238                 6.6131                 6.5849
 IR Inten    --      1.7129                 1.7678                12.6534

                     79                     80                     81
                      A                      A                      A
 Frequencies --   3208.4918              3219.4875              3513.4599
 Red. masses --      1.0950                 1.0988                 1.0513
 Frc consts  --      6.6414                 6.7105                 7.6464
 IR Inten    --     45.3446                19.2843                44.5130

                     82                     83                     84
                      A                      A                      A
 Frequencies --   3594.0864              3614.3079              3734.1646
 Red. masses --      1.0964                 1.0461                 1.1026
 Frc consts  --      8.3441                 8.0512                 9.0586
 IR Inten    --     71.9282                48.3959                69.5998

 - Thermochemistry -
 -------------------
 Temperature   298.150 Kelvin.  Pressure   1.00000 Atm.
 Atom     1 has atomic number  6 and mass  12.00000

 Molecular mass:   226.08729 amu.
 Principal axes and moments of inertia in atomic units:
                           1         2         3
     Eigenvalues --  2572.955124070.595634767.36635
           X            0.99980   0.00991  -0.01717
           Y           -0.01057   0.99919  -0.03894
           Z            0.01677   0.03911   0.99909
 This molecule is an asymmetric top.
 Rotational symmetry number  1.
 Warning -- assumption of classical behavior for rotation
           may cause significant error
 Rotational temperatures (Kelvin)      0.03366     0.02128     0.01817
 Rotational constants (GHZ):           0.70143     0.44336     0.37856
    1 imaginary frequencies ignored.
 Zero-point vibrational energy     651403.0 (Joules/Mol)
                                  155.68906 (Kcal/Mol)
 Warning -- explicit consideration of  24 degrees of freedom as
           vibrations may cause significant error
 Vibrational temperatures:     55.31    71.16   102.08   108.16   138.43
          (Kelvin)            184.71   261.65   272.42   301.63   342.62
                              389.92   413.76   440.08   497.63   508.63
                              514.61   553.88   571.45   612.86   676.53
                              713.37   790.81   831.48   879.13   922.07
                              974.06  1030.63  1053.87  1098.41  1148.67
                             1160.36  1270.20  1376.04  1405.88  1456.37
                             1462.31  1477.57  1480.45  1514.68  1525.19
                             1532.61  1547.71  1557.89  1592.54  1595.49
                             1654.28  1701.28  1736.59  1778.81  1836.74
                             1876.20  1926.04  1950.41  1968.72  2020.54
                             2066.47  2096.91  2101.67  2136.92  2138.74
                             2158.75  2165.31  2219.09  2317.62  2361.75
                             2363.89  2376.44  2404.78  4416.68  4434.49
                             4529.73  4541.73  4573.04  4583.29  4591.73
                             4595.18  4605.07  4616.30  4632.12  5055.09
                             5171.09  5200.18  5372.63

 Zero-point correction=                           0.248106 (Hartree/Particle)
 Thermal correction to Energy=                    0.263507
 Thermal correction to Enthalpy=                  0.264451
 Thermal correction to Gibbs Free Energy=         0.205120
 Sum of electronic and zero-point Energies=          -1072.905968
 Sum of electronic and thermal Energies=             -1072.890567
 Sum of electronic and thermal Enthalpies=           -1072.889623
 Sum of electronic and thermal Free Energies=        -1072.948954

                     E (Thermal)             CV                S
                      KCal/Mol        Cal/Mol-Kelvin    Cal/Mol-Kelvin
 Total                  165.353             57.794            124.873
 Electronic               0.000              0.000              0.000
 Translational            0.889              2.981             42.150
 Rotational               0.889              2.981             32.279
 Vibrational            163.576             51.833             50.445
 Vibration     1          0.594              1.982              5.338
 Vibration     2          0.595              1.978              4.839
 Vibration     3          0.598              1.968              4.127
 Vibration     4          0.599              1.966              4.013
 Vibration     5          0.603              1.952              3.530
 Vibration     6          0.611              1.925              2.970
 Vibration     7          0.630              1.864              2.309
 Vibration     8          0.633              1.855              2.234
 Vibration     9          0.642              1.826              2.047
 Vibration    10          0.656              1.782              1.817
 Vibration    11          0.675              1.727              1.590
 Vibration    12          0.685              1.697              1.488
 Vibration    13          0.696              1.663              1.385
 Vibration    14          0.724              1.584              1.185
 Vibration    15          0.730              1.568              1.150
 Vibration    16          0.733              1.559              1.132
 Vibration    17          0.754              1.502              1.020
 Vibration    18          0.764              1.476              0.973
 Vibration    19          0.788              1.414              0.872
 Vibration    20          0.827              1.316              0.737
 Vibration    21          0.851              1.259              0.669
 Vibration    22          0.905              1.140              0.545
 Vibration    23          0.934              1.079              0.489
 Vibration    24          0.970              1.008              0.431

 Optimization completed.
    -- Stationary point found.
 Normal termination of Gaussian 16 at Wed Feb 24 09:06:30 2021.
