 Gaussian 16, Revision A.03,
 Gaussian 16:  ES64L-G16RevA.03 25-Dec-2016

 ----------------------------------------------------------------------
 # wB97XD def2tzvp, opt=(ts, noeigen, calcfc, maxcycles=70, maxstep=8),
  freq=noraman, scrf=(iefpcm, solvent=water)
 ----------------------------------------------------------------------

 ------------------------
 1_iteration/TS-893-1.out
 ------------------------
 Symbolic Z-matrix:
 Charge =  0 Multiplicity = 1

 SCF Done:  E(RwB97XD) =  -881.402545579     A.U. after   15 cycles
 SCF Done:  E(RwB97XD) =  -881.402545534     A.U. after    7 cycles
 Optimization completed.
    -- Stationary point found.
 Normal termination of Gaussian 16 at Thu Apr 15 02:07:52 2021.

 ---------------------------------------------------------------------
 #N Geom=AllCheck Guess=TCheck SCRF=Check GenChk RwB97XD/def2TZVP Freq
 ---------------------------------------------------------------------

 Structure from the checkpoint file:  "/beegfs/scratch/user/q/tla25/Gau-431445.chk"
 ------------------------
 1_iteration/TS-893-1.out
 ------------------------
 Charge =  0 Multiplicity = 1

                         Standard orientation:
 ---------------------------------------------------------------------
 Center     Atomic      Atomic             Coordinates (Angstroms)
 Number     Number       Type             X           Y           Z
 ---------------------------------------------------------------------
      1          6           0       -0.093658   -0.632628   -0.624312
      2          6           0       -1.522678   -0.540414   -0.493342
      3          8           0       -2.268524   -1.036446   -1.358918
      4          6           0        0.938162   -0.196510    0.209636
      5          6           0        0.814241    2.374468   -0.690787
      6          1           0       -0.119890    1.954308   -1.067362
      7          1           0        0.637618    2.882664    0.253574
      8          1           0        1.208369    3.085758   -1.413726
      9          7           0        1.747391    1.267321   -0.488355
     10          1           0        2.097939    0.927175   -1.377682
     11          1           0        2.548890    1.540040    0.072604
     12         17           0        2.421114   -1.274136    0.095937
     13          6           0        0.749137    0.225326    1.646353
     14          1           0        0.179766    1.152216    1.718406
     15          1           0        0.225224   -0.556598    2.193998
     16          1           0        1.709251    0.400583    2.126567
     17          1           0        0.206983   -1.112154   -1.546418
     18          7           0       -2.105949    0.059521    0.592200
     19          6           0       -3.535738    0.248319    0.664085
     20          1           0       -1.547730    0.625937    1.198587
     21          1           0       -3.911494    0.899043   -0.131200
     22          1           0       -4.056952   -0.706173    0.590901
     23          1           0       -3.775606    0.699819    1.625451
 ---------------------------------------------------------------------

 SCF Done:  E(RwB97XD) =  -881.402545534     A.U. after    1 cycles

 The electronic state is 1-A.
 Alpha  occ. eigenvalues -- -101.68848 -19.18443 -14.50682 -14.43572 -10.40515
 Alpha  occ. eigenvalues --  -10.36597 -10.32328 -10.30169 -10.29670 -10.24211
 Alpha  occ. eigenvalues --   -9.57463  -7.32056  -7.31266  -7.31235  -1.11127
 Alpha  occ. eigenvalues --   -1.06362  -1.00025  -0.96201  -0.86760  -0.82011
 Alpha  occ. eigenvalues --   -0.79981  -0.77924  -0.68413  -0.65761  -0.64558
 Alpha  occ. eigenvalues --   -0.59677  -0.57698  -0.57175  -0.55636  -0.52911
 Alpha  occ. eigenvalues --   -0.52155  -0.50514  -0.50218  -0.48643  -0.47713
 Alpha  occ. eigenvalues --   -0.45813  -0.45254  -0.44793  -0.44256  -0.39731
 Alpha  occ. eigenvalues --   -0.39238  -0.33060  -0.32390  -0.26699
 Alpha virt. eigenvalues --    0.07070   0.08064   0.09909   0.12338   0.14063
 Alpha virt. eigenvalues --    0.14743   0.15753   0.16009   0.17357   0.18060
 Alpha virt. eigenvalues --    0.19097   0.19811   0.20531   0.21044   0.21451

 Mulliken charges:
               1
     1  C   -0.516592
     2  C    0.363185
     3  O   -0.585366
     4  C    0.182016
     5  C   -0.317348
     6  H    0.158205
     7  H    0.166770
     8  H    0.168278
     9  N   -0.235823
    10  H    0.288148
    11  H    0.296178
    12  Cl  -0.175026
    13  C   -0.427586
    14  H    0.142478
    15  H    0.175592
    16  H    0.165263
    17  H    0.111959
    18  N   -0.303774
    19  C   -0.253934
    20  H    0.223306
    21  H    0.115573
    22  H    0.124594
    23  H    0.133903
 Sum of Mulliken charges =  -0.00000

 Dipole moment (field-independent basis, Debye):
    X=              6.6387    Y=              9.7096    Z=              4.2172  Tot=             12.4953
 Quadrupole moment (field-independent basis, Debye-Ang):
   XX=            -71.3891   YY=            -66.1719   ZZ=            -68.8477
   XY=              2.0939   XZ=            -13.0266   YZ=             -4.6605

  Exact polarizability: 187.243   4.033 139.201   6.424   6.669 128.456
 Approx polarizability: 139.944   2.921 115.497   6.070   6.585 110.970

 ******    1 imaginary frequencies (negative Signs) ******

                      1                      2                      3
                      A                      A                      A
 Frequencies --   -359.9771                52.2141                61.0128
 Red. masses --      5.2029                 3.9436                 3.3246
 Frc consts  --      0.3972                 0.0063                 0.0073
 IR Inten    --    733.2784                15.8724                 0.1496

                      4                      5                      6
                      A                      A                      A
 Frequencies --    104.1172               112.7559               146.4447
 Red. masses --      1.9932                 1.9582                 1.5846
 Frc consts  --      0.0127                 0.0147                 0.0200
 IR Inten    --      5.1602                10.5257                 1.5738

                      7                      8                      9
                      A                      A                      A
 Frequencies --    175.2731               201.5958               209.7188
 Red. masses --      3.0947                 2.7447                 1.3880
 Frc consts  --      0.0560                 0.0657                 0.0360
 IR Inten    --      2.8569                 2.7009                 3.3942

                     10                     11                     12
                      A                      A                      A
 Frequencies --    261.7262               289.3698               293.0369
 Red. masses --      2.6440                 2.5427                 2.1987
 Frc consts  --      0.1067                 0.1254                 0.1112
 IR Inten    --     54.9805                17.9163                 0.5855

                     13                     14                     15
                      A                      A                      A
 Frequencies --    336.3564               349.7636               356.4134
 Red. masses --      2.1771                 3.2100                 2.0302
 Frc consts  --      0.1451                 0.2314                 0.1519
 IR Inten    --     42.3647                31.2017                49.1210

                     16                     17                     18
                      A                      A                      A
 Frequencies --    388.8424               444.8045               531.2698
 Red. masses --      1.6326                 3.5611                 3.4182
 Frc consts  --      0.1454                 0.4151                 0.5684
 IR Inten    --     52.0991                51.6528                80.7447

                     19                     20                     21
                      A                      A                      A
 Frequencies --    635.6164               684.8950               733.1044
 Red. masses --      2.6314                 1.5380                 3.6142
 Frc consts  --      0.6264                 0.4251                 1.1444
 IR Inten    --    160.1249                66.6387                38.9910

                     22                     23                     24
                      A                      A                      A
 Frequencies --    761.0874               794.7035               867.2725
 Red. masses --      1.6661                 4.0207                 3.3163
 Frc consts  --      0.5686                 1.4961                 1.4697
 IR Inten    --     96.5419               102.7299                76.3202

                     25                     26                     27
                      A                      A                      A
 Frequencies --    975.3649              1029.2242              1056.0386
 Red. masses --      2.2733                 1.1544                 1.4635
 Frc consts  --      1.2742                 0.7205                 0.9616
 IR Inten    --     54.7594                29.0828                35.9669

                     28                     29                     30
                      A                      A                      A
 Frequencies --   1075.8145              1085.8383              1113.2195
 Red. masses --      3.0713                 1.3545                 1.5987
 Frc consts  --      2.0944                 0.9409                 1.1673
 IR Inten    --      9.8395                65.2670               109.5696

                     31                     32                     33
                      A                      A                      A
 Frequencies --   1148.1665              1159.3717              1188.9187
 Red. masses --      1.3977                 1.8333                 2.3772
 Frc consts  --      1.0856                 1.4519                 1.9798
 IR Inten    --      5.8472                28.0903                53.3083

                     34                     35                     36
                      A                      A                      A
 Frequencies --   1259.2503              1309.7697              1332.6521
 Red. masses --      1.3462                 1.7211                 1.5908
 Frc consts  --      1.2577                 1.7396                 1.6645
 IR Inten    --     49.6032               493.0002                67.0085

                     37                     38                     39
                      A                      A                      A
 Frequencies --   1360.3220              1419.8844              1442.1216
 Red. masses --      1.5934                 1.2897                 1.7429
 Frc consts  --      1.7372                 1.5320                 2.1356
 IR Inten    --     70.3176                35.3754               331.1037

                     40                     41                     42
                      A                      A                      A
 Frequencies --   1453.3372              1468.0874              1476.1542
 Red. masses --      1.2141                 1.6012                 1.0843
 Frc consts  --      1.5110                 2.0333                 1.3920
 IR Inten    --     19.9330               314.3473                23.1751

                     43                     44                     45
                      A                      A                      A
 Frequencies --   1494.4435              1498.8249              1504.4897
 Red. masses --      1.1000                 1.0641                 1.0839
 Frc consts  --      1.4474                 1.4084                 1.4455
 IR Inten    --     15.5193                67.0276                 5.0075

                     46                     47                     48
                      A                      A                      A
 Frequencies --   1507.0801              1513.2172              1547.8691
 Red. masses --      1.1201                 1.0828                 1.7907
 Frc consts  --      1.4989                 1.4608                 2.5278
 IR Inten    --     46.9362                23.8608               452.3409

                     49                     50                     51
                      A                      A                      A
 Frequencies --   1621.1714              1641.6203              3035.6413
 Red. masses --      4.7724                 1.0951                 1.0440
 Frc consts  --      7.3900                 1.7389                 5.6685
 IR Inten    --   1038.8676                43.9231               101.7821

                     52                     53                     54
                      A                      A                      A
 Frequencies --   3070.9987              3075.0201              3106.3547
 Red. masses --      1.0356                 1.0374                 1.0928
 Frc consts  --      5.7545                 5.7795                 6.2128
 IR Inten    --     26.2334                13.3823                49.5634

                     55                     56                     57
                      A                      A                      A
 Frequencies --   3150.1037              3150.4874              3155.0294
 Red. masses --      1.1027                 1.1013                 1.1015
 Frc consts  --      6.4469                 6.4403                 6.4601
 IR Inten    --     26.0960                17.0832                 2.5124

                     58                     59                     60
                      A                      A                      A
 Frequencies --   3167.5467              3182.2483              3202.8770
 Red. masses --      1.1040                 1.1064                 1.0866
 Frc consts  --      6.5262                 6.6012                 6.5674
 IR Inten    --      8.8001                10.5997                 7.0081

                     61                     62                     63
                      A                      A                      A
 Frequencies --   3509.3906              3590.9242              3732.1629
 Red. masses --      1.0512                 1.0967                 1.0763
 Frc consts  --      7.6279                 8.3321                 8.8329
 IR Inten    --     54.9149                58.1039                41.4850

 - Thermochemistry -
 -------------------
 Temperature   298.150 Kelvin.  Pressure   1.00000 Atm.
 Atom     1 has atomic number  6 and mass  12.00000

 Molecular mass:   164.07164 amu.
 Principal axes and moments of inertia in atomic units:
                           1         2         3
     Eigenvalues --  1133.047762764.236223084.04324
           X            0.99960   0.02113  -0.01903
           Y           -0.02153   0.99954  -0.02138
           Z            0.01857   0.02178   0.99959
 This molecule is an asymmetric top.
 Rotational symmetry number  1.
 Warning -- assumption of classical behavior for rotation
           may cause significant error
 Rotational temperatures (Kelvin)      0.07644     0.03133     0.02808
 Rotational constants (GHZ):           1.59282     0.65289     0.58519
    1 imaginary frequencies ignored.
 Zero-point vibrational energy     512016.2 (Joules/Mol)
                                  122.37482 (Kcal/Mol)
 Warning -- explicit consideration of  17 degrees of freedom as
           vibrations may cause significant error
 Vibrational temperatures:     75.12    87.78   149.80   162.23   210.70
          (Kelvin)            252.18   290.05   301.74   376.57   416.34
                              421.61   483.94   503.23   512.80   559.46
                              639.97   764.38   914.51   985.41  1054.77
                             1095.03  1143.40  1247.81  1403.33  1480.82
                             1519.40  1547.86  1562.28  1601.67  1651.96
                             1668.08  1710.59  1811.78  1884.47  1917.39
                             1957.20  2042.90  2074.89  2091.03  2112.25
                             2123.86  2150.17  2156.47  2164.63  2168.35
                             2177.18  2227.04  2332.50  2361.93  4367.61
                             4418.48  4424.27  4469.35  4532.30  4532.85
                             4539.38  4557.39  4578.55  4608.23  5049.23
                             5166.54  5369.75

 Zero-point correction=                           0.195017 (Hartree/Particle)
 Thermal correction to Energy=                    0.207435
 Thermal correction to Enthalpy=                  0.208379
 Thermal correction to Gibbs Free Energy=         0.156197
 Sum of electronic and zero-point Energies=           -881.207529
 Sum of electronic and thermal Energies=              -881.195110
 Sum of electronic and thermal Enthalpies=            -881.194166
 Sum of electronic and thermal Free Energies=         -881.246348

                     E (Thermal)             CV                S
                      KCal/Mol        Cal/Mol-Kelvin    Cal/Mol-Kelvin
 Total                  130.167             43.814            109.827
 Electronic               0.000              0.000              0.000
 Translational            0.889              2.981             41.194
 Rotational               0.889              2.981             30.647
 Vibrational            128.390             37.853             37.986
 Vibration     1          0.596              1.977              4.732
 Vibration     2          0.597              1.973              4.424
 Vibration     3          0.605              1.946              3.376
 Vibration     4          0.607              1.939              3.221
 Vibration     5          0.617              1.907              2.718
 Vibration     6          0.627              1.873              2.378
 Vibration     7          0.638              1.838              2.118
 Vibration     8          0.642              1.826              2.046
 Vibration     9          0.669              1.743              1.650
 Vibration    10          0.686              1.693              1.478
 Vibration    11          0.688              1.687              1.456
 Vibration    12          0.717              1.603              1.229
 Vibration    13          0.727              1.576              1.167
 Vibration    14          0.732              1.562              1.138
 Vibration    15          0.757              1.494              1.005
 Vibration    16          0.804              1.372              0.812
 Vibration    17          0.886              1.181              0.584

 Optimization completed.
    -- Stationary point found.
 Normal termination of Gaussian 16 at Thu Apr 15 02:14:46 2021.
