 Gaussian 16, Revision A.03,
 Gaussian 16:  ES64L-G16RevA.03 25-Dec-2016

 ----------------------------------------------------------------------
 # wB97XD def2tzvp, opt=(ts, noeigen, calcfc, maxcycles=70, maxstep=8),
  freq=noraman, scrf=(iefpcm, solvent=water)
 ----------------------------------------------------------------------

 ------------------------
 1_iteration/TS-896-1.out
 ------------------------
 Symbolic Z-matrix:
 Charge =  0 Multiplicity = 1

 SCF Done:  E(RwB97XD) =  -1017.77422702     A.U. after   15 cycles
 SCF Done:  E(RwB97XD) =  -1017.77458759     A.U. after   12 cycles
 SCF Done:  E(RwB97XD) =  -1017.77460836     A.U. after   12 cycles
 SCF Done:  E(RwB97XD) =  -1017.77461011     A.U. after   10 cycles
 SCF Done:  E(RwB97XD) =  -1017.77461480     A.U. after    9 cycles
 SCF Done:  E(RwB97XD) =  -1017.77461082     A.U. after    8 cycles
 SCF Done:  E(RwB97XD) =  -1017.77456056     A.U. after   12 cycles
 SCF Done:  E(RwB97XD) =  -1017.77453627     A.U. after   12 cycles
 SCF Done:  E(RwB97XD) =  -1017.77461280     A.U. after   11 cycles
 SCF Done:  E(RwB97XD) =  -1017.77461473     A.U. after    9 cycles
 SCF Done:  E(RwB97XD) =  -1017.77461399     A.U. after    9 cycles
 SCF Done:  E(RwB97XD) =  -1017.77461339     A.U. after    8 cycles
 SCF Done:  E(RwB97XD) =  -1017.77461402     A.U. after    8 cycles
 SCF Done:  E(RwB97XD) =  -1017.77461420     A.U. after    7 cycles
 SCF Done:  E(RwB97XD) =  -1017.77461457     A.U. after    6 cycles
 SCF Done:  E(RwB97XD) =  -1017.77460332     A.U. after   11 cycles
 SCF Done:  E(RwB97XD) =  -1017.77461429     A.U. after   11 cycles
 Optimization completed on the basis of negligible forces.
    -- Stationary point found.
 Normal termination of Gaussian 16 at Thu Feb 25 17:10:51 2021.

 ---------------------------------------------------------------------
 #N Geom=AllCheck Guess=TCheck SCRF=Check GenChk RwB97XD/def2TZVP Freq
 ---------------------------------------------------------------------

 Structure from the checkpoint file:  "/beegfs/scratch/user/q/tla25/Gau-65902.chk"
 ------------------------
 1_iteration/TS-896-1.out
 ------------------------
 Charge =  0 Multiplicity = 1

                         Standard orientation:
 ---------------------------------------------------------------------
 Center     Atomic      Atomic             Coordinates (Angstroms)
 Number     Number       Type             X           Y           Z
 ---------------------------------------------------------------------
      1          6           0       -0.655545   -0.224997   -0.395344
      2          6           0        0.368107    0.732332   -0.153805
      3          8           0        0.212331    1.954945   -0.017623
      4          6           0       -2.020513    0.053863   -0.415580
      5          6           0       -1.976968    0.267780    2.417774
      6          1           0       -2.203123   -0.166119    3.391587
      7          1           0       -0.917849    0.121771    2.200131
      8          1           0       -2.193644    1.333388    2.440729
      9          7           0       -2.749132   -0.362594    1.355377
     10          1           0       -2.677460   -1.372485    1.399300
     11          1           0       -3.732176   -0.117738    1.397190
     12         17           0       -2.988547   -1.167538   -1.294205
     13          6           0       -2.590337    1.430371   -0.579632
     14          1           0       -2.140064    2.104700    0.143425
     15          1           0       -2.334589    1.798032   -1.574331
     16          1           0       -3.673716    1.422940   -0.477127
     17          1           0       -0.364531   -1.255022   -0.536495
     18          6           0        1.781131    0.197155   -0.091314
     19          6           0        2.088330   -1.057527    0.429101
     20          6           0        3.404807   -1.490832    0.496826
     21          6           0        4.429881   -0.680550    0.030862
     22          6           0        4.133309    0.572229   -0.490057
     23          6           0        2.819601    1.009729   -0.539477
     24          1           0        1.299294   -1.695642    0.806561
     25          1           0        3.629659   -2.463166    0.916954
     26          1           0        5.456517   -1.021579    0.077234
     27          1           0        4.928786    1.209650   -0.855591
     28          1           0        2.582640    1.990692   -0.930861
 ---------------------------------------------------------------------

 SCF Done:  E(RwB97XD) =  -1017.77461429     A.U. after    1 cycles

 The electronic state is 1-A.
 Alpha  occ. eigenvalues -- -101.69755 -19.20308 -14.48448 -10.40340 -10.35491
 Alpha  occ. eigenvalues --  -10.31600 -10.29406 -10.29163 -10.29112 -10.29012
 Alpha  occ. eigenvalues --  -10.28982 -10.28863 -10.28527 -10.25569  -9.58361
 Alpha  occ. eigenvalues --   -7.32978  -7.32159  -7.32118  -1.11078  -1.04241
 Alpha  occ. eigenvalues --   -0.97440  -0.96514  -0.87442  -0.85874  -0.85072
 Alpha  occ. eigenvalues --   -0.81318  -0.78836  -0.73066  -0.70422  -0.67452
 Alpha  occ. eigenvalues --   -0.63142  -0.62531  -0.59716  -0.57952  -0.56523
 Alpha  occ. eigenvalues --   -0.55736  -0.54611  -0.53939  -0.51762  -0.51030
 Alpha  occ. eigenvalues --   -0.50785  -0.49877  -0.48925  -0.47498  -0.46775
 Alpha  occ. eigenvalues --   -0.45704  -0.44761  -0.44254  -0.43724  -0.42433
 Alpha  occ. eigenvalues --   -0.39962  -0.38587  -0.33887  -0.33732  -0.31837
 Alpha  occ. eigenvalues --   -0.28590
 Alpha virt. eigenvalues --    0.01615   0.05258   0.06985   0.08605   0.10493
 Alpha virt. eigenvalues --    0.13313   0.14048   0.14597   0.14955   0.16219
 Alpha virt. eigenvalues --    0.16932   0.17454   0.18670   0.18726   0.19427

 Mulliken charges:
               1
     1  C   -0.464615
     2  C    0.311615
     3  O   -0.530621
     4  C    0.215886
     5  C   -0.294372
     6  H    0.159325
     7  H    0.149435
     8  H    0.156974
     9  N   -0.335160
    10  H    0.279495
    11  H    0.288206
    12  Cl  -0.128206
    13  C   -0.368778
    14  H    0.151804
    15  H    0.149012
    16  H    0.144663
    17  H    0.136423
    18  C    0.168710
    19  C   -0.253874
    20  C   -0.137943
    21  C   -0.144175
    22  C   -0.126960
    23  C   -0.248523
    24  H    0.154987
    25  H    0.142559
    26  H    0.144857
    27  H    0.142238
    28  H    0.137036
 Sum of Mulliken charges =  -0.00000

 Dipole moment (field-independent basis, Debye):
    X=             -4.9965    Y=             -3.6025    Z=              4.7329  Tot=              7.7681
 Quadrupole moment (field-independent basis, Debye-Ang):
   XX=            -67.7647   YY=            -93.9808   ZZ=            -86.7895
   XY=             -3.7399   XZ=            -13.2355   YZ=             -6.0224

  Exact polarizability: 291.041  12.302 208.541  -8.569 -13.969 170.552
 Approx polarizability: 209.940   8.454 182.549  -5.293 -10.634 144.630

 ******    1 imaginary frequencies (negative Signs) ******

                      1                      2                      3
                      A                      A                      A
 Frequencies --   -361.3152                35.4529                38.4083
 Red. masses --      5.4835                 3.9720                 4.6388
 Frc consts  --      0.4218                 0.0029                 0.0040
 IR Inten    --    920.4844                 3.9783                 5.2867

                      4                      5                      6
                      A                      A                      A
 Frequencies --     70.6021                86.0692                98.7559
 Red. masses --      2.1722                 4.7873                 5.2421
 Frc consts  --      0.0064                 0.0209                 0.0301
 IR Inten    --      4.9347                 3.5083                 5.9839

                      7                      8                      9
                      A                      A                      A
 Frequencies --    165.6008               196.7151               198.0695
 Red. masses --      4.5380                 1.6225                 2.1022
 Frc consts  --      0.0733                 0.0370                 0.0486
 IR Inten    --      4.5395                 2.9321                 2.2398

                     10                     11                     12
                      A                      A                      A
 Frequencies --    227.5564               258.6581               273.2790
 Red. masses --      2.2206                 2.3837                 2.3539
 Frc consts  --      0.0677                 0.0940                 0.1036
 IR Inten    --      3.7425                 1.7783                12.7673

                     13                     14                     15
                      A                      A                      A
 Frequencies --    286.8015               301.7665               345.4568
 Red. masses --      3.3542                 2.3096                 7.0170
 Frc consts  --      0.1626                 0.1239                 0.4934
 IR Inten    --     11.9962                10.0776                31.4106

                     16                     17                     18
                      A                      A                      A
 Frequencies --    403.1657               419.1140               422.9937
 Red. masses --      4.2872                 3.0571                 3.4431
 Frc consts  --      0.4106                 0.3164                 0.3630
 IR Inten    --      8.5308                 3.6292                 9.1205

                     19                     20                     21
                      A                      A                      A
 Frequencies --    475.8343               537.9792               635.0951
 Red. masses --      3.4524                 3.6269                 4.1603
 Frc consts  --      0.4606                 0.6185                 0.9887
 IR Inten    --     57.4846                 8.4007                81.4348

                     22                     23                     24
                      A                      A                      A
 Frequencies --    636.1591               670.8622               719.8996
 Red. masses --      5.9605                 1.4795                 3.0194
 Frc consts  --      1.4212                 0.3923                 0.9220
 IR Inten    --     22.2734                73.4170                32.2887

                     25                     26                     27
                      A                      A                      A
 Frequencies --    723.6016               731.3351               762.5283
 Red. masses --      2.5003                 1.8022                 1.5214
 Frc consts  --      0.7713                 0.5679                 0.5212
 IR Inten    --     40.0268                44.7925               207.4330

                     28                     29                     30
                      A                      A                      A
 Frequencies --    832.7587               878.0611               880.0255
 Red. masses --      3.0064                 3.9525                 1.3594
 Frc consts  --      1.2284                 1.7954                 0.6203
 IR Inten    --      6.1739                53.5436                10.7187

                     31                     32                     33
                      A                      A                      A
 Frequencies --    952.6237               971.4874               995.9659
 Red. masses --      2.3016                 1.6354                 1.0958
 Frc consts  --      1.2306                 0.9094                 0.6404
 IR Inten    --     82.5589                25.3093                39.0829

                     34                     35                     36
                      A                      A                      A
 Frequencies --   1015.0066              1025.6666              1029.7830
 Red. masses --      1.3812                 6.0357                 1.1363
 Frc consts  --      0.8384                 3.7410                 0.7100
 IR Inten    --      2.6367                 1.2367                40.8206

                     37                     38                     39
                      A                      A                      A
 Frequencies --   1031.2482              1057.6508              1062.5059
 Red. masses --      1.3037                 1.9963                 1.6603
 Frc consts  --      0.8169                 1.3157                 1.1044
 IR Inten    --      2.5609                64.0321                56.0672

                     40                     41                     42
                      A                      A                      A
 Frequencies --   1084.0260              1104.3688              1113.6090
 Red. masses --      3.7337                 1.7063                 1.8797
 Frc consts  --      2.5851                 1.2261                 1.3734
 IR Inten    --      1.2907                80.0223                53.2335

                     43                     44                     45
                      A                      A                      A
 Frequencies --   1126.9720              1182.8322              1203.7938
 Red. masses --      2.2086                 1.1336                 1.1285
 Frc consts  --      1.6527                 0.9344                 0.9635
 IR Inten    --      6.3717                 0.5428                11.8763

                     46                     47                     48
                      A                      A                      A
 Frequencies --   1219.2153              1257.1312              1327.8643
 Red. masses --      1.4000                 2.7543                 3.4971
 Frc consts  --      1.2261                 2.5646                 3.6330
 IR Inten    --     20.3532               126.0143                 8.9687

                     49                     50                     51
                      A                      A                      A
 Frequencies --   1339.2836              1352.6106              1364.2512
 Red. masses --      1.4103                 1.6064                 1.9379
 Frc consts  --      1.4904                 1.7316                 2.1251
 IR Inten    --     10.3683                 3.4206               247.8864

                     52                     53                     54
                      A                      A                      A
 Frequencies --   1426.9859              1447.9363              1460.8692
 Red. masses --      1.4406                 1.2969                 1.0927
 Frc consts  --      1.7283                 1.6020                 1.3739
 IR Inten    --     28.9364               384.9705                 9.1976

                     55                     56                     57
                      A                      A                      A
 Frequencies --   1470.2039              1486.3723              1492.3448
 Red. masses --      1.5783                 1.4336                 1.1810
 Frc consts  --      2.0100                 1.8660                 1.5496
 IR Inten    --    752.2402                28.3781                26.3627

                     58                     59                     60
                      A                      A                      A
 Frequencies --   1499.8072              1505.9293              1538.4759
 Red. masses --      1.7066                 1.0395                 2.3110
 Frc consts  --      2.2618                 1.3889                 3.2227
 IR Inten    --    663.2907                26.0960                19.8128

                     61                     62                     63
                      A                      A                      A
 Frequencies --   1632.5324              1643.6695              1662.1027
 Red. masses --      7.0248                 1.0932                 6.9262
 Frc consts  --     11.0308                 1.7401                11.2736
 IR Inten    --    343.0663                51.5558               163.4302

                     64                     65                     66
                      A                      A                      A
 Frequencies --   1672.5743              3065.3418              3076.3266
 Red. masses --      6.0515                 1.0337                 1.0372
 Frc consts  --      9.9743                 5.7225                 5.7833
 IR Inten    --     21.5417                34.0674                13.1618

                     67                     68                     69
                      A                      A                      A
 Frequencies --   3138.9858              3150.5876              3168.7502
 Red. masses --      1.1043                 1.1013                 1.1049
 Frc consts  --      6.4107                 6.4409                 6.5363
 IR Inten    --      7.9542                21.5487                14.5464

                     70                     71                     72
                      A                      A                      A
 Frequencies --   3186.1511              3192.9772              3199.9124
 Red. masses --      1.1025                 1.0857                 1.0885
 Frc consts  --      6.5945                 6.5217                 6.5667
 IR Inten    --      1.8662                 1.4576                 4.1989

                     73                     74                     75
                      A                      A                      A
 Frequencies --   3208.5373              3216.5345              3222.4978
 Red. masses --      1.0922                 1.0944                 1.0977
 Frc consts  --      6.6246                 6.6711                 6.7161
 IR Inten    --     19.9625                26.5847                18.9754

                     76                     77                     78
                      A                      A                      A
 Frequencies --   3230.0200              3522.7657              3608.1780
 Red. masses --      1.0884                 1.0505                 1.0967
 Frc consts  --      6.6902                 7.6809                 8.4124
 IR Inten    --      3.2235                58.0425                46.3551

 - Thermochemistry -
 -------------------
 Temperature   298.150 Kelvin.  Pressure   1.00000 Atm.
 Atom     1 has atomic number  6 and mass  12.00000

 Molecular mass:   211.07639 amu.
 Principal axes and moments of inertia in atomic units:
                           1         2         3
     Eigenvalues --  1577.384766083.793696207.90793
           X            0.99969  -0.02108  -0.01332
           Y            0.01665   0.96189  -0.27293
           Z            0.01856   0.27262   0.96194
 This molecule is an asymmetric top.
 Rotational symmetry number  1.
 Warning -- assumption of classical behavior for rotation
           may cause significant error
 Rotational temperatures (Kelvin)      0.05491     0.01424     0.01395
 Rotational constants (GHZ):           1.14414     0.29665     0.29072
    1 imaginary frequencies ignored.
 Zero-point vibrational energy     605656.6 (Joules/Mol)
                                  144.75539 (Kcal/Mol)
 Warning -- explicit consideration of  19 degrees of freedom as
           vibrations may cause significant error
 Vibrational temperatures:     51.01    55.26   101.58   123.83   142.09
          (Kelvin)            238.26   283.03   284.98   327.40   372.15
                              393.19   412.64   434.17   497.04   580.07
                              603.01   608.59   684.62   774.03   913.76
                              915.29   965.22  1035.77  1041.10  1052.23
                             1097.11  1198.15  1263.33  1266.16  1370.61
                             1397.75  1432.97  1460.37  1475.71  1481.63
                             1483.74  1521.72  1528.71  1559.67  1588.94
                             1602.23  1621.46  1701.83  1731.99  1754.18
                             1808.73  1910.50  1926.93  1946.10  1962.85
                             2053.11  2083.26  2101.86  2115.30  2138.56
                             2147.15  2157.89  2166.70  2213.52  2348.85
                             2364.87  2391.39  2406.46  4410.34  4426.15
                             4516.30  4532.99  4559.12  4584.16  4593.98
                             4603.96  4616.37  4627.88  4636.46  4647.28
                             5068.47  5191.36

 Zero-point correction=                           0.230682 (Hartree/Particle)
 Thermal correction to Energy=                    0.244836
 Thermal correction to Enthalpy=                  0.245780
 Thermal correction to Gibbs Free Energy=         0.188402
 Sum of electronic and zero-point Energies=          -1017.543932
 Sum of electronic and thermal Energies=             -1017.529779
 Sum of electronic and thermal Enthalpies=           -1017.528834
 Sum of electronic and thermal Free Energies=        -1017.586213

                     E (Thermal)             CV                S
                      KCal/Mol        Cal/Mol-Kelvin    Cal/Mol-Kelvin
 Total                  153.637             52.440            120.763
 Electronic               0.000              0.000              0.000
 Translational            0.889              2.981             41.945
 Rotational               0.889              2.981             32.455
 Vibrational            151.859             46.479             46.363
 Vibration     1          0.594              1.982              5.498
 Vibration     2          0.594              1.982              5.340
 Vibration     3          0.598              1.968              4.136
 Vibration     4          0.601              1.959              3.747
 Vibration     5          0.604              1.950              3.479
 Vibration     6          0.624              1.885              2.485
 Vibration     7          0.636              1.844              2.164
 Vibration     8          0.637              1.843              2.151
 Vibration     9          0.651              1.799              1.898
 Vibration    10          0.667              1.748              1.671
 Vibration    11          0.676              1.723              1.575
 Vibration    12          0.684              1.698              1.493
 Vibration    13          0.694              1.670              1.407
 Vibration    14          0.724              1.585              1.187
 Vibration    15          0.769              1.463              0.951
 Vibration    16          0.782              1.429              0.895
 Vibration    17          0.785              1.420              0.882
 Vibration    18          0.832              1.304              0.721
 Vibration    19          0.893              1.166              0.570

 Optimization completed on the basis of negligible forces.
    -- Stationary point found.
 Normal termination of Gaussian 16 at Thu Feb 25 17:54:44 2021.
