 Gaussian 16, Revision A.03,
 Gaussian 16:  ES64L-G16RevA.03 25-Dec-2016

 ----------------------------------------------------------------------
 # wB97XD def2tzvp, opt=(ts, noeigen, calcfc, maxcycles=70, maxstep=5),
  freq=noraman, scrf=(iefpcm, solvent=water)
 ----------------------------------------------------------------------

 ------------------------
 2_iteration/TS-827-2.out
 ------------------------
 Symbolic Z-matrix:
 Charge =  0 Multiplicity = 1

 SCF Done:  E(RwB97XD) =  -3607.44024567     A.U. after   15 cycles
 Optimization completed.
    -- Stationary point found.
 Normal termination of Gaussian 16 at Fri Feb 26 11:16:21 2021.

 ---------------------------------------------------------------------
 #N Geom=AllCheck Guess=TCheck SCRF=Check GenChk RwB97XD/def2TZVP Freq
 ---------------------------------------------------------------------

 Structure from the checkpoint file:  "/beegfs/scratch/user/q/tla25/Gau-31526.chk"
 ------------------------
 2_iteration/TS-827-2.out
 ------------------------
 Charge =  0 Multiplicity = 1

                         Standard orientation:
 ---------------------------------------------------------------------
 Center     Atomic      Atomic             Coordinates (Angstroms)
 Number     Number       Type             X           Y           Z
 ---------------------------------------------------------------------
      1          6           0        0.877003    0.418558   -0.079640
      2          6           0        0.639474    1.769408    0.403450
      3          8           0       -0.421116    2.115309    0.933220
      4          6           0       -0.096728   -0.578981   -0.059410
      5          6           0        0.273101   -0.789531    2.716310
      6          1           0        0.683131   -1.379042    3.535100
      7          1           0        0.957362    0.024788    2.481090
      8          1           0       -0.685088   -0.369560    3.009780
      9          7           0        0.112040   -1.607041    1.516610
     10          1           0        0.974390   -2.099012    1.307650
     11          1           0       -0.611110   -2.312070    1.612630
     12         17           0        0.158670   -1.974851   -1.179530
     13          6           0       -1.552708   -0.193080   -0.134270
     14          6           0       -1.941297    0.535421   -1.258870
     15          6           0       -3.262367    0.892662   -1.450270
     16          6           0       -4.227077    0.522773   -0.521870
     17          6           0       -3.851668   -0.211207    0.589490
     18          6           0       -2.524228   -0.573309    0.779720
     19          1           0       -1.191737    0.827630   -1.982850
     20          1           0       -3.540356    1.462733   -2.327580
     21          1           0       -5.262507    0.802334   -0.667910
     22          1           0       -4.591518   -0.510126    1.320840
     23          1           0       -2.282409   -1.140699    1.665120
     24         35           0        2.686452   -0.086814   -0.456800
     25          7           0        1.648855    2.677107    0.273490
     26          1           0        2.446505    2.504006   -0.309980
     27          1           0        1.421766    3.630747    0.491850
 ---------------------------------------------------------------------

 SCF Done:  E(RwB97XD) =  -3607.44024567     A.U. after    1 cycles

 The electronic state is 1-A.
 Alpha  occ. eigenvalues -- -483.12796-101.70085 -62.67625 -56.46731 -56.46396
 Alpha  occ. eigenvalues --  -56.46384 -19.20105 -14.49980 -14.43882 -10.41627
 Alpha  occ. eigenvalues --  -10.38774 -10.32090 -10.31739 -10.31190 -10.29850
 Alpha  occ. eigenvalues --  -10.29413 -10.29395 -10.29304 -10.29246  -9.58684
 Alpha  occ. eigenvalues --   -8.81737  -7.33323  -7.32469  -7.32427  -6.63852
 Alpha  occ. eigenvalues --   -6.62782  -6.62743  -2.74247  -2.73940  -2.73908
 Alpha  occ. eigenvalues --   -2.73044  -2.73042  -1.13000  -1.05747  -0.99647
 Alpha  occ. eigenvalues --   -0.99114  -0.96093  -0.90590  -0.87341  -0.85706
 Alpha  occ. eigenvalues --   -0.81695  -0.79675  -0.74192  -0.71218  -0.69959
 Alpha  occ. eigenvalues --   -0.65445  -0.64476  -0.62174  -0.59899  -0.58604
 Alpha  occ. eigenvalues --   -0.57145  -0.56582  -0.54327  -0.53209  -0.52254
 Alpha  occ. eigenvalues --   -0.51409  -0.51266  -0.50282  -0.48462  -0.47714
 Alpha  occ. eigenvalues --   -0.46640  -0.46390  -0.44150  -0.43276  -0.41357
 Alpha  occ. eigenvalues --   -0.39758  -0.39704  -0.37442  -0.35713  -0.34883
 Alpha  occ. eigenvalues --   -0.33877  -0.32065  -0.27895
 Alpha virt. eigenvalues --    0.02515   0.04875   0.05338   0.07425   0.10318
 Alpha virt. eigenvalues --    0.11194   0.12890   0.13672   0.14546   0.15469
 Alpha virt. eigenvalues --    0.16055   0.16830   0.17380   0.18562   0.18919

 Mulliken charges:
               1
     1  C   -0.293690
     2  C    0.333447
     3  O   -0.515662
     4  C    0.215286
     5  C   -0.289052
     6  H    0.165101
     7  H    0.160367
     8  H    0.155190
     9  N   -0.318970
    10  H    0.286262
    11  H    0.292290
    12  Cl  -0.116095
    13  C    0.268739
    14  C   -0.316499
    15  C   -0.118329
    16  C   -0.155252
    17  C   -0.163557
    18  C   -0.229868
    19  H    0.153764
    20  H    0.144926
    21  H    0.145576
    22  H    0.144938
    23  H    0.138936
    24  Br  -0.147879
    25  N   -0.474672
    26  H    0.267829
    27  H    0.266871
 Sum of Mulliken charges =  -0.00000

 Dipole moment (field-independent basis, Debye):
    X=             -0.1292    Y=             -3.9018    Z=              3.3253  Tot=              5.1281
 Quadrupole moment (field-independent basis, Debye-Ang):
   XX=           -100.7430   YY=           -100.8584   ZZ=            -99.0820
   XY=              6.3597   XZ=              1.2948   YZ=            -17.1127

  Exact polarizability: 277.251  -1.774 226.324 -15.320 -16.829 210.891
 Approx polarizability: 217.739  -4.065 188.221 -14.208 -13.572 183.219

 ******    1 imaginary frequencies (negative Signs) ******

                      1                      2                      3
                      A                      A                      A
 Frequencies --   -343.7911                36.9613                50.0767
 Red. masses --      5.3115                 4.8732                 5.3837
 Frc consts  --      0.3699                 0.0039                 0.0080
 IR Inten    --    612.1628                 1.5603                 0.7952

                      4                      5                      6
                      A                      A                      A
 Frequencies --     58.5630                83.5601               114.3202
 Red. masses --      4.9385                 6.2827                 4.3806
 Frc consts  --      0.0100                 0.0258                 0.0337
 IR Inten    --      8.3147                 6.9339                10.1478

                      7                      8                      9
                      A                      A                      A
 Frequencies --    130.6002               167.1794               170.1823
 Red. masses --      3.7848                 1.4353                 5.9806
 Frc consts  --      0.0380                 0.0236                 0.1021
 IR Inten    --      4.6421                 1.8576                 1.5422

                     10                     11                     12
                      A                      A                      A
 Frequencies --    192.2543               215.0956               233.0716
 Red. masses --      8.3561                 5.4219                 2.8175
 Frc consts  --      0.1820                 0.1478                 0.0902
 IR Inten    --     19.8445                 5.2284                65.2492

                     13                     14                     15
                      A                      A                      A
 Frequencies --    251.3057               271.3783               299.3077
 Red. masses --      1.3563                 3.5988                 4.1626
 Frc consts  --      0.0505                 0.1562                 0.2197
 IR Inten    --    269.7967                10.3341                 5.9821

                     16                     17                     18
                      A                      A                      A
 Frequencies --    325.5889               355.5200               371.8522
 Red. masses --      4.1849                 6.0668                 6.0433
 Frc consts  --      0.2614                 0.4518                 0.4923
 IR Inten    --     33.4379                26.9267                32.5506

                     19                     20                     21
                      A                      A                      A
 Frequencies --    413.8345               422.6815               524.3617
 Red. masses --      6.3395                 2.9170                 3.0471
 Frc consts  --      0.6397                 0.3070                 0.4936
 IR Inten    --     15.2770                 0.4362                 7.5576

                     22                     23                     24
                      A                      A                      A
 Frequencies --    527.5023               568.3861               591.0234
 Red. masses --      1.2168                 3.9363                 2.7442
 Frc consts  --      0.1995                 0.7493                 0.5648
 IR Inten    --     34.9391               186.2412                24.5165

                     25                     26                     27
                      A                      A                      A
 Frequencies --    633.1142               645.0223               708.2475
 Red. masses --      5.7194                 6.0875                 1.7432
 Frc consts  --      1.3507                 1.4922                 0.5152
 IR Inten    --     34.7608                61.0404                23.4075

                     28                     29                     30
                      A                      A                      A
 Frequencies --    722.4952               762.2811               778.4637
 Red. masses --      1.8035                 2.2421                 8.1288
 Frc consts  --      0.5547                 0.7676                 2.9024
 IR Inten    --     55.0640               187.5641                57.8057

                     31                     32                     33
                      A                      A                      A
 Frequencies --    835.2970               865.7556               869.1552
 Red. masses --      3.5097                 2.0361                 1.8886
 Frc consts  --      1.4428                 0.8992                 0.8406
 IR Inten    --     50.2395                39.4814                37.3777

                     34                     35                     36
                      A                      A                      A
 Frequencies --    953.4042              1002.7871              1011.5434
 Red. masses --      1.4863                 1.2398                 1.3124
 Frc consts  --      0.7960                 0.7345                 0.7912
 IR Inten    --      0.1340                13.5970                 4.7597

                     37                     38                     39
                      A                      A                      A
 Frequencies --   1024.7400              1028.5184              1044.0596
 Red. masses --      5.7316                 1.3122                 3.0543
 Frc consts  --      3.5461                 0.8179                 1.9616
 IR Inten    --      0.9566                 0.0651                12.1333

                     40                     41                     42
                      A                      A                      A
 Frequencies --   1068.5174              1074.8586              1084.7098
 Red. masses --      1.8032                 2.9538                 1.6937
 Frc consts  --      1.2130                 2.0106                 1.1742
 IR Inten    --      8.5627                10.6892               110.2190

                     43                     44                     45
                      A                      A                      A
 Frequencies --   1102.9014              1131.9373              1186.7341
 Red. masses --      1.9307                 1.5979                 1.1472
 Frc consts  --      1.3837                 1.2063                 0.9519
 IR Inten    --     31.0785                 8.7362                 1.3197

                     46                     47                     48
                      A                      A                      A
 Frequencies --   1211.3170              1233.0692              1246.8470
 Red. masses --      3.3467                 1.1794                 1.4126
 Frc consts  --      2.8933                 1.0565                 1.2939
 IR Inten    --    131.6778                 8.4444                27.2468

                     49                     50                     51
                      A                      A                      A
 Frequencies --   1319.1832              1342.9780              1374.3381
 Red. masses --      5.0967                 1.3315                 3.1232
 Frc consts  --      5.2258                 1.4149                 3.4756
 IR Inten    --      9.4115                 1.4327               276.9542

                     52                     53                     54
                      A                      A                      A
 Frequencies --   1377.8205              1409.1326              1472.8023
 Red. masses --      1.5718                 5.4183                 1.2268
 Frc consts  --      1.7581                 6.3389                 1.5679
 IR Inten    --    164.1951               902.4984                13.0027

                     55                     56                     57
                      A                      A                      A
 Frequencies --   1489.0131              1492.2863              1508.8118
 Red. masses --      1.0707                 2.0800                 1.0363
 Frc consts  --      1.3986                 2.7291                 1.3899
 IR Inten    --     23.8578                24.9971                14.2238

                     58                     59                     60
                      A                      A                      A
 Frequencies --   1548.4607              1612.8200              1651.5090
 Red. masses --      2.2367                 1.4246                 2.0469
 Frc consts  --      3.1597                 2.1832                 3.2893
 IR Inten    --     25.2205               329.3486                49.8225

                     61                     62                     63
                      A                      A                      A
 Frequencies --   1661.6107              1666.0291              1676.8208
 Red. masses --      1.7112                 4.4931                 4.8384
 Frc consts  --      2.7836                 7.3479                 8.0154
 IR Inten    --     49.8883               603.1194                 1.6203

                     64                     65                     66
                      A                      A                      A
 Frequencies --   3080.2892              3158.3959              3184.0865
 Red. masses --      1.0333                 1.1047                 1.1052
 Frc consts  --      5.7764                 6.4927                 6.6018
 IR Inten    --     28.0512                 6.2245                11.4293

                     67                     68                     69
                      A                      A                      A
 Frequencies --   3198.5480              3206.5551              3215.4373
 Red. masses --      1.0861                 1.0893                 1.0938
 Frc consts  --      6.5468                 6.5992                 6.6629
 IR Inten    --      0.5406                 5.0360                22.4807

                     70                     71                     72
                      A                      A                      A
 Frequencies --   3224.2181              3254.2226              3520.3911
 Red. masses --      1.0981                 1.0911                 1.0516
 Frc consts  --      6.7260                 6.8075                 7.6783
 IR Inten    --     21.6941                18.5501                51.7567

                     73                     74                     75
                      A                      A                      A
 Frequencies --   3594.8029              3627.9276              3753.3117
 Red. masses --      1.0953                 1.0456                 1.1045
 Frc consts  --      8.3391                 8.1080                 9.1676
 IR Inten    --     55.6699                81.4905                84.5558

 - Thermochemistry -
 -------------------
 Temperature   298.150 Kelvin.  Pressure   1.00000 Atm.
 Atom     1 has atomic number  6 and mass  12.00000

 Molecular mass:   289.98215 amu.
 Principal axes and moments of inertia in atomic units:
                           1         2         3
     Eigenvalues --  2721.166405992.369926535.52448
           X            0.99985   0.00946   0.01433
           Y           -0.00730   0.98956  -0.14395
           Z           -0.01555   0.14383   0.98948
 This molecule is an asymmetric top.
 Rotational symmetry number  1.
 Warning -- assumption of classical behavior for rotation
           may cause significant error
 Rotational temperatures (Kelvin)      0.03183     0.01445     0.01325
 Rotational constants (GHZ):           0.66322     0.30117     0.27614
    1 imaginary frequencies ignored.
 Zero-point vibrational energy     551611.2 (Joules/Mol)
                                  131.83823 (Kcal/Mol)
 Warning -- explicit consideration of  23 degrees of freedom as
           vibrations may cause significant error
 Vibrational temperatures:     53.18    72.05    84.26   120.22   164.48
          (Kelvin)            187.90   240.53   244.85   276.61   309.47
                              335.34   361.57   390.45   430.64   468.45
                              511.51   535.01   595.42   608.14   754.44
                              758.96   817.78   850.35   910.91   928.04
                             1019.01  1039.51  1096.75  1120.04  1201.81
                             1245.63  1250.52  1371.74  1442.79  1455.39
                             1474.37  1479.81  1502.17  1537.36  1546.48
                             1560.66  1586.83  1628.61  1707.45  1742.82
                             1774.11  1793.93  1898.01  1932.25  1977.37
                             1982.38  2027.43  2119.03  2142.36  2147.07
                             2170.84  2227.89  2320.49  2376.15  2390.69
                             2397.04  2412.57  4431.85  4544.23  4581.19
                             4602.00  4613.52  4626.30  4638.93  4682.10
                             5065.06  5172.12  5219.78  5400.18

 Zero-point correction=                           0.210098 (Hartree/Particle)
 Thermal correction to Energy=                    0.225567
 Thermal correction to Enthalpy=                  0.226512
 Thermal correction to Gibbs Free Energy=         0.166041
 Sum of electronic and zero-point Energies=          -3607.230148
 Sum of electronic and thermal Energies=             -3607.214678
 Sum of electronic and thermal Enthalpies=           -3607.213734
 Sum of electronic and thermal Free Energies=        -3607.274205

                     E (Thermal)             CV                S
                      KCal/Mol        Cal/Mol-Kelvin    Cal/Mol-Kelvin
 Total                  141.546             56.399            127.271
 Electronic               0.000              0.000              0.000
 Translational            0.889              2.981             42.892
 Rotational               0.889              2.981             33.033
 Vibrational            139.768             50.437             51.347
 Vibration     1          0.594              1.982              5.416
 Vibration     2          0.595              1.978              4.814
 Vibration     3          0.596              1.974              4.505
 Vibration     4          0.600              1.960              3.805
 Vibration     5          0.607              1.938              3.194
 Vibration     6          0.612              1.923              2.937
 Vibration     7          0.624              1.883              2.467
 Vibration     8          0.625              1.879              2.433
 Vibration     9          0.634              1.851              2.206
 Vibration    10          0.645              1.818              2.000
 Vibration    11          0.654              1.790              1.855
 Vibration    12          0.663              1.761              1.721
 Vibration    13          0.675              1.726              1.587
 Vibration    14          0.692              1.675              1.421
 Vibration    15          0.710              1.624              1.282
 Vibration    16          0.731              1.564              1.142
 Vibration    17          0.744              1.530              1.072
 Vibration    18          0.777              1.440              0.913
 Vibration    19          0.785              1.421              0.883
 Vibration    20          0.879              1.196              0.600
 Vibration    21          0.882              1.189              0.593
 Vibration    22          0.924              1.100              0.507
 Vibration    23          0.948              1.051              0.465

 Optimization completed.
    -- Stationary point found.
 Normal termination of Gaussian 16 at Fri Feb 26 12:16:47 2021.
