 Gaussian 16, Revision A.03,
 Gaussian 16:  ES64L-G16RevA.03 25-Dec-2016

 ----------------------------------------------------------------------
 # wB97XD def2tzvp, opt=(ts, noeigen, calcfc, maxcycles=70, maxstep=5),
  freq=noraman, scrf=(iefpcm, solvent=water)
 ----------------------------------------------------------------------

 ------------------------
 2_iteration/TS-884-2.out
 ------------------------
 Symbolic Z-matrix:
 Charge =  0 Multiplicity = 1

 SCF Done:  E(RwB97XD) =  -1132.32726659     A.U. after   15 cycles
 Optimization completed.
    -- Stationary point found.
 Normal termination of Gaussian 16 at Fri Feb 26 07:42:55 2021.

 ---------------------------------------------------------------------
 #N Geom=AllCheck Guess=TCheck SCRF=Check GenChk RwB97XD/def2TZVP Freq
 ---------------------------------------------------------------------

 Structure from the checkpoint file:  "/beegfs/scratch/user/q/tla25/Gau-37574.chk"
 ------------------------
 2_iteration/TS-884-2.out
 ------------------------
 Charge =  0 Multiplicity = 1

                         Standard orientation:
 ---------------------------------------------------------------------
 Center     Atomic      Atomic             Coordinates (Angstroms)
 Number     Number       Type             X           Y           Z
 ---------------------------------------------------------------------
      1          6           0       -0.411661    0.245629   -0.284299
      2          6           0       -0.878332    1.601759   -0.268039
      3          8           0       -2.021752    2.021598   -0.400609
      4          6           0       -1.304740   -0.825482   -0.424289
      5          6           0       -2.071070   -0.686612    2.251081
      6          1           0       -1.889249   -1.039442    3.265141
      7          1           0       -1.549651    0.260508    2.101031
      8          1           0       -3.137690   -0.533223    2.108461
      9          7           0       -1.577999   -1.637272    1.260341
     10          1           0       -0.656949   -1.983951    1.505671
     11          1           0       -2.189698   -2.439752    1.157591
     12         17           0       -0.602028   -2.303621   -1.197799
     13          6           0       -2.732310   -0.660153   -0.866139
     14          1           0       -3.250670    0.044837   -0.223709
     15          1           0       -2.748290   -0.256983   -1.878149
     16          1           0       -3.244779   -1.620413   -0.863889
     17          6           0        1.041720   -0.017379   -0.059519
     18          6           0        1.546600   -0.234489    1.221171
     19          6           0        2.894960   -0.493828    1.430441
     20          6           0        3.769030   -0.533257    0.355121
     21          6           0        3.284870   -0.308608   -0.927259
     22          6           0        1.937090   -0.055289   -1.127939
     23          1           0        0.880410   -0.179740    2.074751
     24          1           0        3.261630   -0.659648    2.435981
     25          1           0        4.821200   -0.733846    0.513891
     26          1           0        3.960420   -0.332947   -1.773629
     27          1           0        1.562960    0.114601   -2.130439
     28          8           0        0.147518    2.480560   -0.088459
     29          6           0       -0.198844    3.855929   -0.073489
     30          1           0       -0.655144    4.159619   -1.016469
     31          1           0       -0.888334    4.081419    0.741171
     32          1           0        0.734296    4.394830    0.074341
 ---------------------------------------------------------------------

 SCF Done:  E(RwB97XD) =  -1132.32726659     A.U. after    1 cycles

 The electronic state is 1-A.
 Alpha  occ. eigenvalues -- -101.69237 -19.27544 -19.20640 -14.49473 -10.40439
 Alpha  occ. eigenvalues --  -10.39388 -10.32309 -10.32031 -10.29643 -10.28728
 Alpha  occ. eigenvalues --  -10.28662 -10.28594 -10.28527 -10.28418 -10.28275
 Alpha  occ. eigenvalues --  -10.26426  -9.57852  -7.32460  -7.31655  -7.31609
 Alpha  occ. eigenvalues --   -1.18907  -1.09273  -1.05272  -0.97555  -0.95729
 Alpha  occ. eigenvalues --   -0.88748  -0.85087  -0.84658  -0.82367  -0.79486
 Alpha  occ. eigenvalues --   -0.78517  -0.70078  -0.69595  -0.68534  -0.63982
 Alpha  occ. eigenvalues --   -0.62903  -0.61473  -0.58888  -0.57278  -0.56655
 Alpha  occ. eigenvalues --   -0.56042  -0.55076  -0.54058  -0.53800  -0.52349
 Alpha  occ. eigenvalues --   -0.50738  -0.50431  -0.49869  -0.48551  -0.47905
 Alpha  occ. eigenvalues --   -0.46781  -0.46575  -0.46029  -0.44529  -0.43467
 Alpha  occ. eigenvalues --   -0.42343  -0.41986  -0.39635  -0.38892  -0.37610
 Alpha  occ. eigenvalues --   -0.35270  -0.33372  -0.32069  -0.27813
 Alpha virt. eigenvalues --    0.05278   0.05503   0.06234   0.08413   0.10096
 Alpha virt. eigenvalues --    0.12845   0.13483   0.14359   0.14728   0.15649
 Alpha virt. eigenvalues --    0.16308   0.16730   0.17386   0.18174   0.18724

 Mulliken charges:
               1
     1  C   -0.357039
     2  C    0.462391
     3  O   -0.518544
     4  C    0.161428
     5  C   -0.328226
     6  H    0.168160
     7  H    0.159706
     8  H    0.169835
     9  N   -0.301357
    10  H    0.285690
    11  H    0.293058
    12  Cl  -0.136639
    13  C   -0.354839
    14  H    0.152882
    15  H    0.147598
    16  H    0.143398
    17  C    0.292335
    18  C   -0.311480
    19  C   -0.168064
    20  C   -0.141186
    21  C   -0.145508
    22  C   -0.258809
    23  H    0.166638
    24  H    0.138379
    25  H    0.141494
    26  H    0.138186
    27  H    0.133753
    28  O   -0.308786
    29  C   -0.203862
    30  H    0.122586
    31  H    0.122558
    32  H    0.134264
 Sum of Mulliken charges =  -0.00000

 Dipole moment (field-independent basis, Debye):
    X=             -1.7191    Y=             -4.4691    Z=              5.2090  Tot=              7.0755
 Quadrupole moment (field-independent basis, Debye-Ang):
   XX=            -95.9928   YY=            -99.6761   ZZ=            -91.7488
   XY=             12.2035   XZ=             -7.9376   YZ=             -7.1128

  Exact polarizability: 252.102  -3.146 229.661  -5.236  -6.743 224.495
 Approx polarizability: 202.971  -5.805 182.467  -3.882  -4.709 191.330

 ******    1 imaginary frequencies (negative Signs) ******

                      1                      2                      3
                      A                      A                      A
 Frequencies --   -361.1685                36.4292                47.4133
 Red. masses --      5.7338                 3.8882                 3.9704
 Frc consts  --      0.4407                 0.0030                 0.0053
 IR Inten    --    744.0015                 1.5053                 2.7181

                      4                      5                      6
                      A                      A                      A
 Frequencies --     64.1205                70.3792                90.4953
 Red. masses --      5.0917                 5.6281                 3.7162
 Frc consts  --      0.0123                 0.0164                 0.0179
 IR Inten    --      6.8627                 1.6624                 1.6323

                      7                      8                      9
                      A                      A                      A
 Frequencies --    121.5290               145.6819               149.2360
 Red. masses --      2.3004                 2.8540                 4.7391
 Frc consts  --      0.0200                 0.0357                 0.0622
 IR Inten    --      6.1257                 6.4682                 2.0030

                     10                     11                     12
                      A                      A                      A
 Frequencies --    179.1850               193.1271               204.0854
 Red. masses --      1.2347                 2.7599                 1.2567
 Frc consts  --      0.0234                 0.0607                 0.0308
 IR Inten    --      1.0242                 1.0542                 1.3882

                     13                     14                     15
                      A                      A                      A
 Frequencies --    239.5538               254.1327               284.1920
 Red. masses --      4.8731                 3.0623                 1.4328
 Frc consts  --      0.1648                 0.1165                 0.0682
 IR Inten    --     17.9749                10.9927                 9.6132

                     16                     17                     18
                      A                      A                      A
 Frequencies --    295.3361               320.4593               340.2663
 Red. masses --      2.8089                 3.8730                 4.0167
 Frc consts  --      0.1444                 0.2343                 0.2740
 IR Inten    --     10.2163                18.6422                34.2729

                     19                     20                     21
                      A                      A                      A
 Frequencies --    364.0699               386.6730               409.3611
 Red. masses --      3.1953                 3.8247                 5.3066
 Frc consts  --      0.2495                 0.3369                 0.5239
 IR Inten    --     11.5120                 6.7482                37.8268

                     22                     23                     24
                      A                      A                      A
 Frequencies --    425.0987               473.0403               550.4910
 Red. masses --      2.8913                 3.8177                 3.7622
 Frc consts  --      0.3078                 0.5033                 0.6717
 IR Inten    --      0.0064                17.9679                 2.4053

                     25                     26                     27
                      A                      A                      A
 Frequencies --    580.3548               641.0458               659.3703
 Red. masses --      4.6909                 6.4457                 2.3269
 Frc consts  --      0.9309                 1.5606                 0.5961
 IR Inten    --     79.1292                 3.9500               103.0977

                     28                     29                     30
                      A                      A                      A
 Frequencies --    680.1772               722.9817               730.5251
 Red. masses --      6.1118                 1.9654                 1.5784
 Frc consts  --      1.6660                 0.6053                 0.4963
 IR Inten    --      9.7495               209.5469                54.0482

                     31                     32                     33
                      A                      A                      A
 Frequencies --    790.7915               803.6406               810.2254
 Red. masses --      3.1513                 5.6676                 3.7430
 Frc consts  --      1.1611                 2.1566                 1.4477
 IR Inten    --     36.3627                44.2116                59.6196

                     34                     35                     36
                      A                      A                      A
 Frequencies --    879.8398               952.4253               976.0839
 Red. masses --      1.2476                 1.4660                 4.7481
 Frc consts  --      0.5690                 0.7835                 2.6653
 IR Inten    --      0.0126                 8.5547                43.2111

                     37                     38                     39
                      A                      A                      A
 Frequencies --   1002.3708              1010.7641              1020.7784
 Red. masses --      2.0652                 1.4283                 1.3212
 Frc consts  --      1.2226                 0.8597                 0.8111
 IR Inten    --     58.7449                 3.1128                37.1392

                     40                     41                     42
                      A                      A                      A
 Frequencies --   1026.5997              1028.3105              1050.1977
 Red. masses --      1.6152                 3.0930                 1.2048
 Frc consts  --      1.0030                 1.9270                 0.7829
 IR Inten    --      0.3213                 5.9283                 7.4287

                     43                     44                     45
                      A                      A                      A
 Frequencies --   1060.8726              1071.1751              1083.0030
 Red. masses --      1.9845                 1.5541                 3.4246
 Frc consts  --      1.3159                 1.0507                 2.3666
 IR Inten    --     69.8163                88.2464                 1.9853

                     46                     47                     48
                      A                      A                      A
 Frequencies --   1109.7894              1111.0314              1152.2739
 Red. masses --      1.6142                 2.3513                 4.6053
 Frc consts  --      1.1714                 1.7100                 3.6026
 IR Inten    --     50.2495               195.7809                86.7003

                     49                     50                     51
                      A                      A                      A
 Frequencies --   1181.6077              1181.8687              1208.0000
 Red. masses --      1.2020                 1.2052                 1.1317
 Frc consts  --      0.9888                 0.9918                 0.9730
 IR Inten    --      0.7536                 1.0679                 1.8717

                     52                     53                     54
                      A                      A                      A
 Frequencies --   1213.1013              1230.6442              1242.8240
 Red. masses --      1.5154                 1.3938                 4.7522
 Frc consts  --      1.3140                 1.2437                 4.3248
 IR Inten    --    125.5627                34.9915               395.5334

                     55                     56                     57
                      A                      A                      A
 Frequencies --   1306.3212              1337.7924              1339.9990
 Red. masses --      4.5759                 1.8967                 2.3930
 Frc consts  --      4.6007                 2.0000                 2.5317
 IR Inten    --      1.2311               216.2280               432.5796

                     58                     59                     60
                      A                      A                      A
 Frequencies --   1357.5489              1411.5111              1441.4608
 Red. masses --      1.4522                 1.5638                 2.0161
 Frc consts  --      1.5768                 1.8357                 2.4681
 IR Inten    --      6.0954               304.2924               300.5696

                     61                     62                     63
                      A                      A                      A
 Frequencies --   1463.8474              1468.8719              1478.2621
 Red. masses --      1.2165                 1.0978                 1.1875
 Frc consts  --      1.5359                 1.3956                 1.5289
 IR Inten    --     58.2488                 5.6376                75.5495

                     64                     65                     66
                      A                      A                      A
 Frequencies --   1481.5220              1486.4868              1489.0033
 Red. masses --      1.0466                 2.1287                 1.1849
 Frc consts  --      1.3534                 2.7714                 1.5478
 IR Inten    --     10.7095                 5.1822                39.0361

                     67                     68                     69
                      A                      A                      A
 Frequencies --   1498.1486              1499.4222              1507.9543
 Red. masses --      1.0701                 1.0504                 1.0341
 Frc consts  --      1.4151                 1.3914                 1.3854
 IR Inten    --      3.4692                21.6887                15.1921

                     70                     71                     72
                      A                      A                      A
 Frequencies --   1545.5727              1642.7096              1645.1954
 Red. masses --      2.4648                 1.1395                 4.6015
 Frc consts  --      3.4690                 1.8118                 7.3382
 IR Inten    --     28.1788                67.6248                 8.3370

                     73                     74                     75
                      A                      A                      A
 Frequencies --   1672.1877              1694.7333              3056.2591
 Red. masses --      6.0984                10.3985                 1.0311
 Frc consts  --     10.0469                17.5965                 5.6746
 IR Inten    --     71.0564               783.5124                73.5350

                     76                     77                     78
                      A                      A                      A
 Frequencies --   3067.4856              3084.2764              3128.8391
 Red. masses --      1.0348                 1.0372                 1.1063
 Frc consts  --      5.7369                 5.8133                 6.3811
 IR Inten    --     31.6521                14.3774                44.6110

                     79                     80                     81
                      A                      A                      A
 Frequencies --   3143.7301              3158.3965              3163.7257
 Red. masses --      1.1032                 1.1032                 1.1047
 Frc consts  --      6.4240                 6.4841                 6.5148
 IR Inten    --      7.0391                17.0108                29.1261

                     82                     83                     84
                      A                      A                      A
 Frequencies --   3176.3957              3185.0184              3189.2120
 Red. masses --      1.1050                 1.0865                 1.0874
 Frc consts  --      6.5690                 6.4940                 6.5164
 IR Inten    --     11.4158                11.8507                 1.8118

                     85                     86                     87
                      A                      A                      A
 Frequencies --   3194.1004              3199.4500              3206.2507
 Red. masses --      1.1006                 1.0911                 1.0951
 Frc consts  --      6.6157                 6.5805                 6.6328
 IR Inten    --      2.4597                14.3494                51.1443

                     88                     89                     90
                      A                      A                      A
 Frequencies --   3218.0279              3516.8057              3598.1061
 Red. masses --      1.0988                 1.0511                 1.0964
 Frc consts  --      6.7040                 7.6595                 8.3630
 IR Inten    --     19.9480                46.4350                68.4220

 - Thermochemistry -
 -------------------
 Temperature   298.150 Kelvin.  Pressure   1.00000 Atm.
 Atom     1 has atomic number  6 and mass  12.00000

 Molecular mass:   241.08696 amu.
 Principal axes and moments of inertia in atomic units:
                           1         2         3
     Eigenvalues --  3422.778324086.180745614.52849
           X            0.99967   0.02030  -0.01601
           Y           -0.02079   0.99931  -0.03094
           Z            0.01537   0.03126   0.99939
 This molecule is an asymmetric top.
 Rotational symmetry number  1.
 Warning -- assumption of classical behavior for rotation
           may cause significant error
 Rotational temperatures (Kelvin)      0.02531     0.02120     0.01543
 Rotational constants (GHZ):           0.52727     0.44167     0.32144
    1 imaginary frequencies ignored.
 Zero-point vibrational energy     693305.7 (Joules/Mol)
                                  165.70404 (Kcal/Mol)
 Warning -- explicit consideration of  24 degrees of freedom as
           vibrations may cause significant error
 Vibrational temperatures:     52.41    68.22    92.26   101.26   130.20
          (Kelvin)            174.85   209.60   214.72   257.81   277.87
                              293.63   344.66   365.64   408.89   424.92
                              461.07   489.57   523.82   556.34   588.98
                              611.62   680.60   792.03   835.00   922.32
                              948.69   978.62  1040.21  1051.06  1137.77
                             1156.26  1165.73  1265.89  1370.33  1404.37
                             1442.19  1454.26  1468.67  1477.05  1479.51
                             1511.00  1526.36  1541.18  1558.20  1596.74
                             1598.53  1657.87  1700.07  1700.45  1738.04
                             1745.38  1770.62  1788.15  1879.50  1924.78
                             1927.96  1953.21  2030.85  2073.94  2106.15
                             2113.38  2126.89  2131.58  2138.72  2142.34
                             2155.50  2157.33  2169.61  2223.73  2363.49
                             2367.07  2405.91  2438.34  4397.28  4413.43
                             4437.59  4501.70  4523.13  4544.23  4551.90
                             4570.12  4582.53  4588.56  4595.60  4603.29
                             4613.08  4630.02  5059.90  5176.87

 Zero-point correction=                           0.264066 (Hartree/Particle)
 Thermal correction to Energy=                    0.280675
 Thermal correction to Enthalpy=                  0.281620
 Thermal correction to Gibbs Free Energy=         0.219215
 Sum of electronic and zero-point Energies=          -1132.063200
 Sum of electronic and thermal Energies=             -1132.046591
 Sum of electronic and thermal Enthalpies=           -1132.045647
 Sum of electronic and thermal Free Energies=        -1132.108052

                     E (Thermal)             CV                S
                      KCal/Mol        Cal/Mol-Kelvin    Cal/Mol-Kelvin
 Total                  176.126             60.955            131.342
 Electronic               0.000              0.000              0.000
 Translational            0.889              2.981             42.341
 Rotational               0.889              2.981             32.729
 Vibrational            174.349             54.993             56.272
 Vibration     1          0.594              1.982              5.444
 Vibration     2          0.595              1.979              4.922
 Vibration     3          0.597              1.971              4.326
 Vibration     4          0.598              1.968              4.143
 Vibration     5          0.602              1.956              3.649
 Vibration     6          0.609              1.931              3.076
 Vibration     7          0.617              1.907              2.728
 Vibration     8          0.618              1.903              2.682
 Vibration     9          0.629              1.868              2.337
 Vibration    10          0.635              1.849              2.198
 Vibration    11          0.640              1.834              2.096
 Vibration    12          0.657              1.780              1.806
 Vibration    13          0.665              1.756              1.702
 Vibration    14          0.683              1.703              1.508
 Vibration    15          0.690              1.682              1.443
 Vibration    16          0.706              1.634              1.308
 Vibration    17          0.720              1.595              1.211
 Vibration    18          0.738              1.546              1.105
 Vibration    19          0.755              1.499              1.013
 Vibration    20          0.774              1.450              0.929
 Vibration    21          0.787              1.416              0.875
 Vibration    22          0.830              1.310              0.729
 Vibration    23          0.906              1.139              0.543
 Vibration    24          0.937              1.074              0.485

 Optimization completed.
    -- Stationary point found.
 Normal termination of Gaussian 16 at Fri Feb 26 08:58:06 2021.
