 Gaussian 16, Revision A.03,
 Gaussian 16:  ES64L-G16RevA.03 25-Dec-2016

 ----------------------------------------------------------------------
 # wB97XD def2tzvp, opt=(ts, noeigen, calcfc, maxcycles=70, maxstep=3),
  freq=noraman, scrf=(iefpcm, solvent=water)
 ----------------------------------------------------------------------

 ------------------------
 3_iteration/TS-816-3.out
 ------------------------
 Symbolic Z-matrix:
 Charge =  0 Multiplicity = 1

 SCF Done:  E(RwB97XD) =  -1209.50639512     A.U. after   15 cycles
 SCF Done:  E(RwB97XD) =  -1209.50640555     A.U. after   10 cycles
 SCF Done:  E(RwB97XD) =  -1209.50640870     A.U. after   10 cycles
 SCF Done:  E(RwB97XD) =  -1209.50640872     A.U. after    6 cycles
 Optimization completed.
    -- Stationary point found.
 Normal termination of Gaussian 16 at Sat Feb 27 05:31:23 2021.

 ---------------------------------------------------------------------
 #N Geom=AllCheck Guess=TCheck SCRF=Check GenChk RwB97XD/def2TZVP Freq
 ---------------------------------------------------------------------

 Structure from the checkpoint file:  "/beegfs/scratch/user/q/tla25/Gau-17496.chk"
 ------------------------
 3_iteration/TS-816-3.out
 ------------------------
 Charge =  0 Multiplicity = 1

                         Standard orientation:
 ---------------------------------------------------------------------
 Center     Atomic      Atomic             Coordinates (Angstroms)
 Number     Number       Type             X           Y           Z
 ---------------------------------------------------------------------
      1          6           0       -0.276801    0.618077   -0.581707
      2          6           0       -1.054750   -0.086716    0.376142
      3          8           0       -0.599302   -0.514405    1.451610
      4          6           0        1.104333    0.762255   -0.441426
      5          6           0        0.523144    2.892271    1.413723
      6          1           0        0.270519    3.149302    2.443284
      7          1           0        1.064833    3.718833    0.958740
      8          1           0       -0.405139    2.726634    0.860118
      9          7           0        1.320456    1.682891    1.336965
     10          1           0        2.280987    1.824940    1.618163
     11          1           0        0.909738    0.923779    1.876090
     12         17           0        1.795760    1.970772   -1.534197
     13          6           0        2.051574   -0.371886   -0.191554
     14          6           0        3.379524   -0.151631    0.168868
     15          6           0        4.246142   -1.214186    0.357993
     16          6           0        3.801000   -2.516523    0.178190
     17          6           0        2.487785   -2.744199   -0.202965
     18          6           0        1.620905   -1.679308   -0.392355
     19          1           0        3.751670    0.858018    0.287181
     20          1           0        5.273320   -1.023470    0.640743
     21          1           0        4.478526   -3.348085    0.324064
     22          1           0        2.134316   -3.755013   -0.361217
     23          1           0        0.603042   -1.861296   -0.707105
     24          1           0       -0.780383    1.238826   -1.305807
     25          6           0       -2.521027   -0.261910    0.095397
     26          6           0       -3.398234   -0.412762    1.166338
     27          6           0       -4.755094   -0.586752    0.947557
     28          6           0       -5.250347   -0.626207   -0.349305
     29          6           0       -4.382437   -0.489058   -1.423357
     30          6           0       -3.026054   -0.303291   -1.201827
     31          1           0       -3.001578   -0.388824    2.173013
     32          1           0       -5.428690   -0.692905    1.788651
     33          1           0       -6.309884   -0.767171   -0.522215
     34          1           0       -4.761832   -0.530285   -2.436543
     35          1           0       -2.354107   -0.210449   -2.045706
 ---------------------------------------------------------------------

 SCF Done:  E(RwB97XD) =  -1209.50640872     A.U. after    1 cycles

 The electronic state is 1-A.
 Alpha  occ. eigenvalues -- -101.70383 -19.21374 -14.47093 -10.40691 -10.36000
 Alpha  occ. eigenvalues --  -10.31366 -10.31147 -10.29942 -10.29708 -10.29655
 Alpha  occ. eigenvalues --  -10.29606 -10.29504 -10.29385 -10.29373 -10.29329
 Alpha  occ. eigenvalues --  -10.29163 -10.29150 -10.29084 -10.26216  -9.58972
 Alpha  occ. eigenvalues --   -7.33607  -7.32768  -7.32714  -1.12005  -1.03273
 Alpha  occ. eigenvalues --   -0.99070  -0.96757  -0.96257  -0.88168  -0.86891
 Alpha  occ. eigenvalues --   -0.85861  -0.85301  -0.83736  -0.78360  -0.75309
 Alpha  occ. eigenvalues --   -0.71902  -0.70915  -0.70436  -0.67399  -0.64261
 Alpha  occ. eigenvalues --   -0.62570  -0.61979  -0.59449  -0.57054  -0.56508
 Alpha  occ. eigenvalues --   -0.56419  -0.55086  -0.54442  -0.53788  -0.52867
 Alpha  occ. eigenvalues --   -0.52002  -0.51624  -0.51177  -0.50537  -0.48788
 Alpha  occ. eigenvalues --   -0.48226  -0.47636  -0.47098  -0.45394  -0.44790
 Alpha  occ. eigenvalues --   -0.44229  -0.43936  -0.43125  -0.42631  -0.40660
 Alpha  occ. eigenvalues --   -0.38565  -0.34763  -0.34070  -0.33978  -0.33574
 Alpha  occ. eigenvalues --   -0.32733  -0.28914
 Alpha virt. eigenvalues --   -0.00469   0.03367   0.04944   0.05133   0.07088
 Alpha virt. eigenvalues --    0.10280   0.11271   0.13140   0.13384   0.14117
 Alpha virt. eigenvalues --    0.14649   0.15707   0.16354   0.16823   0.17141

 Mulliken charges:
               1
     1  C   -0.579966
     2  C    0.321394
     3  O   -0.536880
     4  C    0.400289
     5  C   -0.282446
     6  H    0.150889
     7  H    0.150382
     8  H    0.142401
     9  N   -0.352898
    10  H    0.271810
    11  H    0.275054
    12  Cl  -0.101541
    13  C    0.137552
    14  C   -0.284799
    15  C   -0.153257
    16  C   -0.135844
    17  C   -0.144047
    18  C   -0.192341
    19  H    0.167203
    20  H    0.146705
    21  H    0.147724
    22  H    0.145405
    23  H    0.160040
    24  H    0.166668
    25  C    0.144889
    26  C   -0.245595
    27  C   -0.125085
    28  C   -0.135225
    29  C   -0.144167
    30  C   -0.244306
    31  H    0.139875
    32  H    0.143365
    33  H    0.146303
    34  H    0.143536
    35  H    0.156913
 Sum of Mulliken charges =   0.00000

 Dipole moment (field-independent basis, Debye):
    X=              2.3658    Y=              2.7059    Z=              1.0908  Tot=              3.7562
 Quadrupole moment (field-independent basis, Debye-Ang):
   XX=            -97.2894   YY=           -109.6992   ZZ=           -117.2035
   XY=              1.3889   XZ=             10.0728   YZ=              9.4188

  Exact polarizability: 378.832  21.964 272.893  11.732  -2.701 259.480
 Approx polarizability: 279.443  16.109 224.341  11.416  -4.927 228.156

 ******    1 imaginary frequencies (negative Signs) ******

                      1                      2                      3
                      A                      A                      A
 Frequencies --   -387.6704                31.5162                38.3242
 Red. masses --      5.1265                 5.2697                 3.9221
 Frc consts  --      0.4539                 0.0031                 0.0034
 IR Inten    --    708.0780                 0.8698                 0.9909

                      4                      5                      6
                      A                      A                      A
 Frequencies --     51.8086                79.7877                95.5292
 Red. masses --      3.9607                 4.3118                 3.1387
 Frc consts  --      0.0063                 0.0162                 0.0169
 IR Inten    --      2.0386                 2.7661                 0.7981

                      7                      8                      9
                      A                      A                      A
 Frequencies --    107.1068               126.8130               155.3918
 Red. masses --      5.1343                 4.7487                 2.1168
 Frc consts  --      0.0347                 0.0450                 0.0301
 IR Inten    --      4.1299                 5.4650                28.8209

                     10                     11                     12
                      A                      A                      A
 Frequencies --    175.9885               181.7883               211.2567
 Red. masses --      3.9681                 2.9032                 2.5893
 Frc consts  --      0.0724                 0.0565                 0.0681
 IR Inten    --      1.7457                 5.3318                 9.2195

                     13                     14                     15
                      A                      A                      A
 Frequencies --    222.7916               254.4825               286.9726
 Red. masses --      3.6608                 4.5623                 3.8454
 Frc consts  --      0.1071                 0.1741                 0.1866
 IR Inten    --      0.7024                 0.0280                 3.2331

                     16                     17                     18
                      A                      A                      A
 Frequencies --    306.7511               331.0522               352.1436
 Red. masses --      5.0599                 5.6482                 7.4774
 Frc consts  --      0.2805                 0.3647                 0.5463
 IR Inten    --     36.3763                 7.5645                 5.5190

                     19                     20                     21
                      A                      A                      A
 Frequencies --    419.5825               422.0011               428.4098
 Red. masses --      4.9091                 2.9560                 3.0692
 Frc consts  --      0.5092                 0.3102                 0.3319
 IR Inten    --      1.4867                 0.5353                 0.7180

                     22                     23                     24
                      A                      A                      A
 Frequencies --    487.8451               493.4498               560.2009
 Red. masses --      4.0344                 4.3912                 3.9416
 Frc consts  --      0.5657                 0.6300                 0.7288
 IR Inten    --     36.6490                10.6141               100.4424

                     25                     26                     27
                      A                      A                      A
 Frequencies --    578.1786               636.1366               636.8078
 Red. masses --      2.5095                 6.2310                 6.4007
 Frc consts  --      0.4943                 1.4856                 1.5293
 IR Inten    --     13.2271                 0.0963                 2.3097

                     28                     29                     30
                      A                      A                      A
 Frequencies --    654.8747               663.1499               706.6014
 Red. masses --      2.2680                 5.4322                 1.4214
 Frc consts  --      0.5731                 1.4075                 0.4181
 IR Inten    --     35.1678               120.9596                57.1656

                     31                     32                     33
                      A                      A                      A
 Frequencies --    722.3149               729.2559               744.8871
 Red. masses --      1.6741                 1.6601                 2.5157
 Frc consts  --      0.5146                 0.5202                 0.8224
 IR Inten    --     51.9272               108.9578               120.5975

                     34                     35                     36
                      A                      A                      A
 Frequencies --    760.0854               798.8030               833.6291
 Red. masses --      3.2387                 2.1104                 3.1206
 Frc consts  --      1.1024                 0.7934                 1.2777
 IR Inten    --    146.1570                27.8973                29.5530

                     37                     38                     39
                      A                      A                      A
 Frequencies --    840.0053               881.4392               882.0437
 Red. masses --      5.9806                 1.2489                 1.2414
 Frc consts  --      2.4863                 0.5717                 0.5691
 IR Inten    --     84.6208                 0.5276                 1.6305

                     40                     41                     42
                      A                      A                      A
 Frequencies --    950.0091               972.7428               976.2547
 Red. masses --      2.6246                 1.4637                 1.6360
 Frc consts  --      1.3956                 0.8160                 0.9187
 IR Inten    --     72.4766                 6.6633                29.9662

                     43                     44                     45
                      A                      A                      A
 Frequencies --    988.7608              1017.9975              1022.9255
 Red. masses --      1.2025                 1.3815                 1.3849
 Frc consts  --      0.6927                 0.8435                 0.8538
 IR Inten    --     82.7317                 1.2950                 2.8423

                     46                     47                     48
                      A                      A                      A
 Frequencies --   1026.1218              1027.7365              1034.0520
 Red. masses --      6.0318                 4.8568                 1.3187
 Frc consts  --      3.7419                 3.0225                 0.8308
 IR Inten    --      2.1377                 4.0554                 0.8304

                     49                     50                     51
                      A                      A                      A
 Frequencies --   1036.5179              1052.8518              1057.5672
 Red. masses --      1.3317                 1.2535                 2.3833
 Frc consts  --      0.8430                 0.8187                 1.5705
 IR Inten    --      4.2062                71.0887                12.3911

                     52                     53                     54
                      A                      A                      A
 Frequencies --   1065.7373              1094.6709              1102.7087
 Red. masses --      2.0400                 4.3371                 2.0653
 Frc consts  --      1.3652                 3.0621                 1.4796
 IR Inten    --     29.7805                54.9811                17.8636

                     55                     56                     57
                      A                      A                      A
 Frequencies --   1115.0859              1126.4777              1172.0383
 Red. masses --      1.8608                 1.6857                 2.2819
 Frc consts  --      1.3632                 1.2603                 1.8469
 IR Inten    --     11.4270                 8.4120               167.5439

                     58                     59                     60
                      A                      A                      A
 Frequencies --   1184.5257              1185.5125              1194.2172
 Red. masses --      1.1383                 1.1356                 1.4004
 Frc consts  --      0.9410                 0.9404                 1.1767
 IR Inten    --      1.4081                 1.3617                23.1198

                     61                     62                     63
                      A                      A                      A
 Frequencies --   1203.6142              1215.6475              1265.2684
 Red. masses --      1.1393                 1.1311                 2.6471
 Frc consts  --      0.9724                 0.9848                 2.4968
 IR Inten    --     33.6348                13.4683               181.2499

                     64                     65                     66
                      A                      A                      A
 Frequencies --   1327.0345              1330.2836              1346.1481
 Red. masses --      4.3786                 3.3059                 1.3686
 Frc consts  --      4.5430                 3.4469                 1.4612
 IR Inten    --      3.4672                18.6170                14.8191

                     67                     68                     69
                      A                      A                      A
 Frequencies --   1352.8048              1362.5329              1367.7937
 Red. masses --      1.7352                 1.5299                 2.5628
 Frc consts  --      1.8710                 1.6734                 2.8249
 IR Inten    --      3.3202                19.7134               122.1786

                     70                     71                     72
                      A                      A                      A
 Frequencies --   1453.4667              1464.1634              1488.8433
 Red. masses --      1.7282                 1.6800                 1.0416
 Frc consts  --      2.1510                 2.1219                 1.3604
 IR Inten    --    776.6226               502.5704                14.9093

                     73                     74                     75
                      A                      A                      A
 Frequencies --   1491.5472              1497.2323              1505.3236
 Red. masses --      2.2760                 2.4037                 1.0335
 Frc consts  --      2.9833                 3.1747                 1.3798
 IR Inten    --     10.8798               370.7012                 2.5955

                     76                     77                     78
                      A                      A                      A
 Frequencies --   1540.4725              1542.9872              1612.1860
 Red. masses --      2.3333                 2.3045                 3.9354
 Frc consts  --      3.2623                 3.2326                 6.0266
 IR Inten    --     20.4868                16.1652               439.8472

                     79                     80                     81
                      A                      A                      A
 Frequencies --   1644.2148              1653.5355              1662.2654
 Red. masses --      1.3898                 5.8285                 4.6829
 Frc consts  --      2.2138                 9.3894                 7.6236
 IR Inten    --     21.6184                 5.7572                51.6131

                     82                     83                     84
                      A                      A                      A
 Frequencies --   1673.4608              1673.6972              3047.5990
 Red. masses --      5.9016                 5.8713                 1.0365
 Frc consts  --      9.7375                 9.6904                 5.6722
 IR Inten    --     11.8901                 2.6257                42.6307

                     85                     86                     87
                      A                      A                      A
 Frequencies --   3115.4936              3161.1770              3195.1358
 Red. masses --      1.1013                 1.1035                 1.0859
 Frc consts  --      6.2979                 6.4971                 6.5314
 IR Inten    --     17.3294                16.3089                 0.8213

                     88                     89                     90
                      A                      A                      A
 Frequencies --   3198.6784              3202.6683              3205.2012
 Red. masses --      1.0862                 1.0885                 1.0891
 Frc consts  --      6.5477                 6.5781                 6.5921
 IR Inten    --      1.1883                 4.8095                 4.0573

                     91                     92                     93
                      A                      A                      A
 Frequencies --   3210.8857              3214.0137              3217.9790
 Red. masses --      1.0920                 1.0933                 1.0946
 Frc consts  --      6.6329                 6.6542                 6.6781
 IR Inten    --     17.2733                22.9792                25.9329

                     94                     95                     96
                      A                      A                      A
 Frequencies --   3223.9826              3224.2856              3236.9290
 Red. masses --      1.0983                 1.0975                 1.0937
 Frc consts  --      6.7258                 6.7225                 6.7515
 IR Inten    --     23.4274                17.0543                 7.4858

                     97                     98                     99
                      A                      A                      A
 Frequencies --   3243.1997              3477.5292              3615.9631
 Red. masses --      1.0896                 1.0584                 1.0891
 Frc consts  --      6.7523                 7.5411                 8.3902
 IR Inten    --      0.5873                46.9245                92.2731

 - Thermochemistry -
 -------------------
 Temperature   298.150 Kelvin.  Pressure   1.00000 Atm.
 Atom     1 has atomic number  6 and mass  12.00000

 Molecular mass:   273.09204 amu.
 Principal axes and moments of inertia in atomic units:
                           1         2         3
     Eigenvalues --  3143.068138858.251149986.75218
           X            0.99994  -0.00646   0.00926
           Y            0.00585   0.99785   0.06526
           Z           -0.00966  -0.06520   0.99783
 This molecule is an asymmetric top.
 Rotational symmetry number  1.
 Warning -- assumption of classical behavior for rotation
           may cause significant error
 Rotational temperatures (Kelvin)      0.02756     0.00978     0.00867
 Rotational constants (GHZ):           0.57420     0.20374     0.18071
    1 imaginary frequencies ignored.
 Zero-point vibrational energy     746224.3 (Joules/Mol)
                                  178.35189 (Kcal/Mol)
 Warning -- explicit consideration of  24 degrees of freedom as
           vibrations may cause significant error
 Vibrational temperatures:     45.34    55.14    74.54   114.80   137.45
          (Kelvin)            154.10   182.46   223.57   253.21   261.55
                              303.95   320.55   366.14   412.89   441.35
                              476.31   506.66   603.69   607.17   616.39
                              701.90   709.96   806.00   831.87   915.26
                              916.22   942.22   954.12  1016.64  1039.25
                             1049.24  1071.73  1093.59  1149.30  1199.41
                             1208.58  1268.19  1269.06  1366.85  1399.56
                             1404.61  1422.61  1464.67  1471.76  1476.36
                             1478.68  1487.77  1491.32  1514.82  1521.60
                             1533.36  1574.99  1586.55  1604.36  1620.75
                             1686.30  1704.27  1705.69  1718.21  1731.73
                             1749.05  1820.44  1909.31  1913.98  1936.81
                             1946.38  1960.38  1967.95  2091.21  2106.60
                             2142.11  2146.00  2154.18  2165.82  2216.40
                             2220.01  2319.58  2365.66  2379.07  2391.63
                             2407.74  2408.08  4384.82  4482.50  4548.23
                             4597.09  4602.18  4607.93  4611.57  4619.75
                             4624.25  4629.95  4638.59  4639.03  4657.22
                             4666.24  5003.39  5202.56

 Zero-point correction=                           0.284222 (Hartree/Particle)
 Thermal correction to Energy=                    0.301335
 Thermal correction to Enthalpy=                  0.302280
 Thermal correction to Gibbs Free Energy=         0.238048
 Sum of electronic and zero-point Energies=          -1209.222187
 Sum of electronic and thermal Energies=             -1209.205073
 Sum of electronic and thermal Enthalpies=           -1209.204129
 Sum of electronic and thermal Free Energies=        -1209.268361

                     E (Thermal)             CV                S
                      KCal/Mol        Cal/Mol-Kelvin    Cal/Mol-Kelvin
 Total                  189.091             65.524            135.187
 Electronic               0.000              0.000              0.000
 Translational            0.889              2.981             42.713
 Rotational               0.889              2.981             33.985
 Vibrational            187.313             59.563             58.489
 Vibration     1          0.594              1.983              5.732
 Vibration     2          0.594              1.982              5.344
 Vibration     3          0.596              1.977              4.747
 Vibration     4          0.600              1.963              3.896
 Vibration     5          0.603              1.952              3.544
 Vibration     6          0.606              1.944              3.321
 Vibration     7          0.611              1.926              2.994
 Vibration     8          0.620              1.897              2.605
 Vibration     9          0.628              1.872              2.371
 Vibration    10          0.630              1.865              2.310
 Vibration    11          0.643              1.824              2.033
 Vibration    12          0.648              1.806              1.936
 Vibration    13          0.665              1.755              1.699
 Vibration    14          0.684              1.698              1.492
 Vibration    15          0.697              1.661              1.380
 Vibration    16          0.713              1.613              1.255
 Vibration    17          0.729              1.571              1.157
 Vibration    18          0.782              1.428              0.893
 Vibration    19          0.784              1.422              0.885
 Vibration    20          0.790              1.408              0.864
 Vibration    21          0.844              1.277              0.689
 Vibration    22          0.849              1.265              0.675
 Vibration    23          0.916              1.117              0.523
 Vibration    24          0.935              1.078              0.489

 Optimization completed.
    -- Stationary point found.
 Normal termination of Gaussian 16 at Sat Feb 27 07:25:50 2021.
