 Gaussian 16, Revision A.03,
 Gaussian 16:  ES64L-G16RevA.03 25-Dec-2016

 ----------------------------------------------------------------------
 # wB97XD def2tzvp, opt=(ts, noeigen, calcfc, maxcycles=70, maxstep=3),
  freq=noraman, scrf=(iefpcm, solvent=water)
 ----------------------------------------------------------------------

 ------------------------
 0_iteration/TS-899-0.out
 ------------------------
 Symbolic Z-matrix:
 Charge =  0 Multiplicity = 1

 SCF Done:  E(RwB97XD) =  -881.402188092     A.U. after   15 cycles
 SCF Done:  E(RwB97XD) =  -881.402150779     A.U. after   12 cycles
 SCF Done:  E(RwB97XD) =  -881.402186228     A.U. after   11 cycles
 SCF Done:  E(RwB97XD) =  -881.402300890     A.U. after   11 cycles
 SCF Done:  E(RwB97XD) =  -881.402590807     A.U. after   11 cycles
 SCF Done:  E(RwB97XD) =  -881.402975785     A.U. after   11 cycles
 SCF Done:  E(RwB97XD) =  -881.403490812     A.U. after   11 cycles
 SCF Done:  E(RwB97XD) =  -881.404063979     A.U. after   12 cycles
 SCF Done:  E(RwB97XD) =  -881.404686696     A.U. after   12 cycles
 SCF Done:  E(RwB97XD) =  -881.405359636     A.U. after   12 cycles
 SCF Done:  E(RwB97XD) =  -881.409438368     A.U. after   10 cycles
 SCF Done:  E(RwB97XD) =  -881.409430178     A.U. after   11 cycles
 SCF Done:  E(RwB97XD) =  -881.409444912     A.U. after   11 cycles
 SCF Done:  E(RwB97XD) =  -881.409445183     A.U. after   10 cycles
 SCF Done:  E(RwB97XD) =  -881.409445561     A.U. after    9 cycles
 SCF Done:  E(RwB97XD) =  -881.409442428     A.U. after   10 cycles
 SCF Done:  E(RwB97XD) =  -881.409445399     A.U. after   10 cycles
 SCF Done:  E(RwB97XD) =  -881.409445778     A.U. after    8 cycles
 SCF Done:  E(RwB97XD) =  -881.409445708     A.U. after    8 cycles
 Optimization completed.
    -- Stationary point found.
 Normal termination of Gaussian 16 at Mon Apr 12 21:10:31 2021.

 ---------------------------------------------------------------------
 #N Geom=AllCheck Guess=TCheck SCRF=Check GenChk RwB97XD/def2TZVP Freq
 ---------------------------------------------------------------------

 Structure from the checkpoint file:  "/beegfs/scratch/user/q/tla25/Gau-103366.chk"
 ------------------------
 0_iteration/TS-899-0.out
 ------------------------
 Charge =  0 Multiplicity = 1

                         Standard orientation:
 ---------------------------------------------------------------------
 Center     Atomic      Atomic             Coordinates (Angstroms)
 Number     Number       Type             X           Y           Z
 ---------------------------------------------------------------------
      1          6           0        0.584336   -0.448189    0.261919
      2          6           0        1.936994   -0.123945   -0.114582
      3          8           0        2.901727   -0.729308    0.382672
      4          6           0       -0.576396   -0.020328   -0.382348
      5          6           0       -0.792693    2.137457    1.303909
      6          1           0       -1.236151    2.523887    2.219547
      7          1           0        0.208081    1.755239    1.516149
      8          1           0       -0.726976    2.937566    0.570768
      9          7           0       -1.580865    1.035405    0.761626
     10          1           0       -1.877159    0.402095    1.495217
     11          1           0       -2.415749    1.352870    0.280868
     12         17           0       -1.874170   -1.335518   -0.537859
     13          6           0       -0.623833    0.812876   -1.637703
     14          1           0       -0.271567    1.828023   -1.456631
     15          1           0       -0.008992    0.359713   -2.412891
     16          1           0       -1.645523    0.886274   -2.002292
     17          6           0        0.465933   -1.407058    1.423202
     18          1           0       -0.493337   -1.313452    1.935718
     19          1           0        0.558028   -2.455328    1.119072
     20          1           0        1.251115   -1.215271    2.153702
     21          7           0        2.226290    0.833133   -1.073563
     22          1           0        1.616602    1.621993   -1.184530
     23          1           0        3.204675    1.070015   -1.095295
 ---------------------------------------------------------------------

 SCF Done:  E(RwB97XD) =  -881.409445708     A.U. after    1 cycles

 The electronic state is 1-A.
 Alpha  occ. eigenvalues -- -101.68427 -19.18951 -14.50097 -14.42856 -10.40183
 Alpha  occ. eigenvalues --  -10.36939 -10.32126 -10.29377 -10.26498 -10.25573
 Alpha  occ. eigenvalues --   -9.57043  -7.31621  -7.30859  -7.30820  -1.11465
 Alpha  occ. eigenvalues --   -1.05782  -0.98225  -0.95856  -0.87096  -0.84077
 Alpha  occ. eigenvalues --   -0.79705  -0.75159  -0.70021  -0.64364  -0.63321
 Alpha  occ. eigenvalues --   -0.59487  -0.58133  -0.57485  -0.55825  -0.52493
 Alpha  occ. eigenvalues --   -0.50590  -0.50458  -0.49659  -0.48502  -0.46636
 Alpha  occ. eigenvalues --   -0.46602  -0.44387  -0.44199  -0.43949  -0.39247
 Alpha  occ. eigenvalues --   -0.38672  -0.34837  -0.32764  -0.26433
 Alpha virt. eigenvalues --    0.06783   0.07535   0.09611   0.12125   0.13637
 Alpha virt. eigenvalues --    0.15164   0.15583   0.16201   0.16662   0.18558
 Alpha virt. eigenvalues --    0.19442   0.20014   0.20328   0.22088   0.22218

 Mulliken charges:
               1
     1  C   -0.224453
     2  C    0.294698
     3  O   -0.549718
     4  C    0.109672
     5  C   -0.311808
     6  H    0.165562
     7  H    0.160256
     8  H    0.164222
     9  N   -0.262133
    10  H    0.284964
    11  H    0.296193
    12  Cl  -0.184435
    13  C   -0.419706
    14  H    0.141604
    15  H    0.171915
    16  H    0.159504
    17  C   -0.377050
    18  H    0.106202
    19  H    0.116673
    20  H    0.122475
    21  N   -0.461439
    22  H    0.246824
    23  H    0.249977
 Sum of Mulliken charges =  -0.00000

 Dipole moment (field-independent basis, Debye):
    X=             -8.0989    Y=              9.0029    Z=              0.6187  Tot=             12.1255
 Quadrupole moment (field-independent basis, Debye-Ang):
   XX=            -79.6838   YY=            -63.7387   ZZ=            -65.2854
   XY=              1.7801   XZ=             -8.5015   YZ=              0.3357

  Exact polarizability: 186.093  -3.663 143.458   3.091  -4.171 128.593
 Approx polarizability: 145.506  -3.201 119.002   3.403  -3.285 108.426

 ******    1 imaginary frequencies (negative Signs) ******

                      1                      2                      3
                      A                      A                      A
 Frequencies --   -381.7073                68.0671                80.6801
 Red. masses --      5.5463                 3.6968                 2.1041
 Frc consts  --      0.4761                 0.0101                 0.0081
 IR Inten    --    712.3758                 7.3706                 2.0700

                      4                      5                      6
                      A                      A                      A
 Frequencies --     89.6115               133.1260               157.0745
 Red. masses --      3.2618                 1.2732                 1.4330
 Frc consts  --      0.0154                 0.0133                 0.0208
 IR Inten    --      5.2282                 4.9270                 2.0760

                      7                      8                      9
                      A                      A                      A
 Frequencies --    196.2795               214.2775               233.2577
 Red. masses --      2.5500                 3.0208                 3.4039
 Frc consts  --      0.0579                 0.0817                 0.1091
 IR Inten    --      2.8793                27.1098                 6.5276

                     10                     11                     12
                      A                      A                      A
 Frequencies --    291.2555               298.2949               329.6833
 Red. masses --      2.0647                 1.9701                 2.7051
 Frc consts  --      0.1032                 0.1033                 0.1732
 IR Inten    --     15.3876                 3.4175                26.4937

                     13                     14                     15
                      A                      A                      A
 Frequencies --    336.2907               374.3833               383.5922
 Red. masses --      4.7913                 2.1964                 2.6980
 Frc consts  --      0.3193                 0.1814                 0.2339
 IR Inten    --     46.6737                21.5866                18.8505

                     16                     17                     18
                      A                      A                      A
 Frequencies --    425.7830               457.0166               512.0235
 Red. masses --      1.2775                 2.4278                 1.6376
 Frc consts  --      0.1365                 0.2988                 0.2529
 IR Inten    --     82.3747               172.0154               179.4896

                     19                     20                     21
                      A                      A                      A
 Frequencies --    544.4566               567.5144               640.4415
 Red. masses --      2.3130                 3.3323                 3.6930
 Frc consts  --      0.4040                 0.6323                 0.8925
 IR Inten    --     88.1410                30.4017               199.4336

                     22                     23                     24
                      A                      A                      A
 Frequencies --    714.9921               764.8555               788.0888
 Red. masses --      1.5503                 3.0453                 5.6194
 Frc consts  --      0.4669                 1.0496                 2.0563
 IR Inten    --     14.2649               161.7624                75.6682

                     25                     26                     27
                      A                      A                      A
 Frequencies --    962.2412              1014.9143              1048.0200
 Red. masses --      1.5758                 1.0975                 1.3164
 Frc consts  --      0.8597                 0.6661                 0.8519
 IR Inten    --    136.8168                22.9644                 4.2922

                     28                     29                     30
                      A                      A                      A
 Frequencies --   1057.0437              1062.6733              1081.1435
 Red. masses --      1.7204                 1.4337                 2.4913
 Frc consts  --      1.1326                 0.9539                 1.7157
 IR Inten    --     81.7183                76.3333                 3.6416

                     31                     32                     33
                      A                      A                      A
 Frequencies --   1087.4412              1095.5228              1143.2914
 Red. masses --      1.8106                 1.8912                 2.5237
 Frc consts  --      1.2615                 1.3373                 1.9436
 IR Inten    --     99.0071               111.0142                57.1868

                     34                     35                     36
                      A                      A                      A
 Frequencies --   1203.7215              1236.2652              1338.4896
 Red. masses --      2.6968                 1.3735                 1.3142
 Frc consts  --      2.3022                 1.2368                 1.3872
 IR Inten    --     39.1174                43.6969                 2.3404

                     37                     38                     39
                      A                      A                      A
 Frequencies --   1404.2307              1416.9656              1421.3405
 Red. masses --      3.2435                 1.4426                 1.2289
 Frc consts  --      3.7682                 1.7065                 1.4627
 IR Inten    --    757.7777                51.0068                 4.5034

                     40                     41                     42
                      A                      A                      A
 Frequencies --   1444.9545              1463.2116              1471.1666
 Red. masses --      1.3438                 1.4651                 1.1153
 Frc consts  --      1.6530                 1.8482                 1.4222
 IR Inten    --     89.9983               235.5439                22.0636

                     43                     44                     45
                      A                      A                      A
 Frequencies --   1486.6717              1498.4282              1501.3283
 Red. masses --      1.1504                 1.0383                 1.0559
 Frc consts  --      1.4980                 1.3736                 1.4022
 IR Inten    --     26.7311                21.7225                23.9903

                     46                     47                     48
                      A                      A                      A
 Frequencies --   1506.8701              1515.5019              1606.5462
 Red. masses --      1.0818                 1.4468                 2.7277
 Frc consts  --      1.4473                 1.9578                 4.1479
 IR Inten    --     91.7270               238.2342               716.0579

                     49                     50                     51
                      A                      A                      A
 Frequencies --   1643.6551              1645.5350              3025.6806
 Red. masses --      1.6173                 1.0904                 1.0487
 Frc consts  --      2.5743                 1.7396                 5.6567
 IR Inten    --    425.4412                73.2780                87.7379

                     52                     53                     54
                      A                      A                      A
 Frequencies --   3062.2851              3081.4545              3089.6245
 Red. masses --      1.0375                 1.0370                 1.0886
 Frc consts  --      5.7320                 5.8013                 6.1223
 IR Inten    --     31.0675                12.3917                54.9206

                     55                     56                     57
                      A                      A                      A
 Frequencies --   3133.9149              3146.7244              3156.8818
 Red. masses --      1.0994                 1.0990                 1.1010
 Frc consts  --      6.3618                 6.4116                 6.4648
 IR Inten    --     32.9726                 3.4668                17.8918

                     58                     59                     60
                      A                      A                      A
 Frequencies --   3173.9796              3176.2159              3526.5235
 Red. masses --      1.1040                 1.1066                 1.0513
 Frc consts  --      6.5528                 6.5776                 7.7031
 IR Inten    --      6.2149                11.6281                57.1204

                     61                     62                     63
                      A                      A                      A
 Frequencies --   3605.5919              3613.5814              3729.7460
 Red. masses --      1.0960                 1.0491                 1.0978
 Frc consts  --      8.3948                 8.0710                 8.9974
 IR Inten    --     56.7695                30.3980                43.3545

 - Thermochemistry -
 -------------------
 Temperature   298.150 Kelvin.  Pressure   1.00000 Atm.
 Atom     1 has atomic number  6 and mass  12.00000

 Molecular mass:   164.07164 amu.
 Principal axes and moments of inertia in atomic units:
                           1         2         3
     Eigenvalues --  1327.310072177.780982433.67447
           X            0.99895  -0.04173  -0.01886
           Y            0.04014   0.99613  -0.07821
           Z            0.02205   0.07737   0.99676
 This molecule is an asymmetric top.
 Rotational symmetry number  1.
 Warning -- assumption of classical behavior for rotation
           may cause significant error
 Rotational temperatures (Kelvin)      0.06526     0.03977     0.03559
 Rotational constants (GHZ):           1.35970     0.82871     0.74157
    1 imaginary frequencies ignored.
 Zero-point vibrational energy     511286.5 (Joules/Mol)
                                  122.20040 (Kcal/Mol)
 Warning -- explicit consideration of  19 degrees of freedom as
           vibrations may cause significant error
 Vibrational temperatures:     97.93   116.08   128.93   191.54   226.00
          (Kelvin)            282.40   308.30   335.61   419.05   429.18
                              474.34   483.85   538.65   551.90   612.61
                              657.55   736.69   783.35   816.53   921.45
                             1028.71  1100.46  1133.88  1384.45  1460.24
                             1507.87  1520.85  1528.95  1555.52  1564.59
                             1576.21  1644.94  1731.89  1778.71  1925.79
                             2020.37  2038.70  2044.99  2078.97  2105.24
                             2116.68  2138.99  2155.90  2160.08  2168.05
                             2180.47  2311.46  2364.85  2367.56  4353.28
                             4405.95  4433.53  4445.28  4509.00  4527.43
                             4542.05  4566.65  4569.87  5073.88  5187.64
                             5199.14  5366.27

 Zero-point correction=                           0.194739 (Hartree/Particle)
 Thermal correction to Energy=                    0.207016
 Thermal correction to Enthalpy=                  0.207960
 Thermal correction to Gibbs Free Energy=         0.156802
 Sum of electronic and zero-point Energies=           -881.214707
 Sum of electronic and thermal Energies=              -881.202430
 Sum of electronic and thermal Enthalpies=            -881.201485
 Sum of electronic and thermal Free Energies=         -881.252644

                     E (Thermal)             CV                S
                      KCal/Mol        Cal/Mol-Kelvin    Cal/Mol-Kelvin
 Total                  129.905             44.549            107.672
 Electronic               0.000              0.000              0.000
 Translational            0.889              2.981             41.194
 Rotational               0.889              2.981             30.332
 Vibrational            128.127             38.587             36.146
 Vibration     1          0.598              1.969              4.208
 Vibration     2          0.600              1.962              3.874
 Vibration     3          0.602              1.957              3.669
 Vibration     4          0.613              1.920              2.900
 Vibration     5          0.621              1.895              2.585
 Vibration     6          0.636              1.845              2.168
 Vibration     7          0.644              1.819              2.007
 Vibration     8          0.654              1.790              1.854
 Vibration     9          0.687              1.690              1.467
 Vibration    10          0.691              1.677              1.426
 Vibration    11          0.712              1.616              1.262
 Vibration    12          0.717              1.603              1.230
 Vibration    13          0.746              1.525              1.062
 Vibration    14          0.753              1.505              1.025
 Vibration    15          0.788              1.414              0.873
 Vibration    16          0.815              1.345              0.775
 Vibration    17          0.867              1.223              0.629
 Vibration    18          0.900              1.152              0.556
 Vibration    19          0.923              1.102              0.509

 Optimization completed.
    -- Stationary point found.
 Normal termination of Gaussian 16 at Mon Apr 12 21:17:55 2021.
