 Gaussian 16, Revision A.03,
 Gaussian 16:  ES64L-G16RevA.03 25-Dec-2016

 ----------------------------------------------------------------------
 # wB97XD def2tzvp, opt=(ts, noeigen, calcfc, maxcycles=70, maxstep=3),
  freq=noraman, scrf=(iefpcm, solvent=water)
 ----------------------------------------------------------------------

 ------------------------
 3_iteration/TS-815-3.out
 ------------------------
 Symbolic Z-matrix:
 Charge =  0 Multiplicity = 1

 SCF Done:  E(RwB97XD) =  -1264.87553761     A.U. after   14 cycles
 Optimization completed.
    -- Stationary point found.
 Normal termination of Gaussian 16 at Sat Feb 27 05:27:13 2021.

 ---------------------------------------------------------------------
 #N Geom=AllCheck Guess=TCheck SCRF=Check GenChk RwB97XD/def2TZVP Freq
 ---------------------------------------------------------------------

 Structure from the checkpoint file:  "/beegfs/scratch/user/q/tla25/Gau-43095.chk"
 ------------------------
 3_iteration/TS-815-3.out
 ------------------------
 Charge =  0 Multiplicity = 1

                         Standard orientation:
 ---------------------------------------------------------------------
 Center     Atomic      Atomic             Coordinates (Angstroms)
 Number     Number       Type             X           Y           Z
 ---------------------------------------------------------------------
      1          6           0       -1.183210   -1.675090   -0.576051
      2          6           0        0.250500   -1.752660   -0.509931
      3          8           0        0.866360   -2.698850   -1.015451
      4          6           0       -2.038850   -0.646010   -0.169471
      5          6           0       -1.650800   -1.328880    2.478819
      6          1           0       -2.082710   -1.811330    3.353399
      7          1           0       -0.948910   -2.010070    1.999099
      8          1           0       -1.127820   -0.425860    2.783199
      9          7           0       -2.692870   -1.002690    1.504399
     10          1           0       -3.251160   -1.827330    1.308459
     11          1           0       -3.334180   -0.290040    1.840389
     12         17           0       -3.663450   -0.729190   -0.996361
     13          6           0       -1.579601    0.791220   -0.151151
     14          6           0       -1.011011    1.270140   -1.334801
     15          6           0       -0.536711    2.564900   -1.421341
     16          6           0       -0.622631    3.413950   -0.325261
     17          6           0       -1.197691    2.956110    0.846599
     18          6           0       -1.679931    1.655750    0.932619
     19          1           0       -0.931561    0.604910   -2.184291
     20          1           0       -0.093261    2.911260   -2.345741
     21          1           0       -0.244141    4.425840   -0.387751
     22          1           0       -1.274631    3.607010    1.707499
     23          1           0       -2.116661    1.346610    1.869979
     24          1           0       -1.644010   -2.579810   -0.946751
     25          7           0        0.937650   -0.748740    0.158179
     26          6           0        2.298520   -0.439740    0.117899
     27          6           0        3.301940   -1.356140   -0.200091
     28          6           0        4.630330   -0.953229   -0.192481
     29          6           0        4.987820    0.345321    0.136569
     30          6           0        3.989869    1.254990    0.461519
     31          6           0        2.661549    0.870470    0.448709
     32          1           0        0.372770    0.001950    0.514939
     33          1           0        3.032770   -2.369090   -0.450931
     34          1           0        5.397020   -1.676249   -0.443591
     35          1           0        6.027599    0.645431    0.142099
     36          1           0        4.244829    2.275131    0.720619
     37          1           0        1.887829    1.592070    0.690119
 ---------------------------------------------------------------------

 SCF Done:  E(RwB97XD) =  -1264.87553761     A.U. after    1 cycles

 The electronic state is 1-A.
 Alpha  occ. eigenvalues -- -101.69717 -19.19709 -14.51040 -14.45578 -10.41446
 Alpha  occ. eigenvalues --  -10.38088 -10.33491 -10.32552 -10.32271 -10.30868
 Alpha  occ. eigenvalues --  -10.30227 -10.30124 -10.30050 -10.29967 -10.28920
 Alpha  occ. eigenvalues --  -10.28766 -10.28653 -10.28113 -10.28012 -10.25273
 Alpha  occ. eigenvalues --   -9.58314  -7.32936  -7.32102  -7.32074  -1.12594
 Alpha  occ. eigenvalues --   -1.06716  -1.03393  -0.99129  -0.96060  -0.95165
 Alpha  occ. eigenvalues --   -0.88358  -0.86533  -0.85506  -0.84930  -0.82696
 Alpha  occ. eigenvalues --   -0.80284  -0.74940  -0.72197  -0.71871  -0.71045
 Alpha  occ. eigenvalues --   -0.68026  -0.66207  -0.64851  -0.62595  -0.61296
 Alpha  occ. eigenvalues --   -0.59441  -0.58324  -0.57945  -0.57185  -0.55029
 Alpha  occ. eigenvalues --   -0.53971  -0.53525  -0.52986  -0.51993  -0.51957
 Alpha  occ. eigenvalues --   -0.51442  -0.50926  -0.49756  -0.48830  -0.48190
 Alpha  occ. eigenvalues --   -0.47366  -0.46687  -0.46014  -0.44551  -0.43875
 Alpha  occ. eigenvalues --   -0.43759  -0.42605  -0.40608  -0.39959  -0.39047
 Alpha  occ. eigenvalues --   -0.35125  -0.34390  -0.33830  -0.33195  -0.30212
 Alpha  occ. eigenvalues --   -0.27253
 Alpha virt. eigenvalues --    0.02001   0.04022   0.04870   0.05502   0.07706
 Alpha virt. eigenvalues --    0.08749   0.10591   0.12361   0.13500   0.13894
 Alpha virt. eigenvalues --    0.14230   0.15178   0.15711   0.16895   0.17202

 Mulliken charges:
               1
     1  C   -0.535733
     2  C    0.398847
     3  O   -0.546271
     4  C    0.293064
     5  C   -0.319563
     6  H    0.173712
     7  H    0.162029
     8  H    0.164857
     9  N   -0.259903
    10  H    0.288540
    11  H    0.294856
    12  Cl  -0.149898
    13  C    0.009888
    14  C   -0.265056
    15  C   -0.109253
    16  C   -0.141148
    17  C   -0.159451
    18  C   -0.152290
    19  H    0.157285
    20  H    0.149230
    21  H    0.149619
    22  H    0.149725
    23  H    0.143424
    24  H    0.119557
    25  N   -0.230944
    26  C    0.288620
    27  C   -0.322276
    28  C   -0.095458
    29  C   -0.194315
    30  C   -0.128652
    31  C   -0.295521
    32  H    0.235364
    33  H    0.147849
    34  H    0.139861
    35  H    0.138643
    36  H    0.139007
    37  H    0.161754
 Sum of Mulliken charges =  -0.00000

 Dipole moment (field-independent basis, Debye):
    X=             -6.5012    Y=              6.1593    Z=              8.3316  Tot=             12.2318
 Quadrupole moment (field-independent basis, Debye-Ang):
   XX=           -116.5964   YY=           -126.3648   ZZ=           -116.6208
   XY=             11.9135   XZ=            -16.7831   YZ=            -10.3671

  Exact polarizability: 359.873  15.790 319.521 -19.709  27.567 253.866
 Approx polarizability: 271.365   9.070 263.477 -16.575  23.927 221.906

 ******    1 imaginary frequencies (negative Signs) ******

                      1                      2                      3
                      A                      A                      A
 Frequencies --   -337.3274                17.9522                28.9121
 Red. masses --      5.4516                 5.3311                 3.7205
 Frc consts  --      0.3655                 0.0010                 0.0018
 IR Inten    --    792.9871                 0.5808                 0.4942

                      4                      5                      6
                      A                      A                      A
 Frequencies --     35.5616                52.1628                83.0628
 Red. masses --      4.1204                 5.5038                 6.5833
 Frc consts  --      0.0031                 0.0088                 0.0268
 IR Inten    --      0.3274                 5.7755                 5.6303

                      7                      8                      9
                      A                      A                      A
 Frequencies --     86.8493               122.5226               134.7262
 Red. masses --      5.3021                 5.3175                 3.8253
 Frc consts  --      0.0236                 0.0470                 0.0409
 IR Inten    --      0.5710                 0.9364                 4.2285

                     10                     11                     12
                      A                      A                      A
 Frequencies --    179.5367               195.1597               207.3841
 Red. masses --      2.5318                 6.3095                 1.7570
 Frc consts  --      0.0481                 0.1416                 0.0445
 IR Inten    --      9.9308                 7.5515                 8.7589

                     13                     14                     15
                      A                      A                      A
 Frequencies --    227.3952               256.2555               259.8814
 Red. masses --      3.5316                 3.9847                 2.5965
 Frc consts  --      0.1076                 0.1542                 0.1033
 IR Inten    --      7.0412                 1.3517                 7.3345

                     16                     17                     18
                      A                      A                      A
 Frequencies --    290.8741               328.1232               346.7870
 Red. masses --      4.5010                 3.2354                 5.1492
 Frc consts  --      0.2244                 0.2052                 0.3649
 IR Inten    --     13.4903                 7.6481                19.3696

                     19                     20                     21
                      A                      A                      A
 Frequencies --    359.0981               384.3099               423.1861
 Red. masses --      5.5509                 7.5463                 2.8746
 Frc consts  --      0.4217                 0.6567                 0.3033
 IR Inten    --     19.3259                14.2097                 0.9402

                     22                     23                     24
                      A                      A                      A
 Frequencies --    426.1930               485.1005               524.8067
 Red. masses --      2.9944                 5.9926                 3.7268
 Frc consts  --      0.3205                 0.8309                 0.6048
 IR Inten    --      0.1365                64.1263                22.0656

                     25                     26                     27
                      A                      A                      A
 Frequencies --    527.6566               569.6514               596.5914
 Red. masses --      2.7547                 2.7604                 3.1755
 Frc consts  --      0.4519                 0.5278                 0.6659
 IR Inten    --     22.4848                72.3467                41.7100

                     28                     29                     30
                      A                      A                      A
 Frequencies --    607.6628               635.9268               640.9995
 Red. masses --      1.6985                 6.0619                 5.8139
 Frc consts  --      0.3695                 1.4443                 1.4074
 IR Inten    --    198.7222                 3.3227                33.2791

                     31                     32                     33
                      A                      A                      A
 Frequencies --    658.3790               703.9283               721.0629
 Red. masses --      1.4775                 2.9513                 1.8528
 Frc consts  --      0.3773                 0.8616                 0.5676
 IR Inten    --     60.8578                47.8254                85.1276

                     34                     35                     36
                      A                      A                      A
 Frequencies --    722.8777               724.1984               758.9693
 Red. masses --      1.9179                 3.0132                 1.8621
 Frc consts  --      0.5905                 0.9311                 0.6320
 IR Inten    --     21.9433                11.4266               296.2905

                     37                     38                     39
                      A                      A                      A
 Frequencies --    782.0649               786.5684               821.9819
 Red. masses --      2.2067                 3.5867                 2.6428
 Frc consts  --      0.7952                 1.3074                 1.0521
 IR Inten    --     18.0377               169.8529                24.7402

                     40                     41                     42
                      A                      A                      A
 Frequencies --    855.1294               863.1077               874.4568
 Red. masses --      3.7652                 1.2719                 1.2507
 Frc consts  --      1.6222                 0.5582                 0.5635
 IR Inten    --    104.1491                 1.0652                 0.3036

                     43                     44                     45
                      A                      A                      A
 Frequencies --    900.9009               933.5971               966.0746
 Red. masses --      4.5417                 1.5065                 1.4848
 Frc consts  --      2.1718                 0.7736                 0.8165
 IR Inten    --     79.3644                15.1604                 2.4255

                     46                     47                     48
                      A                      A                      A
 Frequencies --    992.4015              1001.8864              1014.3688
 Red. masses --      3.0725                 1.3461                 1.3866
 Frc consts  --      1.7829                 0.7961                 0.8406
 IR Inten    --      7.1826                 0.0966                20.6112

                     49                     50                     51
                      A                      A                      A
 Frequencies --   1016.3543              1020.4918              1022.2987
 Red. masses --      1.2840                 3.4313                 1.7452
 Frc consts  --      0.7815                 2.1054                 1.0746
 IR Inten    --      1.3620                 4.9279                21.9645

                     52                     53                     54
                      A                      A                      A
 Frequencies --   1026.8666              1039.2290              1062.2001
 Red. masses --      3.7676                 1.3235                 2.1076
 Frc consts  --      2.3407                 0.8422                 1.4011
 IR Inten    --      4.6598                 0.4286                22.9082

                     55                     56                     57
                      A                      A                      A
 Frequencies --   1066.6574              1068.2109              1102.5142
 Red. masses --      2.2538                 3.1327                 1.3194
 Frc consts  --      1.5108                 2.1061                 0.9449
 IR Inten    --      7.5000                15.6909                93.4737

                     58                     59                     60
                      A                      A                      A
 Frequencies --   1118.3199              1127.7057              1162.8824
 Red. masses --      1.5190                 1.5929                 2.4165
 Frc consts  --      1.1193                 1.1935                 1.9253
 IR Inten    --     12.1927                15.1940               134.6276

                     61                     62                     63
                      A                      A                      A
 Frequencies --   1181.4114              1189.7389              1206.9997
 Red. masses --      1.1205                 1.1266                 1.1344
 Frc consts  --      0.9214                 0.9396                 0.9737
 IR Inten    --      4.3810                 2.8685                23.8110

                     64                     65                     66
                      A                      A                      A
 Frequencies --   1224.5334              1264.5482              1274.8254
 Red. masses --      1.1298                 1.3553                 2.4338
 Frc consts  --      0.9981                 1.2769                 2.3305
 IR Inten    --      3.0281                43.8481               737.1348

                     67                     68                     69
                      A                      A                      A
 Frequencies --   1291.1683              1315.9153              1334.4148
 Red. masses --      3.7835                 3.4685                 1.8587
 Frc consts  --      3.7163                 3.5387                 1.9501
 IR Inten    --     78.0788                31.2969                29.3961

                     70                     71                     72
                      A                      A                      A
 Frequencies --   1344.7741              1360.2515              1362.6271
 Red. masses --      2.5393                 1.6774                 1.9015
 Frc consts  --      2.7055                 1.8286                 2.0801
 IR Inten    --    431.8528                59.7616               199.9416

                     73                     74                     75
                      A                      A                      A
 Frequencies --   1367.1243              1433.5964              1466.0412
 Red. masses --      1.3991                 2.8369                 1.3481
 Frc consts  --      1.5407                 3.4351                 1.7071
 IR Inten    --     13.3309               535.7813                80.5938

                     76                     77                     78
                      A                      A                      A
 Frequencies --   1477.0976              1491.3735              1497.2521
 Red. masses --      2.1002                 2.1966                 1.0385
 Frc consts  --      2.6998                 2.8786                 1.3717
 IR Inten    --    183.5384                54.8380                26.2701

                     79                     80                     81
                      A                      A                      A
 Frequencies --   1510.3916              1543.6478              1545.7925
 Red. masses --      1.0433                 2.3577                 2.3972
 Frc consts  --      1.4023                 3.3100                 3.3749
 IR Inten    --     17.1737               245.7492                52.4545

                     82                     83                     84
                      A                      A                      A
 Frequencies --   1568.2819              1644.7744              1651.9463
 Red. masses --      2.1412                 1.5766                 5.6086
 Frc consts  --      3.1028                 2.5129                 9.0177
 IR Inten    --    311.6439               212.1226               459.9056

                     85                     86                     87
                      A                      A                      A
 Frequencies --   1656.4879              1671.4408              1675.1621
 Red. masses --      2.4320                 3.3000                 5.3960
 Frc consts  --      3.9317                 5.4319                 8.9215
 IR Inten    --     20.8773               180.7144                 1.7328

                     88                     89                     90
                      A                      A                      A
 Frequencies --   1677.5474              3080.8111              3163.3681
 Red. masses --      5.4758                 1.0329                 1.1047
 Frc consts  --      9.0792                 5.7764                 6.5130
 IR Inten    --    529.8792                23.6781                 1.8973

                     91                     92                     93
                      A                      A                      A
 Frequencies --   3175.6003              3182.1708              3194.6053
 Red. masses --      1.0896                 1.1061                 1.0875
 Frc consts  --      6.4737                 6.5990                 6.5392
 IR Inten    --     11.5652                12.8710                 3.6402

                     94                     95                     96
                      A                      A                      A
 Frequencies --   3204.2280              3204.8310              3213.5959
 Red. masses --      1.0925                 1.0867                 1.0897
 Frc consts  --      6.6086                 6.5758                 6.6301
 IR Inten    --     28.1686                 0.1325                 4.4705

                     97                     98                     99
                      A                      A                      A
 Frequencies --   3216.2065              3220.1552              3222.1137
 Red. masses --      1.0877                 1.0978                 1.0936
 Frc consts  --      6.6290                 6.7067                 6.6897
 IR Inten    --      4.7896                25.1516                14.4914

                    100                    101                    102
                      A                      A                      A
 Frequencies --   3229.3513              3249.1548              3269.9480
 Red. masses --      1.0978                 1.0922                 1.0922
 Frc consts  --      6.7453                 6.7936                 6.8807
 IR Inten    --     15.5380                14.2438                 3.1258

                    103                    104                    105
                      A                      A                      A
 Frequencies --   3506.2551              3581.6317              3653.8775
 Red. masses --      1.0521                 1.0956                 1.0753
 Frc consts  --      7.6206                 8.2803                 8.4586
 IR Inten    --     57.1380                57.5542               124.8745

 - Thermochemistry -
 -------------------
 Temperature   298.150 Kelvin.  Pressure   1.00000 Atm.
 Atom     1 has atomic number  6 and mass  12.00000

 Molecular mass:   288.10294 amu.
 Principal axes and moments of inertia in atomic units:
                           1         2         3
     Eigenvalues --  3798.734678007.090459778.81319
           X            0.99987   0.00447  -0.01562
           Y           -0.00475   0.99983  -0.01778
           Z            0.01554   0.01785   0.99972
 This molecule is an asymmetric top.
 Rotational symmetry number  1.
 Warning -- assumption of classical behavior for rotation
           may cause significant error
 Rotational temperatures (Kelvin)      0.02280     0.01082     0.00886
 Rotational constants (GHZ):           0.47509     0.22539     0.18456
    1 imaginary frequencies ignored.
 Zero-point vibrational energy     794003.9 (Joules/Mol)
                                  189.77148 (Kcal/Mol)
 Warning -- explicit consideration of  27 degrees of freedom as
           vibrations may cause significant error
 Vibrational temperatures:     25.83    41.60    51.17    75.05   119.51
          (Kelvin)            124.96   176.28   193.84   258.31   280.79
                              298.38   327.17   368.69   373.91   418.50
                              472.10   498.95   516.66   552.94   608.87
                              613.20   697.95   755.08   759.18   819.60
                              858.36   874.29   914.96   922.26   947.26
                             1012.80  1037.45  1040.06  1041.96  1091.99
                             1125.22  1131.70  1182.65  1230.34  1241.82
                             1258.15  1296.20  1343.24  1389.97  1427.84
                             1441.49  1459.45  1462.31  1468.26  1470.86
                             1477.43  1495.22  1528.27  1534.68  1536.92
                             1586.27  1609.01  1622.52  1673.13  1699.79
                             1711.77  1736.60  1761.83  1819.40  1834.19
                             1857.70  1893.31  1919.93  1934.83  1957.10
                             1960.52  1966.99  2062.63  2109.31  2125.21
                             2145.75  2154.21  2173.12  2220.96  2224.05
                             2256.41  2366.46  2376.78  2383.32  2404.83
                             2410.18  2413.62  4432.60  4551.38  4568.98
                             4578.43  4596.32  4610.17  4611.04  4623.65
                             4627.40  4633.09  4635.90  4646.32  4674.81
                             4704.73  5044.72  5153.17  5257.11

 Zero-point correction=                           0.302420 (Hartree/Particle)
 Thermal correction to Energy=                    0.320537
 Thermal correction to Enthalpy=                  0.321482
 Thermal correction to Gibbs Free Energy=         0.254017
 Sum of electronic and zero-point Energies=          -1264.573117
 Sum of electronic and thermal Energies=             -1264.555000
 Sum of electronic and thermal Enthalpies=           -1264.554056
 Sum of electronic and thermal Free Energies=        -1264.621521

                     E (Thermal)             CV                S
                      KCal/Mol        Cal/Mol-Kelvin    Cal/Mol-Kelvin
 Total                  201.140             69.631            141.992
 Electronic               0.000              0.000              0.000
 Translational            0.889              2.981             42.872
 Rotational               0.889              2.981             34.052
 Vibrational            199.363             63.669             65.068
 Vibration     1          0.593              1.986              6.849
 Vibration     2          0.593              1.984              5.903
 Vibration     3          0.594              1.982              5.492
 Vibration     4          0.596              1.977              4.734
 Vibration     5          0.600              1.961              3.817
 Vibration     6          0.601              1.958              3.730
 Vibration     7          0.610              1.930              3.060
 Vibration     8          0.613              1.919              2.877
 Vibration     9          0.629              1.867              2.333
 Vibration    10          0.636              1.847              2.178
 Vibration    11          0.641              1.829              2.067
 Vibration    12          0.651              1.799              1.899
 Vibration    13          0.666              1.752              1.687
 Vibration    14          0.668              1.746              1.663
 Vibration    15          0.687              1.691              1.469
 Vibration    16          0.711              1.619              1.269
 Vibration    17          0.725              1.582              1.181
 Vibration    18          0.734              1.557              1.126
 Vibration    19          0.753              1.504              1.022
 Vibration    20          0.785              1.420              0.881
 Vibration    21          0.788              1.413              0.871
 Vibration    22          0.841              1.283              0.696
 Vibration    23          0.880              1.195              0.599
 Vibration    24          0.883              1.189              0.592
 Vibration    25          0.926              1.097              0.505
 Vibration    26          0.954              1.039              0.456
 Vibration    27          0.966              1.016              0.437

 Optimization completed.
    -- Stationary point found.
 Normal termination of Gaussian 16 at Sat Feb 27 07:51:21 2021.
