 Gaussian 16, Revision A.03,
 Gaussian 16:  ES64L-G16RevA.03 25-Dec-2016

 ----------------------------------------------------------------------
 # wB97XD def2tzvp, opt=(ts, noeigen, calcfc, maxcycles=70, maxstep=1),
  freq=noraman, scrf=(iefpcm, solvent=water)
 ----------------------------------------------------------------------

 ------------------------
 0_iteration/TS-874-0.out
 ------------------------
 Symbolic Z-matrix:
 Charge =  0 Multiplicity = 1

 SCF Done:  E(RwB97XD) =  -1246.32708811     A.U. after   15 cycles
 SCF Done:  E(RwB97XD) =  -1246.32700809     A.U. after   10 cycles
 SCF Done:  E(RwB97XD) =  -1246.32693303     A.U. after   10 cycles
 SCF Done:  E(RwB97XD) =  -1246.32686237     A.U. after   10 cycles
 SCF Done:  E(RwB97XD) =  -1246.32679603     A.U. after   10 cycles
 SCF Done:  E(RwB97XD) =  -1246.32673397     A.U. after   10 cycles
 SCF Done:  E(RwB97XD) =  -1246.32667620     A.U. after   10 cycles
 SCF Done:  E(RwB97XD) =  -1246.32662271     A.U. after   10 cycles
 SCF Done:  E(RwB97XD) =  -1246.32657312     A.U. after   10 cycles
 SCF Done:  E(RwB97XD) =  -1246.32652731     A.U. after   10 cycles
 SCF Done:  E(RwB97XD) =  -1246.32775696     A.U. after    9 cycles
 SCF Done:  E(RwB97XD) =  -1246.32779503     A.U. after    9 cycles
 SCF Done:  E(RwB97XD) =  -1246.32782855     A.U. after    9 cycles
 SCF Done:  E(RwB97XD) =  -1246.32785700     A.U. after    9 cycles
 SCF Done:  E(RwB97XD) =  -1246.32787945     A.U. after    9 cycles
 SCF Done:  E(RwB97XD) =  -1246.32789224     A.U. after   10 cycles
 SCF Done:  E(RwB97XD) =  -1246.32789503     A.U. after   10 cycles
 SCF Done:  E(RwB97XD) =  -1246.32789510     A.U. after    8 cycles
 SCF Done:  E(RwB97XD) =  -1246.32789507     A.U. after    7 cycles
 Optimization completed.
    -- Stationary point found.
 Normal termination of Gaussian 16 at Wed Feb 24 01:57:54 2021.

 ---------------------------------------------------------------------
 #N Geom=AllCheck Guess=TCheck SCRF=Check GenChk RwB97XD/def2TZVP Freq
 ---------------------------------------------------------------------

 Structure from the checkpoint file:  "/beegfs/scratch/user/q/tla25/Gau-94816.chk"
 ------------------------
 0_iteration/TS-874-0.out
 ------------------------
 Charge =  0 Multiplicity = 1

                         Standard orientation:
 ---------------------------------------------------------------------
 Center     Atomic      Atomic             Coordinates (Angstroms)
 Number     Number       Type             X           Y           Z
 ---------------------------------------------------------------------
      1          6           0        0.715322   -0.162970   -0.155827
      2          6           0        1.642698    0.922350   -0.329215
      3          8           0        1.265885    2.010952   -0.773211
      4          6           0       -0.600250    0.022485   -0.524844
      5          6           0       -2.919925    1.451813    0.579932
      6          1           0       -3.354655    2.035820    1.392475
      7          1           0       -2.846217    2.080530   -0.306737
      8          1           0       -3.572195    0.608805    0.360461
      9          7           0       -1.591462    0.951784    0.919466
     10          1           0       -0.948968    1.703936    1.138655
     11          1           0       -1.611874    0.312386    1.705068
     12         17           0       -1.658841   -1.333618   -0.782781
     13          1           0       -0.787594    0.834336   -1.212900
     14         17           0        1.201120   -1.607800    0.699104
     15          6           0        3.090438    0.714790    0.041361
     16          1           0        3.494860   -0.184172   -0.425609
     17          1           0        3.664073    1.585052   -0.269534
     18          1           0        3.187293    0.586496    1.121604
 ---------------------------------------------------------------------

 SCF Done:  E(RwB97XD) =  -1246.32789507     A.U. after    1 cycles

 The electronic state is 1-A.
 Alpha  occ. eigenvalues -- -101.71006-101.69420 -19.21722 -14.47966 -10.39366
 Alpha  occ. eigenvalues --  -10.36767 -10.31770 -10.31689 -10.27650  -9.59578
 Alpha  occ. eigenvalues --   -9.57946  -7.34231  -7.33371  -7.33308  -7.32581
 Alpha  occ. eigenvalues --   -7.31732  -7.31720  -1.12622  -1.03783  -0.99238
 Alpha  occ. eigenvalues --   -0.95086  -0.84691  -0.83150  -0.78654  -0.71055
 Alpha  occ. eigenvalues --   -0.63566  -0.62075  -0.57370  -0.56544  -0.54919
 Alpha  occ. eigenvalues --   -0.54799  -0.52274  -0.50957  -0.48834  -0.48069
 Alpha  occ. eigenvalues --   -0.47588  -0.46626  -0.43864  -0.42557  -0.41494
 Alpha  occ. eigenvalues --   -0.39668  -0.38756  -0.33327  -0.28215
 Alpha virt. eigenvalues --    0.02886   0.08308   0.10185   0.13196   0.13626
 Alpha virt. eigenvalues --    0.14480   0.15039   0.16514   0.17590   0.19131
 Alpha virt. eigenvalues --    0.19757   0.20590   0.21049   0.21981   0.23637

 Mulliken charges:
               1
     1  C   -0.145076
     2  C    0.265271
     3  O   -0.506353
     4  C    0.006151
     5  C   -0.268155
     6  H    0.151263
     7  H    0.149785
     8  H    0.148065
     9  N   -0.372249
    10  H    0.284071
    11  H    0.283320
    12  Cl  -0.073883
    13  H    0.186807
    14  Cl  -0.151413
    15  C   -0.374346
    16  H    0.143348
    17  H    0.128454
    18  H    0.144939
 Sum of Mulliken charges =  -0.00000

 Dipole moment (field-independent basis, Debye):
    X=             -4.7668    Y=              1.2651    Z=              3.5991  Tot=              6.1054
 Quadrupole moment (field-independent basis, Debye-Ang):
   XX=            -58.1366   YY=            -75.6281   ZZ=            -65.5764
   XY=             -7.8648   XZ=             -2.4668   YZ=              5.8362

  Exact polarizability: 177.757   1.441 140.006  -3.913  -3.972 105.953
 Approx polarizability: 129.001   0.844 121.142  -1.283  -5.010  95.549

 ******    1 imaginary frequencies (negative Signs) ******

                      1                      2                      3
                      A                      A                      A
 Frequencies --   -356.7387                34.6882                57.4692
 Red. masses --      6.4835                 2.9749                 2.6606
 Frc consts  --      0.4861                 0.0021                 0.0052
 IR Inten    --    886.3395                 0.4650                 7.8981

                      4                      5                      6
                      A                      A                      A
 Frequencies --     79.3727               113.8275               142.5030
 Red. masses --      3.4628                 5.1400                 1.0603
 Frc consts  --      0.0129                 0.0392                 0.0127
 IR Inten    --      6.7519                15.8324                 0.4401

                      7                      8                      9
                      A                      A                      A
 Frequencies --    158.3584               179.8363               196.7531
 Red. masses --      2.3910                 2.0360                 4.7922
 Frc consts  --      0.0353                 0.0388                 0.1093
 IR Inten    --      3.5256                 5.1796                13.0578

                     10                     11                     12
                      A                      A                      A
 Frequencies --    217.2089               284.1230               355.0083
 Red. masses --      6.9296                 3.1571                 5.5356
 Frc consts  --      0.1926                 0.1502                 0.4110
 IR Inten    --     13.7973                 1.5810                 8.3112

                     13                     14                     15
                      A                      A                      A
 Frequencies --    427.2166               464.3106               566.8839
 Red. masses --      5.0609                 8.1901                 3.6487
 Frc consts  --      0.5442                 1.0403                 0.6908
 IR Inten    --    124.9862                32.7071                46.4195

                     16                     17                     18
                      A                      A                      A
 Frequencies --    610.5005               622.6792               686.6400
 Red. masses --      1.8098                 2.5338                 3.6002
 Frc consts  --      0.3974                 0.5788                 1.0001
 IR Inten    --     20.1418                46.9587                36.5037

                     19                     20                     21
                      A                      A                      A
 Frequencies --    823.3771               976.2506              1001.4302
 Red. masses --      4.5871                 2.3768                 1.1088
 Frc consts  --      1.8323                 1.3346                 0.6552
 IR Inten    --    122.1601                29.3091                35.3221

                     22                     23                     24
                      A                      A                      A
 Frequencies --   1016.8572              1026.1075              1044.7748
 Red. masses --      1.5519                 1.3656                 1.8021
 Frc consts  --      0.9455                 0.8471                 1.1590
 IR Inten    --    137.2808                31.4576                 3.7204

                     25                     26                     27
                      A                      A                      A
 Frequencies --   1075.1469              1129.8343              1208.4415
 Red. masses --      4.3108                 1.1314                 1.4193
 Frc consts  --      2.9359                 0.8509                 1.2212
 IR Inten    --    136.6311                76.4969                20.0804

                     28                     29                     30
                      A                      A                      A
 Frequencies --   1234.9148              1320.3344              1343.8740
 Red. masses --      1.3222                 3.7122                 1.3297
 Frc consts  --      1.1880                 3.8128                 1.4149
 IR Inten    --     40.8068               136.1283                10.9602

                     31                     32                     33
                      A                      A                      A
 Frequencies --   1390.1940              1420.9324              1456.8842
 Red. masses --      1.6011                 3.4524                 1.0817
 Frc consts  --      1.8231                 4.1070                 1.3527
 IR Inten    --     51.2940              1300.8878                46.7576

                     34                     35                     36
                      A                      A                      A
 Frequencies --   1464.9196              1468.1856              1490.6811
 Red. masses --      1.2265                 1.0622                 1.0401
 Frc consts  --      1.5508                 1.3491                 1.3617
 IR Inten    --     72.0055                34.5067                15.5557

                     37                     38                     39
                      A                      A                      A
 Frequencies --   1506.1073              1641.7719              1666.1258
 Red. masses --      1.0321                 1.1131                 7.9566
 Frc consts  --      1.3794                 1.7678                13.0135
 IR Inten    --     10.8083                41.3297               353.9237

                     40                     41                     42
                      A                      A                      A
 Frequencies --   3062.4330              3063.8620              3132.5133
 Red. masses --      1.0369                 1.0346                 1.0993
 Frc consts  --      5.7294                 5.7220                 6.3554
 IR Inten    --      6.4538                52.3152                 9.8743

                     43                     44                     45
                      A                      A                      A
 Frequencies --   3139.2963              3164.2844              3169.0417
 Red. masses --      1.1039                 1.1050                 1.1041
 Frc consts  --      6.4098                 6.5189                 6.5332
 IR Inten    --     17.8654                13.7780                23.2312

                     46                     47                     48
                      A                      A                      A
 Frequencies --   3225.4053              3526.7928              3612.2395
 Red. masses --      1.0908                 1.0504                 1.0969
 Frc consts  --      6.6861                 7.6978                 8.4331
 IR Inten    --      2.0021                25.1387                47.9747

 - Thermochemistry -
 -------------------
 Temperature   298.150 Kelvin.  Pressure   1.00000 Atm.
 Atom     1 has atomic number  6 and mass  12.00000

 Molecular mass:   169.00612 amu.
 Principal axes and moments of inertia in atomic units:
                           1         2         3
     Eigenvalues --  1300.380132209.377642953.07804
           X            0.99890  -0.04249  -0.01984
           Y            0.04293   0.99882   0.02251
           Z            0.01886  -0.02334   0.99955
 This molecule is an asymmetric top.
 Rotational symmetry number  1.
 Warning -- assumption of classical behavior for rotation
           may cause significant error
 Rotational temperatures (Kelvin)      0.06661     0.03920     0.02933
 Rotational constants (GHZ):           1.38786     0.81686     0.61114
    1 imaginary frequencies ignored.
 Zero-point vibrational energy     364863.4 (Joules/Mol)
                                   87.20444 (Kcal/Mol)
 Warning -- explicit consideration of  15 degrees of freedom as
           vibrations may cause significant error
 Vibrational temperatures:     49.91    82.69   114.20   163.77   205.03
          (Kelvin)            227.84   258.74   283.08   312.52   408.79
                              510.78   614.67   668.04   815.62   878.37
                              895.90   987.92  1184.66  1404.61  1440.83
                             1463.03  1476.34  1503.20  1546.90  1625.58
                             1738.68  1776.77  1899.67  1933.54  2000.18
                             2044.40  2096.13  2107.69  2112.39  2144.76
                             2166.95  2362.14  2397.18  4406.16  4408.21
                             4506.99  4516.75  4552.70  4559.54  4640.64
                             5074.27  5197.21

 Zero-point correction=                           0.138969 (Hartree/Particle)
 Thermal correction to Energy=                    0.150276
 Thermal correction to Enthalpy=                  0.151220
 Thermal correction to Gibbs Free Energy=         0.100023
 Sum of electronic and zero-point Energies=          -1246.188926
 Sum of electronic and thermal Energies=             -1246.177619
 Sum of electronic and thermal Enthalpies=           -1246.176675
 Sum of electronic and thermal Free Energies=        -1246.227872

                     E (Thermal)             CV                S
                      KCal/Mol        Cal/Mol-Kelvin    Cal/Mol-Kelvin
 Total                   94.300             37.450            107.753
 Electronic               0.000              0.000              0.000
 Translational            0.889              2.981             41.282
 Rotational               0.889              2.981             30.518
 Vibrational             92.522             31.488             35.953
 Vibration     1          0.594              1.983              5.541
 Vibration     2          0.596              1.975              4.542
 Vibration     3          0.600              1.963              3.906
 Vibration     4          0.607              1.938              3.203
 Vibration     5          0.616              1.911              2.770
 Vibration     6          0.621              1.893              2.569
 Vibration     7          0.629              1.867              2.330
 Vibration     8          0.636              1.844              2.163
 Vibration     9          0.646              1.815              1.982
 Vibration    10          0.683              1.703              1.509
 Vibration    11          0.731              1.565              1.144
 Vibration    12          0.789              1.411              0.868
 Vibration    13          0.822              1.329              0.754
 Vibration    14          0.923              1.103              0.510
 Vibration    15          0.970              1.010              0.432

 Optimization completed.
    -- Stationary point found.
 Normal termination of Gaussian 16 at Wed Feb 24 02:06:42 2021.
