 Gaussian 16, Revision A.03,
 Gaussian 16:  ES64L-G16RevA.03 25-Dec-2016

 ----------------------------------------------------------------------
 # wB97XD def2tzvp, opt=(ts, noeigen, calcfc, maxcycles=70, maxstep=5),
  freq=noraman, scrf=(iefpcm, solvent=water)
 ----------------------------------------------------------------------

 ------------------------
 2_iteration/TS-800-2.out
 ------------------------
 Symbolic Z-matrix:
 Charge =  0 Multiplicity = 1

 SCF Done:  E(RwB97XD) =  -4011.65388485     A.U. after   15 cycles
 SCF Done:  E(RwB97XD) =  -4011.65388486     A.U. after    7 cycles
 Optimization completed.
    -- Stationary point found.
 Normal termination of Gaussian 16 at Mon Feb 22 11:53:29 2021.

 ---------------------------------------------------------------------
 #N Geom=AllCheck Guess=TCheck SCRF=Check GenChk RwB97XD/def2TZVP Freq
 ---------------------------------------------------------------------

 Structure from the checkpoint file:  "/beegfs/scratch/user/q/tla25/Gau-102665.chk"
 ------------------------
 2_iteration/TS-800-2.out
 ------------------------
 Charge =  0 Multiplicity = 1

                         Standard orientation:
 ---------------------------------------------------------------------
 Center     Atomic      Atomic             Coordinates (Angstroms)
 Number     Number       Type             X           Y           Z
 ---------------------------------------------------------------------
      1          6           0        0.465077    0.989354   -0.042296
      2          6           0       -0.876026    1.526242   -0.154313
      3          8           0       -1.083120    2.728405   -0.271814
      4          6           0        0.876623   -0.330347   -0.208502
      5          6           0        1.163268   -0.550513    2.608782
      6          1           0        0.623344    0.395987    2.571169
      7          1           0        0.932505   -1.055672    3.546232
      8          1           0        2.231461   -0.350175    2.558205
      9          7           0        0.770921   -1.357603    1.461519
     10          1           0       -0.201529   -1.642008    1.516861
     11          1           0        1.337766   -2.193260    1.364439
     12         35           0        2.743002   -0.653288   -0.575624
     13         17           0       -0.103537   -1.423024   -1.172161
     14         17           0        1.672292    2.203594    0.320127
     15          6           0       -2.070387    0.620942   -0.066644
     16          6           0       -2.964446    0.549758   -1.128708
     17          6           0       -4.096383   -0.242244   -1.031467
     18          6           0       -4.358224   -0.945807    0.137637
     19          6           0       -3.488369   -0.846029    1.212904
     20          6           0       -2.345232   -0.066505    1.108917
     21          1           0       -2.759720    1.100579   -2.038214
     22          1           0       -4.778982   -0.310385   -1.868960
     23          1           0       -5.244902   -1.562158    0.212513
     24          1           0       -3.698822   -1.372259    2.135091
     25          1           0       -1.681917    0.031643    1.960089
 ---------------------------------------------------------------------

 SCF Done:  E(RwB97XD) =  -4011.65388486     A.U. after    1 cycles

 The electronic state is 1-A.
 Alpha  occ. eigenvalues -- -483.14917-101.72084-101.69580 -62.69760 -56.48904
 Alpha  occ. eigenvalues --  -56.48512 -56.48491 -19.23040 -14.49763 -10.46111
 Alpha  occ. eigenvalues --  -10.38122 -10.33682 -10.32400 -10.30674 -10.30024
 Alpha  occ. eigenvalues --  -10.29705 -10.29704 -10.29600 -10.29531  -9.60664
 Alpha  occ. eigenvalues --   -9.58109  -8.83871  -7.35361  -7.34413  -7.34383
 Alpha  occ. eigenvalues --   -7.32773  -7.31878  -7.31865  -6.66108  -6.64859
 Alpha  occ. eigenvalues --   -6.64798  -2.76480  -2.76132  -2.76084  -2.75074
 Alpha  occ. eigenvalues --   -2.75073  -1.14207  -1.05818  -1.00922  -0.97384
 Alpha  occ. eigenvalues --   -0.96182  -0.90200  -0.87597  -0.85899  -0.83094
 Alpha  occ. eigenvalues --   -0.79761  -0.74597  -0.71349  -0.69884  -0.64716
 Alpha  occ. eigenvalues --   -0.64025  -0.60933  -0.58826  -0.58157  -0.56201
 Alpha  occ. eigenvalues --   -0.56169  -0.55272  -0.53790  -0.51757  -0.51414
 Alpha  occ. eigenvalues --   -0.50126  -0.49284  -0.48974  -0.47868  -0.46789
 Alpha  occ. eigenvalues --   -0.44945  -0.43693  -0.42955  -0.42438  -0.41571
 Alpha  occ. eigenvalues --   -0.40151  -0.38424  -0.37174  -0.35288  -0.34500
 Alpha  occ. eigenvalues --   -0.32898  -0.29481
 Alpha virt. eigenvalues --    0.00616   0.02167   0.04535   0.05029   0.06144
 Alpha virt. eigenvalues --    0.10235   0.12884   0.13317   0.14187   0.14977
 Alpha virt. eigenvalues --    0.15434   0.16258   0.17261   0.18175   0.18578

 Mulliken charges:
               1
     1  C   -0.220578
     2  C    0.228537
     3  O   -0.432497
     4  C    0.180672
     5  C   -0.307339
     6  H    0.162061
     7  H    0.170374
     8  H    0.166528
     9  N   -0.337972
    10  H    0.283685
    11  H    0.296773
    12  Br  -0.022491
    13  Cl  -0.026579
    14  Cl  -0.132614
    15  C    0.132845
    16  C   -0.215076
    17  C   -0.133834
    18  C   -0.146790
    19  C   -0.132639
    20  C   -0.289856
    21  H    0.144698
    22  H    0.147386
    23  H    0.148103
    24  H    0.146211
    25  H    0.190391
 Sum of Mulliken charges =  -0.00000

 Dipole moment (field-independent basis, Debye):
    X=              0.1519    Y=             -9.8213    Z=              4.9596  Tot=             11.0036
 Quadrupole moment (field-independent basis, Debye-Ang):
   XX=           -106.0503   YY=           -126.8925   ZZ=            -99.8545
   XY=              4.6740   XZ=              5.0986   YZ=             -7.0546

  Exact polarizability: 279.222   8.483 247.133  16.202 -19.187 218.848
 Approx polarizability: 217.341   9.956 212.097  12.325 -14.929 191.174

 ******    1 imaginary frequencies (negative Signs) ******

                      1                      2                      3
                      A                      A                      A
 Frequencies --   -365.3971                26.8228                38.8186
 Red. masses --      5.9390                 6.2876                 7.8566
 Frc consts  --      0.4672                 0.0027                 0.0070
 IR Inten    --    843.7502                 2.4067                 3.4132

                      4                      5                      6
                      A                      A                      A
 Frequencies --     65.8849                76.2100                89.9402
 Red. masses --      7.5035                 4.0893                 3.2352
 Frc consts  --      0.0192                 0.0140                 0.0154
 IR Inten    --      1.2098                 2.0706                 0.2258

                      7                      8                      9
                      A                      A                      A
 Frequencies --    126.9968               159.4555               172.1165
 Red. masses --      5.2421                10.1771                 1.3297
 Frc consts  --      0.0498                 0.1525                 0.0232
 IR Inten    --      4.4022                 3.6749                 5.6333

                     10                     11                     12
                      A                      A                      A
 Frequencies --    185.2850               210.6423               215.9185
 Red. masses --      6.1120                 7.1410                 3.7855
 Frc consts  --      0.1236                 0.1867                 0.1040
 IR Inten    --      3.6448                 2.9841                 1.4139

                     13                     14                     15
                      A                      A                      A
 Frequencies --    232.4418               242.8329               288.1325
 Red. masses --      3.4298                 7.1931                 6.5269
 Frc consts  --      0.1092                 0.2499                 0.3193
 IR Inten    --      3.2141                13.4366                 4.3280

                     16                     17                     18
                      A                      A                      A
 Frequencies --    299.6334               348.3979               387.2644
 Red. masses --      5.9337                 9.9943                 5.4520
 Frc consts  --      0.3139                 0.7147                 0.4817
 IR Inten    --     20.2166                 1.9930                19.5774

                     19                     20                     21
                      A                      A                      A
 Frequencies --    395.4889               420.6367               504.7799
 Red. masses --     16.8318                 2.9674                 6.6109
 Frc consts  --      1.5511                 0.3093                 0.9925
 IR Inten    --      7.9812                 2.2213               118.5541

                     22                     23                     24
                      A                      A                      A
 Frequencies --    562.8733               629.5475               634.7356
 Red. masses --      4.0718                 1.8205                 6.4218
 Frc consts  --      0.7601                 0.4251                 1.5244
 IR Inten    --      6.3398                 3.1887                 0.5209

                     25                     26                     27
                      A                      A                      A
 Frequencies --    673.0370               730.3050               758.8820
 Red. masses --      3.5613                 1.7077                 4.0316
 Frc consts  --      0.9505                 0.5366                 1.3680
 IR Inten    --    131.0447                84.9535                43.2936

                     28                     29                     30
                      A                      A                      A
 Frequencies --    789.8651               806.7575               822.7860
 Red. masses --      5.6801                 4.5003                 4.4163
 Frc consts  --      2.0879                 1.7258                 1.7615
 IR Inten    --    107.1621               173.6218               159.6047

                     31                     32                     33
                      A                      A                      A
 Frequencies --    881.6748               886.5423               965.2754
 Red. masses --      2.3233                 1.8288                 1.4450
 Frc consts  --      1.0641                 0.8469                 0.7933
 IR Inten    --     10.1365                10.6342                20.0460

                     34                     35                     36
                      A                      A                      A
 Frequencies --   1001.5666              1015.8066              1026.9727
 Red. masses --      1.1161                 1.4936                 2.8235
 Frc consts  --      0.6597                 0.9080                 1.7545
 IR Inten    --     15.1300                 3.5983                19.5498

                     37                     38                     39
                      A                      A                      A
 Frequencies --   1031.4782              1034.3466              1058.3151
 Red. masses --      1.2148                 1.3711                 2.3055
 Frc consts  --      0.7615                 0.8643                 1.5214
 IR Inten    --     73.4730                 4.3123                12.6280

                     40                     41                     42
                      A                      A                      A
 Frequencies --   1080.3039              1111.6687              1149.1945
 Red. masses --      5.0884                 1.5480                 4.2148
 Frc consts  --      3.4988                 1.1272                 3.2796
 IR Inten    --     40.3994                22.4056               113.5002

                     43                     44                     45
                      A                      A                      A
 Frequencies --   1184.3079              1205.4701              1219.2076
 Red. masses --      1.1393                 1.1225                 1.4087
 Frc consts  --      0.9415                 0.9611                 1.2337
 IR Inten    --      0.2035                 4.9378                20.6091

                     46                     47                     48
                      A                      A                      A
 Frequencies --   1313.2119              1329.6923              1338.3496
 Red. masses --      4.4103                 5.7358                 1.3368
 Frc consts  --      4.4811                 5.9751                 1.4108
 IR Inten    --    392.3591               253.7476                 8.0491

                     49                     50                     51
                      A                      A                      A
 Frequencies --   1358.3542              1375.3259              1462.8958
 Red. masses --      1.4777                 8.8428                 1.2012
 Frc consts  --      1.6064                 9.8548                 1.5146
 IR Inten    --      7.5458              1116.5088                14.3690

                     52                     53                     54
                      A                      A                      A
 Frequencies --   1489.9419              1492.0492              1501.2773
 Red. masses --      2.1751                 1.0539                 1.0316
 Frc consts  --      2.8449                 1.3823                 1.3699
 IR Inten    --     12.9798                24.6207                14.0024

                     55                     56                     57
                      A                      A                      A
 Frequencies --   1541.2544              1638.7570              1650.5550
 Red. masses --      2.3334                 1.0910                 5.9070
 Frc consts  --      3.2657                 1.7262                 9.4815
 IR Inten    --      5.8264                62.1375                23.4193

                     58                     59                     60
                      A                      A                      A
 Frequencies --   1673.6292              1674.9224              3069.5324
 Red. masses --      8.9884                 7.2577                 1.0330
 Frc consts  --     14.8337                11.9961                 5.7345
 IR Inten    --    423.9377               226.5066                21.5555

                     61                     62                     63
                      A                      A                      A
 Frequencies --   3147.4002              3168.8370              3195.8076
 Red. masses --      1.1050                 1.1056                 1.0864
 Frc consts  --      6.4492                 6.5411                 6.5376
 IR Inten    --      9.5770                 9.7762                 4.9006

                     64                     65                     66
                      A                      A                      A
 Frequencies --   3200.5348              3208.5006              3216.8885
 Red. masses --      1.0878                 1.0913                 1.0953
 Frc consts  --      6.5650                 6.6190                 6.6780
 IR Inten    --      0.8563                 8.9400                31.8202

                     67                     68                     69
                      A                      A                      A
 Frequencies --   3225.7987              3508.0124              3593.8924
 Red. masses --      1.0989                 1.0511                 1.0969
 Frc consts  --      6.7375                 7.6209                 8.3472
 IR Inten    --     14.8442                64.9360                89.5517

 - Thermochemistry -
 -------------------
 Temperature   298.150 Kelvin.  Pressure   1.00000 Atm.
 Atom     1 has atomic number  6 and mass  12.00000

 Molecular mass:   308.93228 amu.
 Principal axes and moments of inertia in atomic units:
                           1         2         3
     Eigenvalues --  2868.887666887.869977648.41394
           X            0.99965   0.01972   0.01760
           Y           -0.01805   0.99572  -0.09064
           Z           -0.01931   0.09029   0.99573
 This molecule is an asymmetric top.
 Rotational symmetry number  1.
 Warning -- assumption of classical behavior for rotation
           may cause significant error
 Rotational temperatures (Kelvin)      0.03019     0.01257     0.01132
 Rotational constants (GHZ):           0.62907     0.26202     0.23596
    1 imaginary frequencies ignored.
 Zero-point vibrational energy     479248.2 (Joules/Mol)
                                  114.54307 (Kcal/Mol)
 Warning -- explicit consideration of  21 degrees of freedom as
           vibrations may cause significant error
 Vibrational temperatures:     38.59    55.85    94.79   109.65   129.40
          (Kelvin)            182.72   229.42   247.64   266.58   303.07
                              310.66   334.43   349.38   414.56   431.11
                              501.27   557.19   569.02   605.20   726.27
                              809.85   905.78   913.24   968.35  1050.75
                             1091.86  1136.44  1160.74  1183.81  1268.53
                             1275.54  1388.82  1441.03  1461.52  1477.58
                             1484.07  1488.19  1522.68  1554.32  1599.44
                             1653.43  1703.95  1734.40  1754.17  1889.42
                             1913.13  1925.59  1954.37  1978.79  2104.78
                             2143.69  2146.73  2160.00  2217.52  2357.81
                             2374.78  2407.98  2409.84  4416.37  4528.41
                             4559.25  4598.05  4604.86  4616.32  4628.39
                             4641.20  5047.25  5170.81

 Zero-point correction=                           0.182536 (Hartree/Particle)
 Thermal correction to Energy=                    0.197976
 Thermal correction to Enthalpy=                  0.198920
 Thermal correction to Gibbs Free Energy=         0.137418
 Sum of electronic and zero-point Energies=          -4011.471349
 Sum of electronic and thermal Energies=             -4011.455909
 Sum of electronic and thermal Enthalpies=           -4011.454964
 Sum of electronic and thermal Free Energies=        -4011.516467

                     E (Thermal)             CV                S
                      KCal/Mol        Cal/Mol-Kelvin    Cal/Mol-Kelvin
 Total                  124.232             54.667            129.443
 Electronic               0.000              0.000              0.000
 Translational            0.889              2.981             43.080
 Rotational               0.889              2.981             33.380
 Vibrational            122.455             48.706             52.983
 Vibration     1          0.593              1.984              6.052
 Vibration     2          0.594              1.981              5.318
 Vibration     3          0.597              1.971              4.273
 Vibration     4          0.599              1.965              3.986
 Vibration     5          0.602              1.956              3.661
 Vibration     6          0.611              1.926              2.991
 Vibration     7          0.621              1.892              2.556
 Vibration     8          0.626              1.877              2.412
 Vibration     9          0.631              1.860              2.274
 Vibration    10          0.643              1.825              2.038
 Vibration    11          0.645              1.817              1.993
 Vibration    12          0.653              1.791              1.860
 Vibration    13          0.659              1.775              1.782
 Vibration    14          0.685              1.696              1.485
 Vibration    15          0.692              1.674              1.419
 Vibration    16          0.726              1.579              1.173
 Vibration    17          0.756              1.497              1.011
 Vibration    18          0.762              1.480              0.979
 Vibration    19          0.783              1.425              0.890
 Vibration    20          0.860              1.239              0.646
 Vibration    21          0.919              1.112              0.518

 Optimization completed.
    -- Stationary point found.
 Normal termination of Gaussian 16 at Mon Feb 22 12:47:45 2021.
