 Gaussian 16, Revision A.03,
 Gaussian 16:  ES64L-G16RevA.03 25-Dec-2016

 ----------------------------------------------------------------------
 # wB97XD def2tzvp, opt=(ts, noeigen, calcfc, maxcycles=70, maxstep=8),
  freq=noraman, scrf=(iefpcm, solvent=water)
 ----------------------------------------------------------------------

 ------------------------
 1_iteration/TS-842-1.out
 ------------------------
 Symbolic Z-matrix:
 Charge =  0 Multiplicity = 1

 SCF Done:  E(RwB97XD) =  -1017.77393833     A.U. after   15 cycles
 SCF Done:  E(RwB97XD) =  -1017.77395448     A.U. after   11 cycles
 SCF Done:  E(RwB97XD) =  -1017.77395672     A.U. after   11 cycles
 SCF Done:  E(RwB97XD) =  -1017.77395845     A.U. after    9 cycles
 SCF Done:  E(RwB97XD) =  -1017.77395841     A.U. after    8 cycles
 SCF Done:  E(RwB97XD) =  -1017.77395860     A.U. after    8 cycles
 SCF Done:  E(RwB97XD) =  -1017.77395850     A.U. after    7 cycles
 SCF Done:  E(RwB97XD) =  -1017.77395862     A.U. after    7 cycles
 Optimization completed.
    -- Stationary point found.
 Normal termination of Gaussian 16 at Thu Feb 25 16:20:11 2021.

 ---------------------------------------------------------------------
 #N Geom=AllCheck Guess=TCheck SCRF=Check GenChk RwB97XD/def2TZVP Freq
 ---------------------------------------------------------------------

 Structure from the checkpoint file:  "/beegfs/scratch/user/q/tla25/Gau-34770.chk"
 ------------------------
 1_iteration/TS-842-1.out
 ------------------------
 Charge =  0 Multiplicity = 1

                         Standard orientation:
 ---------------------------------------------------------------------
 Center     Atomic      Atomic             Coordinates (Angstroms)
 Number     Number       Type             X           Y           Z
 ---------------------------------------------------------------------
      1          6           0       -0.496419    0.484176   -0.348644
      2          6           0       -1.004565    1.832740   -0.314435
      3          8           0       -2.183460    2.122471   -0.553162
      4          6           0       -1.413734   -0.501706   -0.668018
      5          6           0       -2.570393   -0.279010    1.891505
      6          1           0       -2.801371   -0.711658    2.864614
      7          1           0       -1.719010    0.396643    1.991735
      8          1           0       -3.422259    0.292688    1.531708
      9          7           0       -2.231550   -1.302045    0.911695
     10          1           0       -1.550305   -1.960657    1.271683
     11          1           0       -3.041815   -1.829268    0.607984
     12         17           0       -0.870538   -2.000993   -1.418207
     13          1           0       -2.361936   -0.176579   -1.071189
     14          6           0        0.920648    0.164798   -0.032618
     15          6           0        1.273200   -0.457349    1.164938
     16          6           0        2.595080   -0.766082    1.453086
     17          6           0        3.596889   -0.447928    0.548012
     18          6           0        3.264861    0.175262   -0.647091
     19          6           0        1.940865    0.471586   -0.933232
     20          1           0        0.504809   -0.693014    1.891681
     21          1           0        2.842582   -1.249786    2.389929
     22          1           0        4.629604   -0.683809    0.771973
     23          1           0        4.039013    0.425034   -1.362175
     24          1           0        1.686783    0.946661   -1.873478
     25          6           0       -0.032952    2.945068    0.025525
     26          1           0        0.659426    3.107496   -0.803245
     27          1           0       -0.587569    3.863342    0.207268
     28          1           0        0.568840    2.695001    0.900293
 ---------------------------------------------------------------------

 SCF Done:  E(RwB97XD) =  -1017.77395862     A.U. after    1 cycles

 The electronic state is 1-A.
 Alpha  occ. eigenvalues -- -101.70097 -19.20486 -14.48444 -10.38384 -10.35522
 Alpha  occ. eigenvalues --  -10.31567 -10.29843 -10.28882 -10.28841 -10.28750
 Alpha  occ. eigenvalues --  -10.28735 -10.28557 -10.27049 -10.26465  -9.58679
 Alpha  occ. eigenvalues --   -7.33309  -7.32477  -7.32428  -1.11252  -1.04068
 Alpha  occ. eigenvalues --   -0.97666  -0.95996  -0.88847  -0.84878  -0.83075
 Alpha  occ. eigenvalues --   -0.81996  -0.78867  -0.71838  -0.70192  -0.68344
 Alpha  occ. eigenvalues --   -0.64118  -0.62116  -0.59274  -0.57279  -0.56422
 Alpha  occ. eigenvalues --   -0.55216  -0.54884  -0.53510  -0.52426  -0.51131
 Alpha  occ. eigenvalues --   -0.50542  -0.49807  -0.48368  -0.47710  -0.46620
 Alpha  occ. eigenvalues --   -0.46160  -0.45915  -0.43167  -0.42715  -0.42314
 Alpha  occ. eigenvalues --   -0.40016  -0.38517  -0.34065  -0.33599  -0.31719
 Alpha  occ. eigenvalues --   -0.27980
 Alpha virt. eigenvalues --    0.03995   0.05184   0.05470   0.09501   0.10374
 Alpha virt. eigenvalues --    0.12594   0.13961   0.14680   0.15171   0.15503
 Alpha virt. eigenvalues --    0.16633   0.17701   0.18396   0.18888   0.19051

 Mulliken charges:
               1
     1  C   -0.239477
     2  C    0.262564
     3  O   -0.519169
     4  C    0.045398
     5  C   -0.282149
     6  H    0.160417
     7  H    0.146663
     8  H    0.156441
     9  N   -0.357582
    10  H    0.280349
    11  H    0.291198
    12  Cl  -0.111951
    13  H    0.180115
    14  C    0.152003
    15  C   -0.213531
    16  C   -0.168679
    17  C   -0.142431
    18  C   -0.141635
    19  C   -0.253930
    20  H    0.148425
    21  H    0.138966
    22  H    0.142343
    23  H    0.139638
    24  H    0.148505
    25  C   -0.371082
    26  H    0.143056
    27  H    0.125936
    28  H    0.139599
 Sum of Mulliken charges =  -0.00000

 Dipole moment (field-independent basis, Debye):
    X=             -0.6101    Y=             -4.8241    Z=              4.6818  Tot=              6.7501
 Quadrupole moment (field-independent basis, Debye-Ang):
   XX=            -81.9847   YY=            -95.1955   ZZ=            -85.0781
   XY=             16.4581   XZ=             -9.5819   YZ=             -5.2383

  Exact polarizability: 238.547   0.756 213.592  -7.775 -18.190 193.787
 Approx polarizability: 190.485  -2.754 170.873  -4.923 -15.124 166.379

 ******    1 imaginary frequencies (negative Signs) ******

                      1                      2                      3
                      A                      A                      A
 Frequencies --   -363.7292                23.6326                45.2993
 Red. masses --      6.0908                 3.4932                 2.7419
 Frc consts  --      0.4748                 0.0011                 0.0033
 IR Inten    --    761.1633                 1.8615                 2.8882

                      4                      5                      6
                      A                      A                      A
 Frequencies --     70.2653                75.6197                91.6037
 Red. masses --      4.2525                 3.2721                 3.2446
 Frc consts  --      0.0124                 0.0110                 0.0160
 IR Inten    --      3.0873                 3.2638                14.8753

                      7                      8                      9
                      A                      A                      A
 Frequencies --    111.9733               124.5666               146.8760
 Red. masses --      3.3223                 1.2309                 4.5664
 Frc consts  --      0.0245                 0.0113                 0.0580
 IR Inten    --      5.0089                 2.1293                 6.9841

                     10                     11                     12
                      A                      A                      A
 Frequencies --    163.7449               177.1983               236.7719
 Red. masses --      1.2700                 3.2531                 5.3610
 Frc consts  --      0.0201                 0.0602                 0.1771
 IR Inten    --      5.1370                 2.3350                10.0548

                     13                     14                     15
                      A                      A                      A
 Frequencies --    287.6368               316.1897               364.0141
 Red. masses --      4.0727                 3.6707                 6.3004
 Frc consts  --      0.1985                 0.2162                 0.4919
 IR Inten    --     30.5349                14.2489                57.7940

                     16                     17                     18
                      A                      A                      A
 Frequencies --    379.6290               423.3409               459.0255
 Red. masses --      5.1850                 2.8925                 3.5901
 Frc consts  --      0.4403                 0.3054                 0.4457
 IR Inten    --     13.0000                 0.0242                13.0690

                     19                     20                     21
                      A                      A                      A
 Frequencies --    519.2991               578.8934               596.4265
 Red. masses --      2.9907                 2.3761                 3.9447
 Frc consts  --      0.4752                 0.4692                 0.8268
 IR Inten    --     14.8752                19.1523                77.0543

                     22                     23                     24
                      A                      A                      A
 Frequencies --    628.0375               646.7861               701.1808
 Red. masses --      3.8116                 3.1116                 3.4676
 Frc consts  --      0.8858                 0.7669                 1.0045
 IR Inten    --     18.2776                19.2321                38.4000

                     25                     26                     27
                      A                      A                      A
 Frequencies --    729.6447               754.2828               793.7213
 Red. masses --      1.5845                 2.8742                 5.0305
 Frc consts  --      0.4970                 0.9635                 1.8672
 IR Inten    --     84.4957                20.0492               159.7769

                     28                     29                     30
                      A                      A                      A
 Frequencies --    807.6926               879.5427               953.3896
 Red. masses --      2.4387                 1.2446                 1.4655
 Frc consts  --      0.9374                 0.5673                 0.7848
 IR Inten    --      6.1394                 0.6401                 2.7732

                     31                     32                     33
                      A                      A                      A
 Frequencies --    979.1774               992.5180              1010.8379
 Red. masses --      2.4569                 1.1107                 1.3738
 Frc consts  --      1.3879                 0.6447                 0.8271
 IR Inten    --     17.4544                45.9124                 3.7774

                     34                     35                     36
                      A                      A                      A
 Frequencies --   1018.1008              1024.3222              1027.7609
 Red. masses --      1.1486                 2.0641                 2.7971
 Frc consts  --      0.7015                 1.2760                 1.7408
 IR Inten    --     70.6558                 5.6606                 2.8570

                     37                     38                     39
                      A                      A                      A
 Frequencies --   1030.0298              1042.4958              1063.8180
 Red. masses --      1.6771                 1.8272                 2.0498
 Frc consts  --      1.0483                 1.1700                 1.3668
 IR Inten    --      6.5868                 2.5073                13.2619

                     40                     41                     42
                      A                      A                      A
 Frequencies --   1082.5932              1110.6051              1140.5643
 Red. masses --      4.6974                 1.5531                 1.2922
 Frc consts  --      3.2437                 1.1287                 0.9904
 IR Inten    --     41.9788                25.3720                97.8304

                     43                     44                     45
                      A                      A                      A
 Frequencies --   1169.7130              1181.7674              1205.0120
 Red. masses --      1.5436                 1.1328                 1.4072
 Frc consts  --      1.2444                 0.9321                 1.2039
 IR Inten    --     16.2903                 0.0755                19.9275

                     46                     47                     48
                      A                      A                      A
 Frequencies --   1208.6977              1264.7735              1306.4233
 Red. masses --      1.1242                 2.0903                 4.3006
 Frc consts  --      0.9677                 1.9701                 4.3246
 IR Inten    --      0.4729                33.9657                31.8139

                     49                     50                     51
                      A                      A                      A
 Frequencies --   1339.7274              1353.5339              1364.9168
 Red. masses --      1.3324                 1.8394                 1.6745
 Frc consts  --      1.4090                 1.9855                 1.8380
 IR Inten    --      1.1211               260.6709               256.8650

                     52                     53                     54
                      A                      A                      A
 Frequencies --   1397.1397              1421.0776              1453.9535
 Red. masses --      1.8144                 3.4973                 1.2867
 Frc consts  --      2.0867                 4.1612                 1.6026
 IR Inten    --    322.5634               509.7116               101.6835

                     55                     56                     57
                      A                      A                      A
 Frequencies --   1459.5085              1471.7530              1486.3642
 Red. masses --      1.0980                 1.0564                 1.1513
 Frc consts  --      1.3780                 1.3482                 1.4986
 IR Inten    --     46.3768                16.4918                12.0414

                     58                     59                     60
                      A                      A                      A
 Frequencies --   1488.5600              1501.5747              1548.1822
 Red. masses --      1.8336                 1.0473                 2.5467
 Frc consts  --      2.3938                 1.3912                 3.5964
 IR Inten    --     20.2335                16.2611                29.7502

                     61                     62                     63
                      A                      A                      A
 Frequencies --   1644.0865              1647.8152              1659.8381
 Red. masses --      3.6376                 1.2338                 8.6493
 Frc consts  --      5.7931                 1.9738                14.0398
 IR Inten    --     10.2560                85.9756               533.7289

                     64                     65                     66
                      A                      A                      A
 Frequencies --   1674.6193              3061.2418              3063.0799
 Red. masses --      6.0123                 1.0366                 1.0348
 Frc consts  --      9.9340                 5.7236                 5.7206
 IR Inten    --      3.6670                 8.0753                33.3403

                     67                     68                     69
                      A                      A                      A
 Frequencies --   3131.1586              3136.0922              3164.2671
 Red. masses --      1.0994                 1.1034                 1.1039
 Frc consts  --      6.3508                 6.3939                 6.5122
 IR Inten    --     11.8851                13.8608                34.6647

                     70                     71                     72
                      A                      A                      A
 Frequencies --   3172.9485              3187.4279              3189.9912
 Red. masses --      1.1048                 1.0859                 1.0882
 Frc consts  --      6.5532                 6.5001                 6.5241
 IR Inten    --     10.7523                 9.6490                 4.0153

                     73                     74                     75
                      A                      A                      A
 Frequencies --   3200.0650              3207.5192              3219.0011
 Red. masses --      1.0912                 1.0950                 1.0988
 Frc consts  --      6.5835                 6.6377                 6.7084
 IR Inten    --     14.2024                50.3397                17.8972

                     76                     77                     78
                      A                      A                      A
 Frequencies --   3226.3106              3524.1121              3608.7545
 Red. masses --      1.0912                 1.0507                 1.0964
 Frc consts  --      6.6924                 7.6886                 8.4129
 IR Inten    --      4.0730                47.5632                49.6280

 - Thermochemistry -
 -------------------
 Temperature   298.150 Kelvin.  Pressure   1.00000 Atm.
 Atom     1 has atomic number  6 and mass  12.00000

 Molecular mass:   211.07639 amu.
 Principal axes and moments of inertia in atomic units:
                           1         2         3
     Eigenvalues --  2421.106273756.893984525.37032
           X            0.99953   0.01097  -0.02851
           Y           -0.01270   0.99804  -0.06123
           Z            0.02778   0.06156   0.99772
 This molecule is an asymmetric top.
 Rotational symmetry number  1.
 Warning -- assumption of classical behavior for rotation
           may cause significant error
 Rotational temperatures (Kelvin)      0.03577     0.02305     0.01914
 Rotational constants (GHZ):           0.74542     0.48038     0.39881
    1 imaginary frequencies ignored.
 Zero-point vibrational energy     603815.8 (Joules/Mol)
                                  144.31544 (Kcal/Mol)
 Warning -- explicit consideration of  20 degrees of freedom as
           vibrations may cause significant error
 Vibrational temperatures:     34.00    65.18   101.10   108.80   131.80
          (Kelvin)            161.10   179.22   211.32   235.59   254.95
                              340.66   413.85   454.93   523.74   546.20
                              609.09   660.44   747.16   832.90   858.12
                              903.61   930.58  1008.84  1049.80  1085.24
                             1141.99  1162.09  1265.47  1371.71  1408.82
                             1428.01  1454.37  1464.82  1473.77  1478.72
                             1481.98  1499.92  1530.60  1557.61  1597.91
                             1641.02  1682.96  1700.30  1733.74  1739.05
                             1819.73  1879.65  1927.57  1947.43  1963.81
                             2010.17  2044.61  2091.91  2099.91  2117.52
                             2138.55  2141.71  2160.43  2227.49  2365.47
                             2370.84  2388.14  2409.40  4404.44  4407.09
                             4505.04  4512.14  4552.67  4565.17  4586.00
                             4589.69  4604.18  4614.90  4631.42  4641.94
                             5070.41  5192.19

 Zero-point correction=                           0.229981 (Hartree/Particle)
 Thermal correction to Energy=                    0.244654
 Thermal correction to Enthalpy=                  0.245598
 Thermal correction to Gibbs Free Energy=         0.186380
 Sum of electronic and zero-point Energies=          -1017.543977
 Sum of electronic and thermal Energies=             -1017.529304
 Sum of electronic and thermal Enthalpies=           -1017.528360
 Sum of electronic and thermal Free Energies=        -1017.587579

                     E (Thermal)             CV                S
                      KCal/Mol        Cal/Mol-Kelvin    Cal/Mol-Kelvin
 Total                  153.523             52.579            124.636
 Electronic               0.000              0.000              0.000
 Translational            0.889              2.981             41.945
 Rotational               0.889              2.981             32.087
 Vibrational            151.745             46.617             50.604
 Vibration     1          0.593              1.985              6.303
 Vibration     2          0.595              1.979              5.013
 Vibration     3          0.598              1.968              4.146
 Vibration     4          0.599              1.965              4.001
 Vibration     5          0.602              1.955              3.626
 Vibration     6          0.607              1.940              3.234
 Vibration     7          0.610              1.928              3.028
 Vibration     8          0.617              1.906              2.712
 Vibration     9          0.623              1.887              2.506
 Vibration    10          0.628              1.870              2.358
 Vibration    11          0.656              1.784              1.827
 Vibration    12          0.685              1.697              1.488
 Vibration    13          0.703              1.643              1.330
 Vibration    14          0.738              1.546              1.105
 Vibration    15          0.750              1.514              1.041
 Vibration    16          0.786              1.419              0.881
 Vibration    17          0.817              1.341              0.769
 Vibration    18          0.874              1.207              0.612
 Vibration    19          0.935              1.077              0.487
 Vibration    20          0.954              1.039              0.456

 Optimization completed.
    -- Stationary point found.
 Normal termination of Gaussian 16 at Thu Feb 25 17:09:07 2021.
