 Gaussian 16, Revision A.03,
 Gaussian 16:  ES64L-G16RevA.03 25-Dec-2016

 ----------------------------------------------------------------------
 # wB97XD def2tzvp, opt=(ts, noeigen, calcfc, maxcycles=70, maxstep=1),
  freq=noraman, scrf=(iefpcm, solvent=water)
 ----------------------------------------------------------------------

 ------------------------
 0_iteration/TS-868-0.out
 ------------------------
 Symbolic Z-matrix:
 Charge =  0 Multiplicity = 1

 SCF Done:  E(RwB97XD) =  -3435.56884957     A.U. after   15 cycles
 SCF Done:  E(RwB97XD) =  -3435.56879033     A.U. after   10 cycles
 SCF Done:  E(RwB97XD) =  -3435.56873574     A.U. after   10 cycles
 SCF Done:  E(RwB97XD) =  -3435.56868529     A.U. after   10 cycles
 SCF Done:  E(RwB97XD) =  -3435.56863943     A.U. after   10 cycles
 SCF Done:  E(RwB97XD) =  -3435.56859848     A.U. after   10 cycles
 SCF Done:  E(RwB97XD) =  -3435.56856269     A.U. after   10 cycles
 SCF Done:  E(RwB97XD) =  -3435.56853243     A.U. after   10 cycles
 SCF Done:  E(RwB97XD) =  -3435.56850812     A.U. after   10 cycles
 SCF Done:  E(RwB97XD) =  -3435.56849058     A.U. after   10 cycles
 SCF Done:  E(RwB97XD) =  -3435.56989325     A.U. after    9 cycles
 SCF Done:  E(RwB97XD) =  -3435.56990470     A.U. after    9 cycles
 SCF Done:  E(RwB97XD) =  -3435.56991319     A.U. after    9 cycles
 SCF Done:  E(RwB97XD) =  -3435.56992032     A.U. after    9 cycles
 SCF Done:  E(RwB97XD) =  -3435.56992551     A.U. after    9 cycles
 SCF Done:  E(RwB97XD) =  -3435.56992669     A.U. after    9 cycles
 SCF Done:  E(RwB97XD) =  -3435.56992694     A.U. after    8 cycles
 SCF Done:  E(RwB97XD) =  -3435.56992696     A.U. after    6 cycles
 SCF Done:  E(RwB97XD) =  -3435.56992695     A.U. after    6 cycles
 Optimization completed.
    -- Stationary point found.
 Normal termination of Gaussian 16 at Wed Feb 24 04:48:52 2021.

 ---------------------------------------------------------------------
 #N Geom=AllCheck Guess=TCheck SCRF=Check GenChk RwB97XD/def2TZVP Freq
 ---------------------------------------------------------------------

 Structure from the checkpoint file:  "/beegfs/scratch/user/q/tla25/Gau-32621.chk"
 ------------------------
 0_iteration/TS-868-0.out
 ------------------------
 Charge =  0 Multiplicity = 1

                         Standard orientation:
 ---------------------------------------------------------------------
 Center     Atomic      Atomic             Coordinates (Angstroms)
 Number     Number       Type             X           Y           Z
 ---------------------------------------------------------------------
      1          6           0        0.249500    0.010425   -0.285523
      2          6           0        1.308435    0.986144   -0.310555
      3          8           0        1.137871    2.167096   -0.578870
      4          6           0       -1.027643    0.446345   -0.566528
      5          6           0       -3.161837    1.851228    0.874296
      6          1           0       -3.507018    2.293888    1.809530
      7          1           0       -3.044938    2.639111    0.131327
      8          1           0       -3.905789    1.140181    0.521395
      9          7           0       -1.884378    1.162760    1.041927
     10          1           0       -1.163790    1.788050    1.383845
     11          1           0       -1.952964    0.382749    1.685685
     12         17           0       -2.267018   -0.672330   -1.076167
     13          1           0       -1.097625    1.392248   -1.085194
     14         35           0        0.562069   -1.737372    0.382287
     15          8           0        2.520825    0.490929   -0.020410
     16          6           0        3.600638    1.419263   -0.033847
     17          1           0        4.484771    0.845311    0.230219
     18          1           0        3.722231    1.859131   -1.023510
     19          1           0        3.438543    2.213026    0.695205
 ---------------------------------------------------------------------

 SCF Done:  E(RwB97XD) =  -3435.56992695     A.U. after    1 cycles

 The electronic state is 1-A.
 Alpha  occ. eigenvalues -- -483.12681-101.70913 -62.67514 -56.46629 -56.46276
 Alpha  occ. eigenvalues --  -56.46271 -19.29158 -19.22265 -14.48343 -10.41132
 Alpha  occ. eigenvalues --  -10.39632 -10.33042 -10.31873 -10.31567  -9.59489
 Alpha  occ. eigenvalues --   -8.81634  -7.34142  -7.33278  -7.33223  -6.63783
 Alpha  occ. eigenvalues --   -6.62648  -6.62635  -2.74175  -2.73838  -2.73828
 Alpha  occ. eigenvalues --   -2.72910  -2.72910  -1.20740  -1.11037  -1.04088
 Alpha  occ. eigenvalues --   -0.98467  -0.91706  -0.83969  -0.82177  -0.78761
 Alpha  occ. eigenvalues --   -0.71100  -0.64418  -0.63510  -0.61131  -0.57638
 Alpha  occ. eigenvalues --   -0.56904  -0.56293  -0.54504  -0.53517  -0.50806
 Alpha  occ. eigenvalues --   -0.49178  -0.48169  -0.47571  -0.46527  -0.44118
 Alpha  occ. eigenvalues --   -0.41437  -0.40030  -0.39298  -0.38677  -0.37713
 Alpha  occ. eigenvalues --   -0.35425  -0.28217
 Alpha virt. eigenvalues --    0.04116   0.06809   0.10034   0.12083   0.13554
 Alpha virt. eigenvalues --    0.14503   0.15596   0.16163   0.16907   0.17876
 Alpha virt. eigenvalues --    0.19457   0.19742   0.20714   0.20905   0.21751

 Mulliken charges:
               1
     1  C   -0.226086
     2  C    0.434367
     3  O   -0.500779
     4  C   -0.013018
     5  C   -0.270187
     6  H    0.152691
     7  H    0.151368
     8  H    0.149345
     9  N   -0.357439
    10  H    0.284212
    11  H    0.284522
    12  Cl  -0.079110
    13  H    0.191092
    14  Br  -0.117036
    15  O   -0.295827
    16  C   -0.193818
    17  H    0.142273
    18  H    0.132219
    19  H    0.131210
 Sum of Mulliken charges =  -0.00000

 Dipole moment (field-independent basis, Debye):
    X=             -4.1466    Y=              3.0944    Z=              3.8708  Tot=              6.4617
 Quadrupole moment (field-independent basis, Debye-Ang):
   XX=            -62.3002   YY=            -82.4007   ZZ=            -75.4938
   XY=             -5.8277   XZ=             -5.3906   YZ=              5.1606

  Exact polarizability: 192.066  -4.778 155.557  -3.407   0.377 118.328
 Approx polarizability: 141.114  -2.668 132.920  -0.669  -1.781 104.937

 ******    1 imaginary frequencies (negative Signs) ******

                      1                      2                      3
                      A                      A                      A
 Frequencies --   -350.8036                40.4221                60.4742
 Red. masses --      6.6534                 4.8069                 3.4255
 Frc consts  --      0.4824                 0.0046                 0.0074
 IR Inten    --    929.4441                 2.0074                 4.6770

                      4                      5                      6
                      A                      A                      A
 Frequencies --     73.9296                97.9979               125.3896
 Red. masses --      2.3801                 5.3890                 3.9555
 Frc consts  --      0.0077                 0.0305                 0.0366
 IR Inten    --      7.2675                 6.6438                 3.0325

                      7                      8                      9
                      A                      A                      A
 Frequencies --    143.4868               155.4457               173.3899
 Red. masses --      7.8768                 3.6580                 1.2867
 Frc consts  --      0.0955                 0.0521                 0.0228
 IR Inten    --      2.4674                 2.4185                 4.8431

                     10                     11                     12
                      A                      A                      A
 Frequencies --    174.3214               201.3497               272.7884
 Red. masses --      1.2419                 4.4893                 3.7577
 Frc consts  --      0.0222                 0.1072                 0.1648
 IR Inten    --      0.1898                22.1493                 7.8632

                     13                     14                     15
                      A                      A                      A
 Frequencies --    316.0394               350.1726               408.6475
 Red. masses --      4.5875                 5.8606                10.8739
 Frc consts  --      0.2700                 0.4234                 1.0699
 IR Inten    --     23.6985                 7.6193                23.0797

                     16                     17                     18
                      A                      A                      A
 Frequencies --    445.4094               585.7945               654.5308
 Red. masses --      7.0444                 2.7863                 1.9525
 Frc consts  --      0.8234                 0.5633                 0.4928
 IR Inten    --    173.2974                 6.0922                22.0730

                     19                     20                     21
                      A                      A                      A
 Frequencies --    743.1079               784.6652               834.9192
 Red. masses --      5.7096                10.9721                 4.4715
 Frc consts  --      1.8576                 3.9802                 1.8365
 IR Inten    --     56.1843                59.2892               138.8576

                     22                     23                     24
                      A                      A                      A
 Frequencies --    986.1530              1010.3789              1031.0752
 Red. masses --      3.7184                 1.1497                 1.1144
 Frc consts  --      2.1306                 0.6915                 0.6980
 IR Inten    --      8.4764                16.4327               111.0590

                     25                     26                     27
                      A                      A                      A
 Frequencies --   1071.3902              1108.6375              1137.0144
 Red. masses --      4.5524                 5.5243                 1.1658
 Frc consts  --      3.0788                 4.0005                 0.8880
 IR Inten    --    201.3685               250.5597                42.9864

                     28                     29                     30
                      A                      A                      A
 Frequencies --   1183.3478              1217.0749              1220.5088
 Red. masses --      1.2806                 1.4078                 1.5416
 Frc consts  --      1.0566                 1.2287                 1.3530
 IR Inten    --      1.6296                21.0700                80.9571

                     31                     32                     33
                      A                      A                      A
 Frequencies --   1235.7040              1320.9313              1345.1174
 Red. masses --      1.3243                 6.3310                 1.3242
 Frc consts  --      1.1914                 6.5085                 1.4117
 IR Inten    --     92.9901               904.9668                15.9012

                     34                     35                     36
                      A                      A                      A
 Frequencies --   1438.2106              1465.8172              1481.3404
 Red. masses --      3.9430                 1.2995                 1.1881
 Frc consts  --      4.8053                 1.6451                 1.5360
 IR Inten    --    817.8212                94.4076                98.3957

                     37                     38                     39
                      A                      A                      A
 Frequencies --   1483.7268              1492.1021              1497.0153
 Red. masses --      1.0712                 1.0404                 1.0741
 Frc consts  --      1.3894                 1.3647                 1.4182
 IR Inten    --     33.0870                16.4938                14.9198

                     40                     41                     42
                      A                      A                      A
 Frequencies --   1504.9569              1640.8444              1690.8977
 Red. masses --      1.0335                 1.0923                10.5658
 Frc consts  --      1.3792                 1.7327                17.7986
 IR Inten    --     10.8058                43.4251               530.6178

                     43                     44                     45
                      A                      A                      A
 Frequencies --   3066.8060              3067.3804              3142.9261
 Red. masses --      1.0341                 1.0309                 1.1045
 Frc consts  --      5.7304                 5.7148                 6.4280
 IR Inten    --     61.2179                44.1922                16.4428

                     46                     47                     48
                      A                      A                      A
 Frequencies --   3145.3039              3168.8631              3178.2629
 Red. masses --      1.1070                 1.1050                 1.1057
 Frc consts  --      6.4524                 6.5374                 6.5809
 IR Inten    --     33.8330                12.6507                22.2158

                     49                     50                     51
                      A                      A                      A
 Frequencies --   3219.0738              3523.7106              3607.5464
 Red. masses --      1.0908                 1.0505                 1.0967
 Frc consts  --      6.6597                 7.6853                 8.4096
 IR Inten    --      1.8152                26.2524                48.7543

 - Thermochemistry -
 -------------------
 Temperature   298.150 Kelvin.  Pressure   1.00000 Atm.
 Atom     1 has atomic number  6 and mass  12.00000

 Molecular mass:   228.95052 amu.
 Principal axes and moments of inertia in atomic units:
                           1         2         3
     Eigenvalues --  1977.588783122.165284399.15456
           X            0.99968   0.00168  -0.02522
           Y           -0.00083   0.99944   0.03343
           Z            0.02526  -0.03340   0.99912
 This molecule is an asymmetric top.
 Rotational symmetry number  1.
 Warning -- assumption of classical behavior for rotation
           may cause significant error
 Rotational temperatures (Kelvin)      0.04380     0.02774     0.01969
 Rotational constants (GHZ):           0.91260     0.57804     0.41025
    1 imaginary frequencies ignored.
 Zero-point vibrational energy     378764.0 (Joules/Mol)
                                   90.52677 (Kcal/Mol)
 Warning -- explicit consideration of  16 degrees of freedom as
           vibrations may cause significant error
 Vibrational temperatures:     58.16    87.01   106.37   141.00   180.41
          (Kelvin)            206.45   223.65   249.47   250.81   289.70
                              392.48   454.71   503.82   587.95   640.84
                              842.83   941.72  1069.17  1128.96  1201.26
                             1418.85  1453.71  1483.49  1541.49  1595.08
                             1635.91  1702.57  1751.10  1756.04  1777.90
                             1900.53  1935.32  2069.26  2108.98  2131.32
                             2134.75  2146.80  2153.87  2165.30  2360.81
                             2432.82  4412.45  4413.28  4521.97  4525.39
                             4559.29  4572.81  4631.53  5069.83  5190.45

 Zero-point correction=                           0.144264 (Hartree/Particle)
 Thermal correction to Energy=                    0.156669
 Thermal correction to Enthalpy=                  0.157613
 Thermal correction to Gibbs Free Energy=         0.103239
 Sum of electronic and zero-point Energies=          -3435.425663
 Sum of electronic and thermal Energies=             -3435.413258
 Sum of electronic and thermal Enthalpies=           -3435.412314
 Sum of electronic and thermal Free Energies=        -3435.466688

                     E (Thermal)             CV                S
                      KCal/Mol        Cal/Mol-Kelvin    Cal/Mol-Kelvin
 Total                   98.311             40.546            114.441
 Electronic               0.000              0.000              0.000
 Translational            0.889              2.981             42.187
 Rotational               0.889              2.981             31.674
 Vibrational             96.534             34.585             40.580
 Vibration     1          0.594              1.981              5.238
 Vibration     2          0.597              1.973              4.442
 Vibration     3          0.599              1.966              4.046
 Vibration     4          0.603              1.951              3.494
 Vibration     5          0.610              1.928              3.016
 Vibration     6          0.616              1.910              2.757
 Vibration     7          0.620              1.897              2.604
 Vibration     8          0.627              1.875              2.398
 Vibration     9          0.627              1.874              2.388
 Vibration    10          0.638              1.838              2.121
 Vibration    11          0.676              1.723              1.578
 Vibration    12          0.703              1.643              1.331
 Vibration    13          0.727              1.575              1.165
 Vibration    14          0.773              1.451              0.931
 Vibration    15          0.805              1.371              0.810
 Vibration    16          0.943              1.062              0.475

 Optimization completed.
    -- Stationary point found.
 Normal termination of Gaussian 16 at Wed Feb 24 05:00:52 2021.
