 Gaussian 16, Revision A.03,
 Gaussian 16:  ES64L-G16RevA.03 25-Dec-2016

 ----------------------------------------------------------------------
 # wB97XD def2tzvp, opt=(ts, noeigen, calcfc, maxcycles=70, maxstep=8),
  freq=noraman, scrf=(iefpcm, solvent=water)
 ----------------------------------------------------------------------

 ------------------------
 1_iteration/TS-847-1.out
 ------------------------
 Symbolic Z-matrix:
 Charge =  0 Multiplicity = 1

 SCF Done:  E(RwB97XD) =  -1264.88721604     A.U. after   14 cycles
 Optimization completed.
    -- Stationary point found.
 Normal termination of Gaussian 16 at Fri Feb 26 03:15:02 2021.

 ---------------------------------------------------------------------
 #N Geom=AllCheck Guess=TCheck SCRF=Check GenChk RwB97XD/def2TZVP Freq
 ---------------------------------------------------------------------

 Structure from the checkpoint file:  "/beegfs/scratch/user/q/tla25/Gau-30748.chk"
 ------------------------
 1_iteration/TS-847-1.out
 ------------------------
 Charge =  0 Multiplicity = 1

                         Standard orientation:
 ---------------------------------------------------------------------
 Center     Atomic      Atomic             Coordinates (Angstroms)
 Number     Number       Type             X           Y           Z
 ---------------------------------------------------------------------
      1          6           0        0.993471   -0.499110   -0.335930
      2          6           0       -0.391159   -0.928630   -0.354240
      3          8           0       -0.750719   -2.088490   -0.585020
      4          6           0        1.928131   -1.496900   -0.556170
      5          6           0        1.568451   -2.543000    1.973960
      6          1           0        1.961371   -2.780270    2.961590
      7          1           0        0.917271   -1.670590    2.042100
      8          1           0        0.987501   -3.380940    1.596610
      9          7           0        2.639131   -2.241140    1.030930
     10          1           0        3.287191   -1.554650    1.401820
     11          1           0        3.173941   -3.065550    0.781130
     12         17           0        3.473991   -1.081040   -1.320690
     13          1           0        1.547141   -2.435600   -0.933350
     14          6           0        1.388101    0.908070   -0.065050
     15          6           0        1.189781    1.902270   -1.026250
     16          6           0        1.553601    3.218570   -0.785010
     17          6           0        2.138241    3.568820    0.423960
     18          6           0        2.345891    2.595380    1.390130
     19          6           0        1.966471    1.282840    1.148760
     20          1           0        0.745311    1.630840   -1.976680
     21          1           0        1.388531    3.970690   -1.546460
     22          1           0        2.428151    4.594750    0.612590
     23          1           0        2.795711    2.859130    2.339230
     24          1           0        2.109751    0.540400    1.924620
     25          7           0       -1.311179    0.067430   -0.085980
     26          6           0       -2.704449    0.016340   -0.052020
     27          6           0       -3.455999   -1.143160   -0.254760
     28          6           0       -4.841849   -1.085850   -0.195380
     29          6           0       -5.505129    0.103320    0.062930
     30          6           0       -4.757839    1.256640    0.264850
     31          6           0       -3.377139    1.216050    0.207950
     32          1           0       -0.918379    0.975980    0.097200
     33          1           0       -2.950319   -2.072960   -0.455440
     34          1           0       -5.408099   -1.995540   -0.355060
     35          1           0       -6.585989    0.133620    0.106890
     36          1           0       -5.252349    2.198450    0.468010
     37          1           0       -2.805919    2.123970    0.366100
 ---------------------------------------------------------------------

 SCF Done:  E(RwB97XD) =  -1264.88721604     A.U. after    1 cycles

 The electronic state is 1-A.
 Alpha  occ. eigenvalues -- -101.69850 -19.20100 -14.49221 -14.45991 -10.38452
 Alpha  occ. eigenvalues --  -10.38326 -10.33682 -10.31810 -10.30186 -10.29099
 Alpha  occ. eigenvalues --  -10.29072 -10.29017 -10.28969 -10.28947 -10.28871
 Alpha  occ. eigenvalues --  -10.28784 -10.28689 -10.28109 -10.27996 -10.26415
 Alpha  occ. eigenvalues --   -9.58435  -7.33061  -7.32230  -7.32191  -1.13064
 Alpha  occ. eigenvalues --   -1.04817  -1.03691  -0.97600  -0.96018  -0.95254
 Alpha  occ. eigenvalues --   -0.88820  -0.85125  -0.84970  -0.84459  -0.82595
 Alpha  occ. eigenvalues --   -0.79245  -0.74596  -0.71518  -0.70832  -0.70350
 Alpha  occ. eigenvalues --   -0.67741  -0.65075  -0.63736  -0.62499  -0.61493
 Alpha  occ. eigenvalues --   -0.58816  -0.57721  -0.57458  -0.55515  -0.54539
 Alpha  occ. eigenvalues --   -0.53794  -0.53664  -0.52391  -0.51666  -0.51471
 Alpha  occ. eigenvalues --   -0.50861  -0.50718  -0.49929  -0.48407  -0.47822
 Alpha  occ. eigenvalues --   -0.46984  -0.46416  -0.46129  -0.44539  -0.43147
 Alpha  occ. eigenvalues --   -0.42786  -0.42614  -0.40006  -0.39425  -0.38828
 Alpha  occ. eigenvalues --   -0.34914  -0.33895  -0.33644  -0.32701  -0.30273
 Alpha  occ. eigenvalues --   -0.26848
 Alpha virt. eigenvalues --    0.03993   0.04849   0.05278   0.05523   0.08202
 Alpha virt. eigenvalues --    0.09651   0.10762   0.12156   0.13662   0.14104
 Alpha virt. eigenvalues --    0.14394   0.14729   0.15996   0.17033   0.17194

 Mulliken charges:
               1
     1  C   -0.229191
     2  C    0.397375
     3  O   -0.555233
     4  C    0.025426
     5  C   -0.292720
     6  H    0.164414
     7  H    0.152897
     8  H    0.158551
     9  N   -0.323745
    10  H    0.282688
    11  H    0.293444
    12  Cl  -0.125099
    13  H    0.185585
    14  C    0.074045
    15  C   -0.270536
    16  C   -0.121312
    17  C   -0.134248
    18  C   -0.172801
    19  C   -0.211811
    20  H    0.140767
    21  H    0.142422
    22  H    0.144266
    23  H    0.140446
    24  H    0.151079
    25  N   -0.256408
    26  C    0.294686
    27  C   -0.296612
    28  C   -0.113133
    29  C   -0.199460
    30  C   -0.100106
    31  C   -0.319526
    32  H    0.251077
    33  H    0.159615
    34  H    0.139947
    35  H    0.139566
    36  H    0.142202
    37  H    0.141444
 Sum of Mulliken charges =  -0.00000

 Dipole moment (field-independent basis, Debye):
    X=              5.7084    Y=             -0.1076    Z=              5.4540  Tot=              7.8958
 Quadrupole moment (field-independent basis, Debye-Ang):
   XX=           -116.5113   YY=           -107.4018   ZZ=           -121.6419
   XY=            -16.1319   XZ=             12.4790   YZ=             -9.2509

  Exact polarizability: 372.365  -9.719 331.170  12.792   0.487 239.527
 Approx polarizability: 272.813  -1.291 271.271  10.635   2.525 208.745

 ******    1 imaginary frequencies (negative Signs) ******

                      1                      2                      3
                      A                      A                      A
 Frequencies --   -373.6984                19.7734                27.1111
 Red. masses --      6.1883                 3.7018                 4.5377
 Frc consts  --      0.5092                 0.0009                 0.0020
 IR Inten    --   1051.0264                 2.0489                 2.3956

                      4                      5                      6
                      A                      A                      A
 Frequencies --     35.9768                51.1545                66.0556
 Red. masses --      4.6178                 5.4042                 4.1857
 Frc consts  --      0.0035                 0.0083                 0.0108
 IR Inten    --      2.1071                 0.6470                 3.7023

                      7                      8                      9
                      A                      A                      A
 Frequencies --     84.7484                90.8430               111.2962
 Red. masses --      5.6662                 6.7552                 4.7271
 Frc consts  --      0.0240                 0.0328                 0.0345
 IR Inten    --      6.0954                 4.8126                 7.9810

                     10                     11                     12
                      A                      A                      A
 Frequencies --    131.3591               177.1762               189.5064
 Red. masses --      2.8259                 4.5371                 4.7856
 Frc consts  --      0.0287                 0.0839                 0.1013
 IR Inten    --      9.6613                 7.9875                 6.8969

                     13                     14                     15
                      A                      A                      A
 Frequencies --    204.0267               230.1791               240.5194
 Red. masses --      1.1777                 4.2283                 5.3791
 Frc consts  --      0.0289                 0.1320                 0.1833
 IR Inten    --      1.0892                14.0927                 6.4112

                     16                     17                     18
                      A                      A                      A
 Frequencies --    247.5035               329.7666               341.4787
 Red. masses --      4.5769                 5.6665                 3.3773
 Frc consts  --      0.1652                 0.3631                 0.2320
 IR Inten    --      4.1393                44.6210                25.8415

                     19                     20                     21
                      A                      A                      A
 Frequencies --    368.7660               393.0698               422.4792
 Red. masses --      7.1031                 7.8664                 2.8816
 Frc consts  --      0.5691                 0.7161                 0.3030
 IR Inten    --     43.9372                18.7101                 0.2423

                     22                     23                     24
                      A                      A                      A
 Frequencies --    424.7591               448.3611               525.9031
 Red. masses --      3.0018                 4.4448                 2.6991
 Frc consts  --      0.3191                 0.5265                 0.4398
 IR Inten    --      0.0201                 4.3540                20.9059

                     25                     26                     27
                      A                      A                      A
 Frequencies --    548.1135               571.3246               580.6380
 Red. masses --      2.9520                 3.7081                 1.2665
 Frc consts  --      0.5225                 0.7131                 0.2516
 IR Inten    --     21.5278                95.7915                92.1277

                     28                     29                     30
                      A                      A                      A
 Frequencies --    603.9565               636.3948               639.6429
 Red. masses --      4.6076                 6.1859                 6.3676
 Frc consts  --      0.9902                 1.4761                 1.5350
 IR Inten    --     25.4919                 1.9946                 1.1847

                     31                     32                     33
                      A                      A                      A
 Frequencies --    686.8504               719.8415               727.6573
 Red. masses --      2.9723                 1.8805                 2.5017
 Frc consts  --      0.8262                 0.5741                 0.7804
 IR Inten    --     10.0956                62.7971               263.0049

                     34                     35                     36
                      A                      A                      A
 Frequencies --    731.2383               758.5841               783.4711
 Red. masses --      2.0195                 3.5493                 1.8166
 Frc consts  --      0.6362                 1.2034                 0.6570
 IR Inten    --      3.2828                30.9515                76.0629

                     37                     38                     39
                      A                      A                      A
 Frequencies --    794.0945               810.6190               862.0575
 Red. masses --      4.8460                 2.6149                 1.2728
 Frc consts  --      1.8004                 1.0124                 0.5573
 IR Inten    --     73.3513                 5.1065                 1.7646

                     40                     41                     42
                      A                      A                      A
 Frequencies --    869.7131               878.5011               880.7817
 Red. masses --      4.4874                 4.4435                 1.3129
 Frc consts  --      1.9998                 2.0205                 0.6001
 IR Inten    --    127.9233                 4.2389                 0.5270

                     43                     44                     45
                      A                      A                      A
 Frequencies --    932.2491               958.7927              1000.7037
 Red. masses --      1.4667                 1.4731                 1.3437
 Frc consts  --      0.7511                 0.7979                 0.7928
 IR Inten    --     13.9991                 2.2491                 0.0449

                     46                     47                     48
                      A                      A                      A
 Frequencies --   1006.8842              1013.9221              1015.9875
 Red. masses --      1.1140                 1.3971                 1.2811
 Frc consts  --      0.6654                 0.8463                 0.7791
 IR Inten    --     13.7772                 1.4605                 0.9237

                     49                     50                     51
                      A                      A                      A
 Frequencies --   1019.4491              1026.3114              1030.1816
 Red. masses --      5.7970                 5.0575                 1.3231
 Frc consts  --      3.5497                 3.1386                 0.8273
 IR Inten    --      7.7064                 0.4754                 2.9333

                     52                     53                     54
                      A                      A                      A
 Frequencies --   1035.0026              1049.4072              1061.7367
 Red. masses --      1.1656                 3.7422                 2.1409
 Frc consts  --      0.7357                 2.4281                 1.4219
 IR Inten    --     78.9226                15.1988                23.5344

                     55                     56                     57
                      A                      A                      A
 Frequencies --   1073.8603              1083.1549              1111.0597
 Red. masses --      2.0817                 4.9280                 1.5635
 Frc consts  --      1.4144                 3.4065                 1.1372
 IR Inten    --     16.9388                47.4342                24.6804

                     58                     59                     60
                      A                      A                      A
 Frequencies --   1121.3148              1158.1557              1181.2198
 Red. masses --      1.5598                 1.4048                 1.1303
 Frc consts  --      1.1555                 1.1102                 0.9292
 IR Inten    --     16.8524               133.1919                 4.2866

                     61                     62                     63
                      A                      A                      A
 Frequencies --   1182.7524              1189.4379              1208.3272
 Red. masses --      1.1362                 1.4388                 1.1437
 Frc consts  --      0.9364                 1.1993                 0.9838
 IR Inten    --      0.8412                43.9383                39.9269

                     64                     65                     66
                      A                      A                      A
 Frequencies --   1208.7412              1225.6038              1251.0075
 Red. masses --      1.1248                 1.3890                 2.2268
 Frc consts  --      0.9683                 1.2293                 2.0533
 IR Inten    --      3.5046                29.4651               540.7027

                     67                     68                     69
                      A                      A                      A
 Frequencies --   1277.2688              1305.2334              1340.8938
 Red. masses --      2.6252                 4.2680                 1.3371
 Frc consts  --      2.5233                 4.2840                 1.4165
 IR Inten    --    163.8822                27.2853                 2.0024

                     70                     71                     72
                      A                      A                      A
 Frequencies --   1344.0442              1349.7257              1359.1864
 Red. masses --      3.5813                 2.0873                 1.5813
 Frc consts  --      3.8117                 2.2404                 1.7211
 IR Inten    --    723.3664               138.1292                26.4008

                     73                     74                     75
                      A                      A                      A
 Frequencies --   1365.5904              1436.8841              1469.3410
 Red. masses --      1.8835                 3.1228                 1.3772
 Frc consts  --      2.0695                 3.7987                 1.7518
 IR Inten    --    207.8213               449.8489               111.9941

                     76                     77                     78
                      A                      A                      A
 Frequencies --   1476.7360              1487.7525              1495.1295
 Red. masses --      2.1105                 2.2365                 1.0421
 Frc consts  --      2.7117                 2.9166                 1.3725
 IR Inten    --    328.3107                40.7471                12.3708

                     79                     80                     81
                      A                      A                      A
 Frequencies --   1505.6950              1545.6272              1546.9313
 Red. masses --      1.0398                 2.4645                 2.5357
 Frc consts  --      1.3890                 3.4688                 3.5751
 IR Inten    --     23.6382               229.7763                71.8708

                     82                     83                     84
                      A                      A                      A
 Frequencies --   1564.8092              1642.9033              1652.3118
 Red. masses --      2.0548                 5.1083                 1.1172
 Frc consts  --      2.9644                 8.1236                 1.7971
 IR Inten    --    622.6763                 7.1119                77.6919

                     85                     86                     87
                      A                      A                      A
 Frequencies --   1656.9811              1669.1281              1672.1026
 Red. masses --      6.2921                 4.2989                 5.9294
 Frc consts  --     10.1784                 7.0565                 9.7676
 IR Inten    --    151.7981               165.6071                22.0193

                     88                     89                     90
                      A                      A                      A
 Frequencies --   1683.0515              3071.2508              3148.3898
 Red. masses --      6.3122                 1.0336                 1.1040
 Frc consts  --     10.5349                 5.7440                 6.4477
 IR Inten    --    559.7318                28.2485                11.3887

                     91                     92                     93
                      A                      A                      A
 Frequencies --   3176.0889              3185.4751              3189.6899
 Red. masses --      1.1056                 1.0880                 1.0862
 Frc consts  --      6.5713                 6.5046                 6.5111
 IR Inten    --     10.4707                14.7309                 8.1500

                     94                     95                     96
                      A                      A                      A
 Frequencies --   3192.2524              3195.4296              3202.2475
 Red. masses --      1.0880                 1.0882                 1.0911
 Frc consts  --      6.5324                 6.5468                 6.5921
 IR Inten    --      4.5336                 3.3232                12.8417

                     97                     98                     99
                      A                      A                      A
 Frequencies --   3205.3099              3209.7632              3219.6693
 Red. masses --      1.0930                 1.0950                 1.0907
 Frc consts  --      6.6165                 6.6468                 6.6618
 IR Inten    --     30.8922                46.8543                 4.8699

                    100                    101                    102
                      A                      A                      A
 Frequencies --   3220.9561              3221.0075              3271.1917
 Red. masses --      1.0985                 1.0982                 1.0924
 Frc consts  --      6.7145                 6.7129                 6.8872
 IR Inten    --     21.5374                19.6518                 6.5286

                    103                    104                    105
                      A                      A                      A
 Frequencies --   3517.1149              3600.8883              3633.3880
 Red. masses --      1.0509                 1.0967                 1.0763
 Frc consts  --      7.6591                 8.3782                 8.3715
 IR Inten    --     55.1429                53.2408               109.8322

 - Thermochemistry -
 -------------------
 Temperature   298.150 Kelvin.  Pressure   1.00000 Atm.
 Atom     1 has atomic number  6 and mass  12.00000

 Molecular mass:   288.10294 amu.
 Principal axes and moments of inertia in atomic units:
                           1         2         3
     Eigenvalues --  4061.947529154.68773**********
           X            0.99992   0.00001   0.01259
           Y            0.00029   0.99972  -0.02359
           Z           -0.01259   0.02359   0.99964
 This molecule is an asymmetric top.
 Rotational symmetry number  1.
 Warning -- assumption of classical behavior for rotation
           may cause significant error
 Rotational temperatures (Kelvin)      0.02132     0.00946     0.00750
 Rotational constants (GHZ):           0.44430     0.19714     0.15626
    1 imaginary frequencies ignored.
 Zero-point vibrational energy     793710.3 (Joules/Mol)
                                  189.70131 (Kcal/Mol)
 Warning -- explicit consideration of  27 degrees of freedom as
           vibrations may cause significant error
 Vibrational temperatures:     28.45    39.01    51.76    73.60    95.04
          (Kelvin)            121.93   130.70   160.13   189.00   254.92
                              272.66   293.55   331.18   346.05   356.10
                              474.46   491.31   530.57   565.54   607.85
                              611.13   645.09   756.66   788.61   822.01
                              835.41   868.96   915.63   920.30   988.22
                             1035.69  1046.94  1052.09  1091.43  1127.24
                             1142.52  1166.30  1240.31  1251.32  1263.97
                             1267.25  1341.30  1379.49  1439.79  1448.68
                             1458.81  1461.78  1466.76  1476.63  1482.20
                             1489.14  1509.86  1527.60  1545.05  1558.42
                             1598.57  1613.32  1666.33  1699.51  1701.72
                             1711.34  1738.51  1739.11  1763.37  1799.92
                             1837.70  1877.94  1929.25  1933.78  1941.95
                             1955.57  1964.78  2067.36  2114.05  2124.69
                             2140.54  2151.16  2166.36  2223.81  2225.69
                             2251.41  2363.77  2377.31  2384.03  2401.50
                             2405.78  2421.54  4418.84  4529.83  4569.68
                             4583.19  4589.25  4592.94  4597.51  4607.32
                             4611.73  4618.13  4632.39  4634.24  4634.31
                             4706.52  5060.34  5180.88  5227.63

 Zero-point correction=                           0.302308 (Hartree/Particle)
 Thermal correction to Energy=                    0.320780
 Thermal correction to Enthalpy=                  0.321724
 Thermal correction to Gibbs Free Energy=         0.252706
 Sum of electronic and zero-point Energies=          -1264.584908
 Sum of electronic and thermal Energies=             -1264.566436
 Sum of electronic and thermal Enthalpies=           -1264.565492
 Sum of electronic and thermal Free Energies=        -1264.634510

                     E (Thermal)             CV                S
                      KCal/Mol        Cal/Mol-Kelvin    Cal/Mol-Kelvin
 Total                  201.293             69.451            145.261
 Electronic               0.000              0.000              0.000
 Translational            0.889              2.981             42.872
 Rotational               0.889              2.981             34.417
 Vibrational            199.515             63.489             67.971
 Vibration     1          0.593              1.986              6.657
 Vibration     2          0.593              1.984              6.030
 Vibration     3          0.594              1.982              5.469
 Vibration     4          0.595              1.977              4.772
 Vibration     5          0.597              1.970              4.268
 Vibration     6          0.601              1.960              3.778
 Vibration     7          0.602              1.956              3.642
 Vibration     8          0.607              1.940              3.246
 Vibration     9          0.612              1.922              2.926
 Vibration    10          0.628              1.870              2.358
 Vibration    11          0.633              1.854              2.233
 Vibration    12          0.640              1.834              2.096
 Vibration    13          0.652              1.795              1.878
 Vibration    14          0.658              1.778              1.799
 Vibration    15          0.661              1.767              1.748
 Vibration    16          0.713              1.616              1.261
 Vibration    17          0.721              1.593              1.205
 Vibration    18          0.741              1.536              1.085
 Vibration    19          0.760              1.485              0.988
 Vibration    20          0.785              1.421              0.884
 Vibration    21          0.787              1.416              0.876
 Vibration    22          0.807              1.365              0.801
 Vibration    23          0.881              1.193              0.596
 Vibration    24          0.903              1.144              0.548
 Vibration    25          0.927              1.093              0.502
 Vibration    26          0.937              1.073              0.484
 Vibration    27          0.962              1.023              0.443

 Optimization completed.
    -- Stationary point found.
 Normal termination of Gaussian 16 at Fri Feb 26 05:18:16 2021.
