 Gaussian 16, Revision A.03,
 Gaussian 16:  ES64L-G16RevA.03 25-Dec-2016

 ----------------------------------------------------------------------
 # wB97XD def2tzvp, opt=(ts, noeigen, calcfc, maxcycles=70, maxstep=1),
  freq=noraman, scrf=(iefpcm, solvent=water)
 ----------------------------------------------------------------------

 ------------------------
 0_iteration/TS-843-0.out
 ------------------------
 Symbolic Z-matrix:
 Charge =  0 Multiplicity = 1

 SCF Done:  E(RwB97XD) =  -1033.84019115     A.U. after   14 cycles
 SCF Done:  E(RwB97XD) =  -1033.84019089     A.U. after   10 cycles
 SCF Done:  E(RwB97XD) =  -1033.84019229     A.U. after    8 cycles
 SCF Done:  E(RwB97XD) =  -1033.84019766     A.U. after    9 cycles
 SCF Done:  E(RwB97XD) =  -1033.84021112     A.U. after   10 cycles
 SCF Done:  E(RwB97XD) =  -1033.84022467     A.U. after   10 cycles
 SCF Done:  E(RwB97XD) =  -1033.84023563     A.U. after   10 cycles
 SCF Done:  E(RwB97XD) =  -1033.84024295     A.U. after   10 cycles
 SCF Done:  E(RwB97XD) =  -1033.84024613     A.U. after   10 cycles
 SCF Done:  E(RwB97XD) =  -1033.84024619     A.U. after    8 cycles
 SCF Done:  E(RwB97XD) =  -1033.84024620     A.U. after    6 cycles
 Optimization completed.
    -- Stationary point found.
 Normal termination of Gaussian 16 at Wed Feb 24 04:54:04 2021.

 ---------------------------------------------------------------------
 #N Geom=AllCheck Guess=TCheck SCRF=Check GenChk RwB97XD/def2TZVP Freq
 ---------------------------------------------------------------------

 Structure from the checkpoint file:  "/beegfs/scratch/user/q/tla25/Gau-19230.chk"
 ------------------------
 0_iteration/TS-843-0.out
 ------------------------
 Charge =  0 Multiplicity = 1

                         Standard orientation:
 ---------------------------------------------------------------------
 Center     Atomic      Atomic             Coordinates (Angstroms)
 Number     Number       Type             X           Y           Z
 ---------------------------------------------------------------------
      1          6           0       -0.491804    0.505326   -0.297443
      2          6           0       -1.005336    1.860219   -0.228889
      3          8           0       -2.183934    2.166598   -0.471386
      4          6           0       -1.428731   -0.464259   -0.620643
      5          6           0       -2.503732   -0.388595    1.911903
      6          1           0       -3.335044    0.233002    1.588683
      7          1           0       -2.758839   -0.895308    2.841360
      8          1           0       -1.633696    0.249754    2.070128
      9          7           0       -2.184072   -1.343001    0.855754
     10          1           0       -3.004651   -1.841652    0.529656
     11          1           0       -1.509018   -2.034767    1.162764
     12         17           0       -0.907881   -1.916210   -1.506109
     13          1           0       -2.370952   -0.097257   -1.002997
     14          6           0        0.927119    0.179641   -0.015419
     15          6           0        1.951866    0.675593   -0.826911
     16          6           0        3.280941    0.367966   -0.579959
     17          6           0        3.620811   -0.461129    0.480240
     18          6           0        2.619109   -0.968463    1.294351
     19          6           0        1.292272   -0.642934    1.052557
     20          1           0        1.694930    1.308717   -1.667822
     21          1           0        4.053406    0.767096   -1.225803
     22          1           0        4.657542   -0.708440    0.670494
     23          1           0        2.870363   -1.611774    2.128616
     24          1           0        0.529744   -1.026242    1.719406
     25          7           0       -0.120948    2.848748    0.106628
     26          1           0        0.778345    2.626114    0.493493
     27          1           0       -0.506632    3.753128    0.311570
 ---------------------------------------------------------------------

 SCF Done:  E(RwB97XD) =  -1033.84024620     A.U. after    1 cycles

 The electronic state is 1-A.
 Alpha  occ. eigenvalues -- -101.69681 -19.19312 -14.49413 -14.43319 -10.38282
 Alpha  occ. eigenvalues --  -10.37476 -10.31828 -10.29962 -10.28876 -10.28841
 Alpha  occ. eigenvalues --  -10.28745 -10.28681 -10.28535 -10.25991  -9.58268
 Alpha  occ. eigenvalues --   -7.32890  -7.32063  -7.32026  -1.11861  -1.04973
 Alpha  occ. eigenvalues --   -0.98920  -0.97105  -0.95712  -0.88083  -0.84854
 Alpha  occ. eigenvalues --   -0.82553  -0.79317  -0.73011  -0.70283  -0.69505
 Alpha  occ. eigenvalues --   -0.65081  -0.63455  -0.61866  -0.60314  -0.57802
 Alpha  occ. eigenvalues --   -0.56906  -0.55215  -0.54244  -0.53516  -0.51313
 Alpha  occ. eigenvalues --   -0.50640  -0.50160  -0.48754  -0.48200  -0.47383
 Alpha  occ. eigenvalues --   -0.46646  -0.46204  -0.42855  -0.42533  -0.39863
 Alpha  occ. eigenvalues --   -0.38862  -0.34932  -0.34553  -0.33517  -0.32738
 Alpha  occ. eigenvalues --   -0.26879
 Alpha virt. eigenvalues --    0.05050   0.05266   0.06877   0.09524   0.10570
 Alpha virt. eigenvalues --    0.12525   0.13783   0.14779   0.15269   0.16609
 Alpha virt. eigenvalues --    0.17178   0.17518   0.17847   0.18792   0.19441

 Mulliken charges:
               1
     1  C   -0.215171
     2  C    0.305956
     3  O   -0.556611
     4  C    0.017980
     5  C   -0.293589
     6  H    0.158517
     7  H    0.165127
     8  H    0.156379
     9  N   -0.315992
    10  H    0.294330
    11  H    0.280238
    12  Cl  -0.133948
    13  H    0.184908
    14  C    0.134749
    15  C   -0.283008
    16  C   -0.112763
    17  C   -0.153415
    18  C   -0.163119
    19  C   -0.234670
    20  H    0.138936
    21  H    0.140644
    22  H    0.142275
    23  H    0.139155
    24  H    0.142009
    25  N   -0.473525
    26  H    0.275252
    27  H    0.259357
 Sum of Mulliken charges =  -0.00000

 Dipole moment (field-independent basis, Debye):
    X=             -0.3142    Y=             -4.3397    Z=              5.8736  Tot=              7.3097
 Quadrupole moment (field-independent basis, Debye-Ang):
   XX=            -81.1195   YY=            -88.1091   ZZ=            -87.0045
   XY=             18.0506   XZ=             -9.1397   YZ=             -3.3941

  Exact polarizability: 240.642   5.523 210.981  -5.105 -18.569 179.713
 Approx polarizability: 190.971   2.036 171.128  -3.004 -15.846 154.315

 ******    1 imaginary frequencies (negative Signs) ******

                      1                      2                      3
                      A                      A                      A
 Frequencies --   -371.4402                22.3971                55.3136
 Red. masses --      5.9314                 3.7988                 3.4413
 Frc consts  --      0.4822                 0.0011                 0.0062
 IR Inten    --    909.7992                 4.2655                 4.5991

                      4                      5                      6
                      A                      A                      A
 Frequencies --     73.8500                85.7303               102.0195
 Red. masses --      6.1774                 5.5858                 3.9211
 Frc consts  --      0.0198                 0.0242                 0.0240
 IR Inten    --      1.0649                16.3412                 0.9702

                      7                      8                      9
                      A                      A                      A
 Frequencies --    128.0211               149.9415               160.9952
 Red. masses --      2.5541                 1.3202                 3.5010
 Frc consts  --      0.0247                 0.0175                 0.0535
 IR Inten    --     19.0457                 5.4988                10.5909

                     10                     11                     12
                      A                      A                      A
 Frequencies --    189.2256               237.3343               253.7846
 Red. masses --      4.1139                 5.0759                 1.2899
 Frc consts  --      0.0868                 0.1685                 0.0489
 IR Inten    --      5.6009                25.1327               306.5770

                     13                     14                     15
                      A                      A                      A
 Frequencies --    307.1982               333.6181               372.4901
 Red. masses --      4.2083                 3.4196                 8.3570
 Frc consts  --      0.2340                 0.2242                 0.6832
 IR Inten    --     13.3053                10.2283                41.9544

                     16                     17                     18
                      A                      A                      A
 Frequencies --    388.7848               422.4916               476.7965
 Red. masses --      4.9791                 2.8778                 3.7048
 Frc consts  --      0.4434                 0.3027                 0.4962
 IR Inten    --     23.9515                 0.4727                30.6612

                     19                     20                     21
                      A                      A                      A
 Frequencies --    507.1890               564.8969               585.7803
 Red. masses --      1.2716                 2.2049                 3.0329
 Frc consts  --      0.1927                 0.4145                 0.6132
 IR Inten    --     24.2557                22.3605                43.7812

                     22                     23                     24
                      A                      A                      A
 Frequencies --    623.6362               641.2014               696.8857
 Red. masses --      4.2371                 5.8728                 2.6538
 Frc consts  --      0.9709                 1.4226                 0.7594
 IR Inten    --     85.5946                 6.5127                53.8921

                     25                     26                     27
                      A                      A                      A
 Frequencies --    727.6800               754.8519               788.4995
 Red. masses --      1.5570                 2.8924                 4.4958
 Frc consts  --      0.4858                 0.9710                 1.6469
 IR Inten    --     77.7066                 9.7247                79.5497

                     28                     29                     30
                      A                      A                      A
 Frequencies --    805.1938               821.7914               876.8405
 Red. masses --      2.4867                 5.0487                 1.2486
 Frc consts  --      0.9499                 2.0089                 0.5656
 IR Inten    --     45.4394               125.7567                 1.1526

                     31                     32                     33
                      A                      A                      A
 Frequencies --    950.1850              1005.1801              1011.2501
 Red. masses --      1.4569                 1.1884                 1.3645
 Frc consts  --      0.7750                 0.7075                 0.8221
 IR Inten    --      2.3963                15.9643                 2.7648

                     34                     35                     36
                      A                      A                      A
 Frequencies --   1025.3012              1027.0164              1037.9890
 Red. masses --      3.2609                 1.5768                 1.1958
 Frc consts  --      2.0197                 0.9799                 0.7591
 IR Inten    --      0.2500                 0.2085                63.7247

                     37                     38                     39
                      A                      A                      A
 Frequencies --   1045.7949              1069.8529              1081.9805
 Red. masses --      3.0508                 1.9737                 4.8454
 Frc consts  --      1.9659                 1.3310                 3.3421
 IR Inten    --     10.3006                 7.6229                49.6923

                     40                     41                     42
                      A                      A                      A
 Frequencies --   1092.4819              1112.4604              1166.2755
 Red. masses --      1.7985                 1.5718                 1.3428
 Frc consts  --      1.2647                 1.1461                 1.0761
 IR Inten    --     25.9982                22.4312                89.8371

                     43                     44                     45
                      A                      A                      A
 Frequencies --   1181.7586              1202.0078              1209.1685
 Red. masses --      1.1303                 1.3897                 1.1259
 Frc consts  --      0.9301                 1.1830                 0.9699
 IR Inten    --      0.2654                35.4174                 0.1071

                     46                     47                     48
                      A                      A                      A
 Frequencies --   1226.7092              1304.5058              1328.1571
 Red. masses --      1.3786                 3.9169                 2.1475
 Frc consts  --      1.2223                 3.9272                 2.2319
 IR Inten    --     39.4772                32.8119                14.5877

                     49                     50                     51
                      A                      A                      A
 Frequencies --   1341.0150              1355.9333              1391.9842
 Red. masses --      1.3248                 1.5787                 3.5062
 Frc consts  --      1.4036                 1.7101                 4.0027
 IR Inten    --      0.6220                80.0655               827.6107

                     52                     53                     54
                      A                      A                      A
 Frequencies --   1427.8601              1460.9987              1487.9401
 Red. masses --      3.4636                 1.3449                 1.2150
 Frc consts  --      4.1606                 1.6914                 1.5849
 IR Inten    --    353.9573                75.9674                18.3426

                     55                     56                     57
                      A                      A                      A
 Frequencies --   1489.1626              1499.9390              1545.8811
 Red. masses --      1.7297                 1.0453                 2.4870
 Frc consts  --      2.2600                 1.3856                 3.5017
 IR Inten    --     37.9894                18.0330                37.3851

                     58                     59                     60
                      A                      A                      A
 Frequencies --   1607.4663              1641.5495              1649.1847
 Red. masses --      1.4126                 4.5296                 1.2961
 Frc consts  --      2.1505                 7.1914                 2.0770
 IR Inten    --    351.7421                46.9391               190.3757

                     61                     62                     63
                      A                      A                      A
 Frequencies --   1652.3673              1671.9849              3071.2084
 Red. masses --      3.0281                 5.9151                 1.0340
 Frc consts  --      4.8711                 9.7426                 5.7465
 IR Inten    --    587.1801                 3.3408                28.9386

                     64                     65                     66
                      A                      A                      A
 Frequencies --   3148.9753              3179.0936              3189.3195
 Red. masses --      1.1042                 1.1052                 1.0855
 Frc consts  --      6.4511                 6.5812                 6.5057
 IR Inten    --      8.7927                 8.8408                 7.0359

                     67                     68                     69
                      A                      A                      A
 Frequencies --   3194.0872              3203.3453              3209.5002
 Red. masses --      1.0875                 1.0914                 1.0949
 Frc consts  --      6.5367                 6.5985                 6.6453
 IR Inten    --      1.3440                19.7828                57.6450

                     70                     71                     72
                      A                      A                      A
 Frequencies --   3218.8873              3219.9952              3517.6749
 Red. masses --      1.0905                 1.0987                 1.0510
 Frc consts  --      6.6574                 6.7120                 7.6622
 IR Inten    --      3.6914                15.1699                47.4711

                     73                     74                     75
                      A                      A                      A
 Frequencies --   3599.7563              3621.4350              3746.2102
 Red. masses --      1.0966                 1.0456                 1.1042
 Frc consts  --      8.3720                 8.0792                 9.1300
 IR Inten    --     53.2812                62.5184                83.7275

 - Thermochemistry -
 -------------------
 Temperature   298.150 Kelvin.  Pressure   1.00000 Atm.
 Atom     1 has atomic number  6 and mass  12.00000

 Molecular mass:   212.07164 amu.
 Principal axes and moments of inertia in atomic units:
                           1         2         3
     Eigenvalues --  2410.099863721.089514557.34033
           X            0.99956   0.01194  -0.02726
           Y           -0.01354   0.99813  -0.05965
           Z            0.02650   0.05999   0.99785
 This molecule is an asymmetric top.
 Rotational symmetry number  1.
 Warning -- assumption of classical behavior for rotation
           may cause significant error
 Rotational temperatures (Kelvin)      0.03594     0.02328     0.01901
 Rotational constants (GHZ):           0.74882     0.48500     0.39601
    1 imaginary frequencies ignored.
 Zero-point vibrational energy     577648.4 (Joules/Mol)
                                  138.06128 (Kcal/Mol)
 Warning -- explicit consideration of  20 degrees of freedom as
           vibrations may cause significant error
 Vibrational temperatures:     32.22    79.58   106.25   123.35   146.78
          (Kelvin)            184.19   215.73   231.64   272.25   341.47
                              365.14   441.99   480.00   535.93   559.37
                              607.87   686.00   729.73   812.76   842.81
                              897.27   922.55  1002.66  1046.97  1086.06
                             1134.47  1158.49  1182.37  1261.58  1367.10
                             1446.23  1454.96  1475.18  1477.65  1493.43
                             1504.67  1539.28  1556.73  1571.84  1600.58
                             1678.01  1700.29  1729.42  1739.72  1764.96
                             1876.89  1910.92  1929.42  1950.89  2002.75
                             2054.37  2102.05  2140.81  2142.57  2158.08
                             2224.18  2312.79  2361.82  2372.81  2377.39
                             2405.61  4418.78  4530.67  4574.01  4588.72
                             4595.58  4608.90  4617.75  4631.26  4632.85
                             5061.15  5179.25  5210.44  5389.96

 Zero-point correction=                           0.220015 (Hartree/Particle)
 Thermal correction to Energy=                    0.234315
 Thermal correction to Enthalpy=                  0.235259
 Thermal correction to Gibbs Free Energy=         0.177357
 Sum of electronic and zero-point Energies=          -1033.620232
 Sum of electronic and thermal Energies=             -1033.605932
 Sum of electronic and thermal Enthalpies=           -1033.604987
 Sum of electronic and thermal Free Energies=        -1033.662889

                     E (Thermal)             CV                S
                      KCal/Mol        Cal/Mol-Kelvin    Cal/Mol-Kelvin
 Total                  147.035             52.129            121.865
 Electronic               0.000              0.000              0.000
 Translational            0.889              2.981             41.959
 Rotational               0.889              2.981             32.080
 Vibrational            145.257             46.167             47.826
 Vibration     1          0.593              1.985              6.409
 Vibration     2          0.596              1.975              4.618
 Vibration     3          0.599              1.966              4.048
 Vibration     4          0.601              1.959              3.755
 Vibration     5          0.604              1.948              3.415
 Vibration     6          0.611              1.925              2.976
 Vibration     7          0.618              1.903              2.673
 Vibration     8          0.622              1.890              2.538
 Vibration     9          0.633              1.855              2.235
 Vibration    10          0.656              1.784              1.823
 Vibration    11          0.665              1.756              1.704
 Vibration    12          0.697              1.660              1.377
 Vibration    13          0.715              1.608              1.243
 Vibration    14          0.744              1.529              1.070
 Vibration    15          0.757              1.494              1.005
 Vibration    16          0.785              1.421              0.884
 Vibration    17          0.833              1.302              0.719
 Vibration    18          0.862              1.234              0.640
 Vibration    19          0.921              1.107              0.514
 Vibration    20          0.943              1.062              0.475

 Optimization completed.
    -- Stationary point found.
 Normal termination of Gaussian 16 at Wed Feb 24 05:40:53 2021.
