 Gaussian 16, Revision A.03,
 Gaussian 16:  ES64L-G16RevA.03 25-Dec-2016

 ----------------------------------------------------------------------
 # wB97XD def2tzvp, opt=(ts, noeigen, calcfc, maxcycles=70, maxstep=5),
  freq=noraman, scrf=(iefpcm, solvent=water)
 ----------------------------------------------------------------------

 ------------------------
 2_iteration/TS-808-2.out
 ------------------------
 Symbolic Z-matrix:
 Charge =  0 Multiplicity = 1

 SCF Done:  E(RwB97XD) =  -1440.54552014     A.U. after   15 cycles
 SCF Done:  E(RwB97XD) =  -1440.54552849     A.U. after   10 cycles
 SCF Done:  E(RwB97XD) =  -1440.54552851     A.U. after    6 cycles
 Optimization completed.
    -- Stationary point found.
 Normal termination of Gaussian 16 at Sun Jun 13 12:52:47 2021.

 ---------------------------------------------------------------------
 #N Geom=AllCheck Guess=TCheck SCRF=Check GenChk RwB97XD/def2TZVP Freq
 ---------------------------------------------------------------------

 Structure from the checkpoint file:  "/beegfs/scratch/user/q/tla25/Gau-189763.chk"
 ------------------------
 2_iteration/TS-808-2.out
 ------------------------
 Charge =  0 Multiplicity = 1

                         Standard orientation:
 ---------------------------------------------------------------------
 Center     Atomic      Atomic             Coordinates (Angstroms)
 Number     Number       Type             X           Y           Z
 ---------------------------------------------------------------------
      1          6           0       -0.042703    0.167066   -0.120947
      2          6           0       -0.384373   -1.226076   -0.285958
      3          8           0        0.366043   -2.126473   -0.669143
      4          6           0        1.283549    0.618479   -0.158271
      5          6           0        3.006551    2.037730    1.773525
      6          1           0        3.054634    2.611644    2.699424
      7          1           0        3.669124    1.178588    1.848323
      8          1           0        3.327747    2.666687    0.945723
      9          7           0        1.643885    1.574755    1.514436
     10          1           0        1.317764    0.943942    2.238273
     11          1           0        0.997902    2.354999    1.469316
     12         17           0        1.571561    2.080184   -1.187918
     13          6           0        2.446127   -0.319922   -0.142805
     14          6           0        3.380201   -0.361391   -1.167438
     15          6           0        4.441180   -1.256995   -1.117069
     16          6           0        4.588388   -2.105679   -0.034168
     17          6           0        3.661746   -2.061522    1.001474
     18          6           0        2.601277   -1.179783    0.944331
     19          1           0        3.281683    0.297905   -2.017961
     20          1           0        5.156210   -1.281334   -1.929392
     21          1           0        5.420996   -2.796099    0.009339
     22          1           0        3.766717   -2.719196    1.854754
     23          1           0        1.873143   -1.172532    1.745573
     24          6           0       -1.154067    1.167858   -0.148655
     25          6           0       -1.851091    1.394700   -1.335729
     26          6           0       -2.894434    2.304861   -1.396534
     27          6           0       -3.262008    3.019509   -0.264610
     28          6           0       -2.583275    2.806002    0.925385
     29          6           0       -1.545290    1.886364    0.980153
     30          1           0       -1.566196    0.843261   -2.223855
     31          1           0       -3.420513    2.458891   -2.330577
     32          1           0       -4.075455    3.732605   -0.308913
     33          1           0       -2.868985    3.346303    1.819277
     34          1           0       -1.065707    1.696904    1.932821
     35          6           0       -1.816904   -1.617752   -0.010695
     36          6           0       -2.420678   -1.349250    1.212621
     37          6           0       -3.711789   -1.785803    1.469834
     38          6           0       -4.419155   -2.476939    0.496050
     39          6           0       -3.822225   -2.747371   -0.728134
     40          6           0       -2.522443   -2.331950   -0.973173
     41          1           0       -1.874869   -0.800893    1.970089
     42          1           0       -4.167849   -1.582351    2.430646
     43          1           0       -5.431807   -2.806664    0.691515
     44          1           0       -4.369559   -3.286395   -1.491323
     45          1           0       -2.048542   -2.553712   -1.921487
 ---------------------------------------------------------------------

 SCF Done:  E(RwB97XD) =  -1440.54552851     A.U. after    1 cycles

 The electronic state is 1-A.
 Alpha  occ. eigenvalues -- -101.69576 -19.20893 -14.49080 -10.41227 -10.36087
 Alpha  occ. eigenvalues --  -10.31879 -10.31262 -10.30009 -10.29672 -10.29570
 Alpha  occ. eigenvalues --  -10.29430 -10.29395 -10.29330 -10.29311 -10.29054
 Alpha  occ. eigenvalues --  -10.29019 -10.28986 -10.28979 -10.28948 -10.28916
 Alpha  occ. eigenvalues --  -10.28909 -10.28874 -10.28833 -10.28605 -10.27305
 Alpha  occ. eigenvalues --   -9.58189  -7.32800  -7.31993  -7.31942  -1.11863
 Alpha  occ. eigenvalues --   -1.04849  -0.98789  -0.97025  -0.96363  -0.95450
 Alpha  occ. eigenvalues --   -0.89220  -0.87206  -0.85698  -0.85517  -0.85121
 Alpha  occ. eigenvalues --   -0.84927  -0.82070  -0.79228  -0.75370  -0.71928
 Alpha  occ. eigenvalues --   -0.71071  -0.70574  -0.70061  -0.69049  -0.67425
 Alpha  occ. eigenvalues --   -0.64513  -0.63510  -0.61835  -0.61265  -0.58893
 Alpha  occ. eigenvalues --   -0.57246  -0.56785  -0.56515  -0.55194  -0.54699
 Alpha  occ. eigenvalues --   -0.54220  -0.54084  -0.53000  -0.52734  -0.52126
 Alpha  occ. eigenvalues --   -0.51458  -0.51039  -0.50711  -0.50521  -0.49161
 Alpha  occ. eigenvalues --   -0.48416  -0.47331  -0.47253  -0.46515  -0.45879
 Alpha  occ. eigenvalues --   -0.44953  -0.44319  -0.44036  -0.43232  -0.42640
 Alpha  occ. eigenvalues --   -0.42464  -0.42227  -0.40097  -0.39169  -0.35088
 Alpha  occ. eigenvalues --   -0.34631  -0.34180  -0.34014  -0.33185  -0.32789
 Alpha  occ. eigenvalues --   -0.30642  -0.28054
 Alpha virt. eigenvalues --    0.00335   0.03314   0.04499   0.04917   0.05985
 Alpha virt. eigenvalues --    0.06233   0.07639   0.08707   0.09741   0.12738
 Alpha virt. eigenvalues --    0.13123   0.13468   0.14000   0.14770   0.15144

 Mulliken charges:
               1
     1  C   -0.152221
     2  C    0.249205
     3  O   -0.476098
     4  C    0.237785
     5  C   -0.280343
     6  H    0.159726
     7  H    0.159588
     8  H    0.151041
     9  N   -0.345451
    10  H    0.283390
    11  H    0.287107
    12  Cl  -0.126745
    13  C    0.235306
    14  C   -0.242197
    15  C   -0.147512
    16  C   -0.137211
    17  C   -0.138577
    18  C   -0.334139
    19  H    0.142252
    20  H    0.144217
    21  H    0.145947
    22  H    0.144290
    23  H    0.158318
    24  C    0.150380
    25  C   -0.263977
    26  C   -0.142580
    27  C   -0.137696
    28  C   -0.159366
    29  C   -0.306960
    30  H    0.142411
    31  H    0.139780
    32  H    0.142842
    33  H    0.139834
    34  H    0.170621
    35  C    0.210380
    36  C   -0.233045
    37  C   -0.149062
    38  C   -0.139794
    39  C   -0.146914
    40  C   -0.253533
    41  H    0.154720
    42  H    0.140960
    43  H    0.143954
    44  H    0.141273
    45  H    0.138093
 Sum of Mulliken charges =  -0.00000

 Dipole moment (field-independent basis, Debye):
    X=              2.3945    Y=              5.6229    Z=              6.3344  Tot=              8.8020
 Quadrupole moment (field-independent basis, Debye-Ang):
   XX=           -131.3000   YY=           -156.3935   ZZ=           -134.4861
   XY=              1.4819   XZ=              7.3560   YZ=              6.1669

  Exact polarizability: 447.337 -10.446 377.298  -3.599  18.202 369.555
 Approx polarizability: 332.318 -13.974 303.584  -7.557  13.110 324.855

 ******    1 imaginary frequencies (negative Signs) ******

                      1                      2                      3
                      A                      A                      A
 Frequencies --   -348.0316                24.3320                26.2100
 Red. masses --      6.0765                 5.6501                 5.4437
 Frc consts  --      0.4337                 0.0020                 0.0022
 IR Inten    --    803.9322                 4.9453                 0.1684

                      4                      5                      6
                      A                      A                      A
 Frequencies --     38.3357                48.1775                53.7817
 Red. masses --      4.2974                 4.2086                 4.9785
 Frc consts  --      0.0037                 0.0058                 0.0085
 IR Inten    --      0.4574                 2.1771                 1.1584

                      7                      8                      9
                      A                      A                      A
 Frequencies --     72.5227                87.7561                93.7585
 Red. masses --      3.8927                 2.3928                 4.5430
 Frc consts  --      0.0121                 0.0109                 0.0235
 IR Inten    --      1.5353                 0.5606                 4.5959

                     10                     11                     12
                      A                      A                      A
 Frequencies --    107.9372               116.7518               146.0399
 Red. masses --      2.7620                 3.8865                 4.3519
 Frc consts  --      0.0190                 0.0312                 0.0547
 IR Inten    --      2.2864                 1.9750                 1.0835

                     13                     14                     15
                      A                      A                      A
 Frequencies --    157.9484               186.3559               200.7218
 Red. masses --      2.1272                 4.2906                 6.7126
 Frc consts  --      0.0313                 0.0878                 0.1593
 IR Inten    --      0.2373                10.0270                 1.5838

                     16                     17                     18
                      A                      A                      A
 Frequencies --    219.6198               237.9509               254.3386
 Red. masses --      3.8213                 5.5137                 5.3138
 Frc consts  --      0.1086                 0.1839                 0.2025
 IR Inten    --      1.3431                 4.1659                 0.6878

                     19                     20                     21
                      A                      A                      A
 Frequencies --    268.5661               287.8910               298.6652
 Red. masses --      4.5029                 3.1921                 3.5144
 Frc consts  --      0.1914                 0.1559                 0.1847
 IR Inten    --      3.0240                 3.7171                25.6700

                     22                     23                     24
                      A                      A                      A
 Frequencies --    347.9882               360.8778               405.1352
 Red. masses --      7.1411                 7.6488                 4.7157
 Frc consts  --      0.5095                 0.5869                 0.4560
 IR Inten    --     47.6647                26.0268                30.5101

                     25                     26                     27
                      A                      A                      A
 Frequencies --    418.9672               422.8189               425.3407
 Red. masses --      3.0980                 4.4981                 2.9176
 Frc consts  --      0.3204                 0.4738                 0.3110
 IR Inten    --     28.2620                63.6736                 0.7317

                     28                     29                     30
                      A                      A                      A
 Frequencies --    429.9955               495.8143               540.8871
 Red. masses --      2.9580                 5.7606                 3.7802
 Frc consts  --      0.3222                 0.8344                 0.6516
 IR Inten    --      1.1470                 3.4733                35.7420

                     31                     32                     33
                      A                      A                      A
 Frequencies --    558.4437               590.3353               623.4972
 Red. masses --      3.9094                 5.6922                 3.4005
 Frc consts  --      0.7183                 1.1688                 0.7789
 IR Inten    --     18.5493               199.6184                21.6414

                     34                     35                     36
                      A                      A                      A
 Frequencies --    633.6854               635.7830               641.1918
 Red. masses --      5.8350                 5.8530                 5.5188
 Frc consts  --      1.3805                 1.3939                 1.3368
 IR Inten    --     38.8434                20.5494                38.8986

                     37                     38                     39
                      A                      A                      A
 Frequencies --    648.8483               677.5086               701.1016
 Red. masses --      3.7183                 4.2205                 2.7235
 Frc consts  --      0.9223                 1.1414                 0.7888
 IR Inten    --     58.4625                19.7913                38.0936

                     40                     41                     42
                      A                      A                      A
 Frequencies --    724.4156               725.7729               734.2685
 Red. masses --      1.6611                 1.5623                 1.5144
 Frc consts  --      0.5136                 0.4848                 0.4811
 IR Inten    --    103.9489                73.5980                98.3843

                     43                     44                     45
                      A                      A                      A
 Frequencies --    740.0947               771.0409               793.1895
 Red. masses --      3.7509                 3.5893                 2.1991
 Frc consts  --      1.2105                 1.2572                 0.8152
 IR Inten    --      4.6131               157.4007                21.5222

                     46                     47                     48
                      A                      A                      A
 Frequencies --    804.8402               829.4167               876.6927
 Red. masses --      2.4396                 3.2547                 1.2780
 Frc consts  --      0.9311                 1.3192                 0.5787
 IR Inten    --      5.1161                58.8632                 1.1382

                     49                     50                     51
                      A                      A                      A
 Frequencies --    878.8248               882.0513               886.3716
 Red. masses --      1.2552                 1.6697                 2.2649
 Frc consts  --      0.5712                 0.7654                 1.0484
 IR Inten    --      2.0586                43.1762                58.9822

                     52                     53                     54
                      A                      A                      A
 Frequencies --    951.2114               960.3612               963.9202
 Red. masses --      2.0928                 1.4250                 1.4916
 Frc consts  --      1.1156                 0.7743                 0.8165
 IR Inten    --      4.7389                 5.0565                 4.8076

                     55                     56                     57
                      A                      A                      A
 Frequencies --    976.1054              1012.1664              1014.2587
 Red. masses --      2.3797                 1.3809                 1.3510
 Frc consts  --      1.3359                 0.8335                 0.8188
 IR Inten    --     16.7111                 2.8621                 3.4096

                     58                     59                     60
                      A                      A                      A
 Frequencies --   1015.4452              1019.7151              1026.0208
 Red. masses --      1.3871                 1.2778                 5.0938
 Frc consts  --      0.8427                 0.7828                 3.1594
 IR Inten    --      4.7975                19.9535                11.8650

                     61                     62                     63
                      A                      A                      A
 Frequencies --   1026.2372              1027.0685              1027.3884
 Red. masses --      4.9183                 3.8250                 1.3385
 Frc consts  --      3.0519                 2.3773                 0.8324
 IR Inten    --      4.2385                 0.6333                 2.9407

                     64                     65                     66
                      A                      A                      A
 Frequencies --   1029.5734              1032.3073              1035.7537
 Red. masses --      1.3557                 1.3243                 1.3522
 Frc consts  --      0.8467                 0.8315                 0.8547
 IR Inten    --     25.6343                 1.0141               147.7720

                     67                     68                     69
                      A                      A                      A
 Frequencies --   1057.7005              1063.1827              1065.1872
 Red. masses --      2.5176                 2.8467                 2.6707
 Frc consts  --      1.6594                 1.8958                 1.7854
 IR Inten    --     27.9965               144.9589                24.0261

                     70                     71                     72
                      A                      A                      A
 Frequencies --   1065.3337              1107.6755              1112.6492
 Red. masses --      2.0851                 1.8936                 1.6569
 Frc consts  --      1.3943                 1.3689                 1.2085
 IR Inten    --     17.9362                 8.7501                35.4839

                     73                     74                     75
                      A                      A                      A
 Frequencies --   1116.6323              1126.1556              1182.0649
 Red. masses --      1.8157                 1.7045                 1.1386
 Frc consts  --      1.3339                 1.2736                 0.9373
 IR Inten    --     27.1594                14.8642                 0.9362

                     76                     77                     78
                      A                      A                      A
 Frequencies --   1182.6758              1185.0689              1204.5997
 Red. masses --      1.1310                 1.1274                 1.1236
 Frc consts  --      0.9320                 0.9328                 0.9606
 IR Inten    --      0.0810                 1.0737                 2.4696

                     79                     80                     81
                      A                      A                      A
 Frequencies --   1211.1698              1212.4660              1215.3491
 Red. masses --      1.6040                 1.6826                 1.3060
 Frc consts  --      1.3863                 1.4574                 1.1366
 IR Inten    --    107.5751                95.9913                44.0575

                     82                     83                     84
                      A                      A                      A
 Frequencies --   1228.8147              1264.5021              1305.8146
 Red. masses --      1.3646                 3.9377                 4.6355
 Frc consts  --      1.2140                 3.7097                 4.6571
 IR Inten    --     15.6298                26.3895                20.9476

                     85                     86                     87
                      A                      A                      A
 Frequencies --   1318.2473              1325.9538              1340.6676
 Red. masses --      4.3838                 4.4852                 5.5799
 Frc consts  --      4.4884                 4.6461                 5.9090
 IR Inten    --    381.1656                14.9616               553.4309

                     88                     89                     90
                      A                      A                      A
 Frequencies --   1343.5245              1357.7886              1360.7195
 Red. masses --      1.3356                 1.4785                 1.4545
 Frc consts  --      1.4204                 1.6059                 1.5867
 IR Inten    --     12.4824                34.4887                21.0827

                     91                     92                     93
                      A                      A                      A
 Frequencies --   1363.9428              1400.2752              1458.4445
 Red. masses --      1.4436                 6.1470                 1.1852
 Frc consts  --      1.5823                 7.1013                 1.4854
 IR Inten    --     26.2615               939.4325                23.0375

                     94                     95                     96
                      A                      A                      A
 Frequencies --   1487.3014              1489.4204              1491.9819
 Red. masses --      2.2008                 2.2301                 1.8143
 Frc consts  --      2.8684                 2.9148                 2.3796
 IR Inten    --      4.3619                15.2764                44.4724

                     97                     98                     99
                      A                      A                      A
 Frequencies --   1492.7962              1501.9349              1539.1065
 Red. masses --      1.1752                 1.0355                 2.3028
 Frc consts  --      1.5430                 1.3763                 3.2140
 IR Inten    --     12.3505                15.9348                 1.2671

                    100                    101                    102
                      A                      A                      A
 Frequencies --   1543.2033              1544.7546              1641.9934
 Red. masses --      2.3115                 2.3916                 6.4091
 Frc consts  --      3.2433                 3.3625                10.1809
 IR Inten    --     40.8858                20.8878               265.6645

                    103                    104                    105
                      A                      A                      A
 Frequencies --   1644.3838              1650.3860              1653.9319
 Red. masses --      2.3250                 1.7360                 4.5037
 Frc consts  --      3.7041                 2.7860                 7.2586
 IR Inten    --     62.5954                73.4069                25.6379

                    106                    107                    108
                      A                      A                      A
 Frequencies --   1660.1757              1672.7058              1674.3434
 Red. masses --      7.3134                 5.8516                 6.1029
 Frc consts  --     11.8762                 9.6463                10.0803
 IR Inten    --    355.4864                 0.6929                36.7303

                    109                    110                    111
                      A                      A                      A
 Frequencies --   1675.8960              3072.8278              3152.8575
 Red. masses --      5.8844                 1.0352                 1.1025
 Frc consts  --      9.7374                 5.7589                 6.4572
 IR Inten    --      3.2637                45.4156                 9.7209

                    112                    113                    114
                      A                      A                      A
 Frequencies --   3177.9966              3189.4399              3192.0500
 Red. masses --      1.1057                 1.0860                 1.0857
 Frc consts  --      6.5797                 6.5088                 6.5175
 IR Inten    --      7.5068                 7.6494                 1.5253

                    115                    116                    117
                      A                      A                      A
 Frequencies --   3192.5531              3197.6845              3198.2055
 Red. masses --      1.0877                 1.0862                 1.0879
 Frc consts  --      6.5321                 6.5438                 6.5562
 IR Inten    --      2.6979                 2.9709                 0.6176

                    118                    119                    120
                      A                      A                      A
 Frequencies --   3202.1673              3203.9210              3206.1387
 Red. masses --      1.0912                 1.0890                 1.0916
 Frc consts  --      6.5924                 6.5863                 6.6112
 IR Inten    --     14.2714                 3.4214                14.1676

                    121                    122                    123
                      A                      A                      A
 Frequencies --   3209.3659              3212.4913              3213.5912
 Red. masses --      1.0950                 1.0951                 1.0933
 Frc consts  --      6.6451                 6.6589                 6.6521
 IR Inten    --     43.7440                45.7407                27.1315

                    124                    125                    126
                      A                      A                      A
 Frequencies --   3220.5185              3220.8478              3223.9289
 Red. masses --      1.0988                 1.0988                 1.0972
 Frc consts  --      6.7148                 6.7161                 6.7192
 IR Inten    --     15.5839                22.3300                21.1104

                    127                    128                    129
                      A                      A                      A
 Frequencies --   3234.9037              3516.7208              3601.5449
 Red. masses --      1.0943                 1.0506                 1.0966
 Frc consts  --      6.7467                 7.6556                 8.3805
 IR Inten    --      5.1690                32.5629                55.7073

 - Thermochemistry -
 -------------------
 Temperature   298.150 Kelvin.  Pressure   1.00000 Atm.
 Atom     1 has atomic number  6 and mass  12.00000

 Molecular mass:   349.12334 amu.
 Principal axes and moments of inertia in atomic units:
                           1         2         3
     Eigenvalues --  5820.06446********************
           X            0.99997  -0.00401   0.00734
           Y            0.00386   0.99979   0.02004
           Z           -0.00741  -0.02001   0.99977
 This molecule is an asymmetric top.
 Rotational symmetry number  1.
 Warning -- assumption of classical behavior for rotation
           may cause significant error
 Rotational temperatures (Kelvin)      0.01488     0.00817     0.00632
 Rotational constants (GHZ):           0.31009     0.17019     0.13168
    1 imaginary frequencies ignored.
 Zero-point vibrational energy     959590.9 (Joules/Mol)
                                  229.34773 (Kcal/Mol)
 Warning -- explicit consideration of  31 degrees of freedom as
           vibrations may cause significant error
 Vibrational temperatures:     35.01    37.71    55.16    69.32    77.38
          (Kelvin)            104.34   126.26   134.90   155.30   167.98
                              210.12   227.25   268.12   288.79   315.98
                              342.36   365.94   386.41   414.21   429.71
                              500.68   519.22   582.90   602.80   608.34
                              611.97   618.67   713.37   778.22   803.48
                              849.36   897.07   911.73   914.75   922.53
                              933.55   974.78  1008.73  1042.27  1044.23
                             1056.45  1064.83  1109.36  1141.22  1157.99
                             1193.35  1261.37  1264.43  1269.08  1275.29
                             1368.58  1381.75  1386.87  1404.40  1456.28
                             1459.29  1461.00  1467.14  1476.22  1476.53
                             1477.72  1478.18  1481.33  1485.26  1490.22
                             1521.80  1529.68  1532.57  1532.78  1593.70
                             1600.85  1606.58  1620.29  1700.73  1701.61
                             1705.05  1733.15  1742.60  1744.47  1748.62
                             1767.99  1819.34  1878.78  1896.66  1907.75
                             1928.92  1933.03  1953.55  1957.77  1962.41
                             2014.68  2098.38  2139.90  2142.94  2146.63
                             2147.80  2160.95  2214.43  2220.33  2222.56
                             2362.46  2365.90  2374.54  2379.64  2388.62
                             2406.65  2409.01  2411.24  4421.11  4536.26
                             4572.43  4588.89  4592.65  4593.37  4600.75
                             4601.50  4607.20  4609.73  4612.92  4617.56
                             4622.06  4623.64  4633.61  4634.08  4638.51
                             4654.30  5059.78  5181.82

 Zero-point correction=                           0.365489 (Hartree/Particle)
 Thermal correction to Energy=                    0.387460
 Thermal correction to Enthalpy=                  0.388404
 Thermal correction to Gibbs Free Energy=         0.312384
 Sum of electronic and zero-point Energies=          -1440.180040
 Sum of electronic and thermal Energies=             -1440.158069
 Sum of electronic and thermal Enthalpies=           -1440.157124
 Sum of electronic and thermal Free Energies=        -1440.233145

                     E (Thermal)             CV                S
                      KCal/Mol        Cal/Mol-Kelvin    Cal/Mol-Kelvin
 Total                  243.135             84.514            159.998
 Electronic               0.000              0.000              0.000
 Translational            0.889              2.981             43.445
 Rotational               0.889              2.981             35.091
 Vibrational            241.357             78.552             81.463
 Vibration     1          0.593              1.985              6.245
 Vibration     2          0.593              1.985              6.097
 Vibration     3          0.594              1.982              5.343
 Vibration     4          0.595              1.978              4.891
 Vibration     5          0.596              1.976              4.673
 Vibration     6          0.599              1.967              4.084
 Vibration     7          0.601              1.958              3.709
 Vibration     8          0.603              1.954              3.580
 Vibration     9          0.606              1.943              3.306
 Vibration    10          0.608              1.935              3.153
 Vibration    11          0.617              1.907              2.723
 Vibration    12          0.621              1.894              2.574
 Vibration    13          0.632              1.859              2.264
 Vibration    14          0.638              1.839              2.126
 Vibration    15          0.647              1.811              1.962
 Vibration    16          0.656              1.783              1.818
 Vibration    17          0.665              1.755              1.700
 Vibration    18          0.673              1.731              1.605
 Vibration    19          0.685              1.696              1.486
 Vibration    20          0.692              1.676              1.424
 Vibration    21          0.726              1.579              1.175
 Vibration    22          0.735              1.553              1.118
 Vibration    23          0.770              1.459              0.944
 Vibration    24          0.782              1.429              0.895
 Vibration    25          0.785              1.421              0.882
 Vibration    26          0.787              1.415              0.874
 Vibration    27          0.791              1.405              0.859
 Vibration    28          0.851              1.259              0.669
 Vibration    29          0.896              1.160              0.563
 Vibration    30          0.914              1.121              0.527
 Vibration    31          0.948              1.052              0.467

 Optimization completed.
    -- Stationary point found.
 Normal termination of Gaussian 16 at Sun Jun 13 15:00:57 2021.
