 Gaussian 16, Revision A.03,
 Gaussian 16:  ES64L-G16RevA.03 25-Dec-2016

 ----------------------------------------------------------------------
 # wB97XD def2tzvp, opt=(ts, noeigen, calcfc, maxcycles=70, maxstep=8),
  freq=noraman, scrf=(iefpcm, solvent=water)
 ----------------------------------------------------------------------

 ------------------------
 1_iteration/TS-811-1.out
 ------------------------
 Symbolic Z-matrix:
 Charge =  0 Multiplicity = 1

 SCF Done:  E(RwB97XD) =  -1033.81021409     A.U. after   16 cycles
 SCF Done:  E(RwB97XD) =  -1033.81276467     A.U. after   14 cycles
 SCF Done:  E(RwB97XD) =  -1033.81715773     A.U. after   15 cycles
 SCF Done:  E(RwB97XD) =  -1033.82023273     A.U. after   14 cycles
 SCF Done:  E(RwB97XD) =  -1033.82262163     A.U. after   13 cycles
 SCF Done:  E(RwB97XD) =  -1033.82445218     A.U. after   13 cycles
 SCF Done:  E(RwB97XD) =  -1033.82555111     A.U. after   13 cycles
 SCF Done:  E(RwB97XD) =  -1033.82631019     A.U. after   13 cycles
 SCF Done:  E(RwB97XD) =  -1033.82705834     A.U. after   13 cycles
 SCF Done:  E(RwB97XD) =  -1033.82820610     A.U. after   13 cycles
 SCF Done:  E(RwB97XD) =  -1033.83413337     A.U. after   12 cycles
 SCF Done:  E(RwB97XD) =  -1033.83408010     A.U. after   12 cycles
 SCF Done:  E(RwB97XD) =  -1033.83394664     A.U. after   12 cycles
 SCF Done:  E(RwB97XD) =  -1033.83407303     A.U. after   12 cycles
 SCF Done:  E(RwB97XD) =  -1033.83418253     A.U. after   12 cycles
 SCF Done:  E(RwB97XD) =  -1033.83422370     A.U. after   11 cycles
 SCF Done:  E(RwB97XD) =  -1033.83422446     A.U. after    9 cycles
 SCF Done:  E(RwB97XD) =  -1033.83422440     A.U. after    8 cycles
 SCF Done:  E(RwB97XD) =  -1033.83422452     A.U. after    7 cycles
 Optimization completed.
    -- Stationary point found.
 Normal termination of Gaussian 16 at Fri Jun 11 08:32:36 2021.

 ---------------------------------------------------------------------
 #N Geom=AllCheck Guess=TCheck SCRF=Check GenChk RwB97XD/def2TZVP Freq
 ---------------------------------------------------------------------

 Structure from the checkpoint file:  "/beegfs/scratch/user/q/tla25/Gau-416559.chk"
 ------------------------
 1_iteration/TS-811-1.out
 ------------------------
 Charge =  0 Multiplicity = 1

                         Standard orientation:
 ---------------------------------------------------------------------
 Center     Atomic      Atomic             Coordinates (Angstroms)
 Number     Number       Type             X           Y           Z
 ---------------------------------------------------------------------
      1          6           0        1.474233    0.368430   -0.800174
      2          6           0        1.797139    1.510225   -0.005038
      3          8           0        1.288010    1.749608    1.109876
      4          6           0        0.444958   -0.502910   -0.415957
      5          6           0        2.197616   -1.702433    1.415687
      6          1           0        2.623856   -1.611573    2.414564
      7          1           0        2.130280   -2.752946    1.143171
      8          1           0        2.849110   -1.184709    0.707028
      9          7           0        0.881970   -1.089311    1.343121
     10          1           0        0.163988   -1.649688    1.783842
     11          1           0        0.886120   -0.149505    1.744499
     12         17           0        0.472460   -2.026866   -1.339087
     13          6           0       -0.972367   -0.058690   -0.158045
     14          6           0       -1.361968    1.229659   -0.505479
     15          6           0       -2.666716    1.652675   -0.301304
     16          6           0       -3.604452    0.788504    0.241953
     17          6           0       -3.230730   -0.506940    0.571719
     18          6           0       -1.927017   -0.926533    0.369217
     19          1           0       -0.637340    1.900507   -0.944756
     20          1           0       -2.950245    2.660976   -0.574955
     21          1           0       -4.623932    1.117404    0.398214
     22          1           0       -3.957441   -1.196157    0.982147
     23          1           0       -1.663848   -1.950255    0.604980
     24          1           0        2.177523    0.038891   -1.549555
     25          7           0        2.733421    2.377750   -0.506937
     26          1           0        3.171245    2.999715    0.150479
     27          1           0        3.282887    2.106200   -1.302954
 ---------------------------------------------------------------------

 SCF Done:  E(RwB97XD) =  -1033.83422452     A.U. after    1 cycles

 The electronic state is 1-A.
 Alpha  occ. eigenvalues -- -101.69924 -19.19984 -14.48112 -14.43382 -10.40465
 Alpha  occ. eigenvalues --  -10.37470 -10.31328 -10.31066 -10.29780 -10.29463
 Alpha  occ. eigenvalues --  -10.29450 -10.29391 -10.29260 -10.24928  -9.58517
 Alpha  occ. eigenvalues --   -7.33149  -7.32310  -7.32266  -1.12126  -1.04188
 Alpha  occ. eigenvalues --   -0.98862  -0.98539  -0.95892  -0.87500  -0.85735
 Alpha  occ. eigenvalues --   -0.83606  -0.78759  -0.74055  -0.70959  -0.69045
 Alpha  occ. eigenvalues --   -0.64906  -0.62948  -0.62348  -0.59464  -0.57459
 Alpha  occ. eigenvalues --   -0.57235  -0.55887  -0.54361  -0.53683  -0.51701
 Alpha  occ. eigenvalues --   -0.51240  -0.50442  -0.48481  -0.48145  -0.47674
 Alpha  occ. eigenvalues --   -0.46935  -0.44863  -0.44075  -0.43054  -0.40269
 Alpha  occ. eigenvalues --   -0.38958  -0.35258  -0.34651  -0.33920  -0.33052
 Alpha  occ. eigenvalues --   -0.27541
 Alpha virt. eigenvalues --    0.01922   0.05071   0.06919   0.10029   0.11294
 Alpha virt. eigenvalues --    0.12901   0.13705   0.15313   0.15588   0.16005
 Alpha virt. eigenvalues --    0.17287   0.17680   0.18305   0.19566   0.19786

 Mulliken charges:
               1
     1  C   -0.591398
     2  C    0.355756
     3  O   -0.581905
     4  C    0.362401
     5  C   -0.292029
     6  H    0.154560
     7  H    0.153514
     8  H    0.147718
     9  N   -0.301226
    10  H    0.273791
    11  H    0.276655
    12  Cl  -0.123415
    13  C    0.117586
    14  C   -0.189235
    15  C   -0.142793
    16  C   -0.138658
    17  C   -0.153931
    18  C   -0.292619
    19  H    0.163352
    20  H    0.144599
    21  H    0.146954
    22  H    0.146036
    23  H    0.166965
    24  H    0.150130
    25  N   -0.485767
    26  H    0.262312
    27  H    0.270646
 Sum of Mulliken charges =  -0.00000

 Dipole moment (field-independent basis, Debye):
    X=              1.1753    Y=             -3.2373    Z=              1.8989  Tot=              3.9329
 Quadrupole moment (field-independent basis, Debye-Ang):
   XX=            -70.6945   YY=            -86.7471   ZZ=            -90.6803
   XY=              0.4337   XZ=             -3.3959   YZ=            -12.7900

  Exact polarizability: 231.363   8.253 234.183 -16.634 -15.556 171.427
 Approx polarizability: 179.028   5.092 190.691 -14.975 -11.288 151.151

 ******    1 imaginary frequencies (negative Signs) ******

                      1                      2                      3
                      A                      A                      A
 Frequencies --   -401.1155                57.3548                79.2318
 Red. masses --      4.9842                 4.1282                 3.9397
 Frc consts  --      0.4725                 0.0080                 0.0146
 IR Inten    --    743.1792                 1.7398                11.3660

                      4                      5                      6
                      A                      A                      A
 Frequencies --     89.6511               101.5973               131.5220
 Red. masses --      4.4175                 3.4001                 4.8945
 Frc consts  --      0.0209                 0.0207                 0.0499
 IR Inten    --      4.1940                 8.0872                27.4020

                      7                      8                      9
                      A                      A                      A
 Frequencies --    153.9722               178.9292               191.6833
 Red. masses --      1.8486                 2.9196                 2.5835
 Frc consts  --      0.0258                 0.0551                 0.0559
 IR Inten    --     35.7252                 4.7671                20.4758

                     10                     11                     12
                      A                      A                      A
 Frequencies --    235.3224               265.3419               297.8002
 Red. masses --      3.4270                 4.4888                 3.1745
 Frc consts  --      0.1118                 0.1862                 0.1659
 IR Inten    --      6.1582                 1.6328                73.2888

                     13                     14                     15
                      A                      A                      A
 Frequencies --    324.0378               343.5022               353.5149
 Red. masses --      5.7873                 1.6749                 3.2710
 Frc consts  --      0.3580                 0.1164                 0.2408
 IR Inten    --      8.5883               230.6686                88.7877

                     16                     17                     18
                      A                      A                      A
 Frequencies --    360.3808               427.7196               476.8428
 Red. masses --      3.6171                 2.9609                 1.2468
 Frc consts  --      0.2768                 0.3191                 0.1670
 IR Inten    --      8.6956                 0.3358                14.8656

                     19                     20                     21
                      A                      A                      A
 Frequencies --    493.4541               558.5211               580.3241
 Red. masses --      2.7745                 3.4076                 2.2689
 Frc consts  --      0.3980                 0.6263                 0.4502
 IR Inten    --      6.9820                56.9105                 2.3651

                     22                     23                     24
                      A                      A                      A
 Frequencies --    632.8110               638.0494               639.7533
 Red. masses --      5.4572                 1.6371                 4.6845
 Frc consts  --      1.2876                 0.3927                 1.1296
 IR Inten    --     37.9536               197.3289                37.4039

                     25                     26                     27
                      A                      A                      A
 Frequencies --    696.5751               730.5609               786.7636
 Red. masses --      1.8148                 1.6550                 3.3190
 Frc consts  --      0.5188                 0.5204                 1.2104
 IR Inten    --     45.7651                95.7963                66.4303

                     28                     29                     30
                      A                      A                      A
 Frequencies --    792.5487               820.9139               883.7941
 Red. masses --      3.3355                 3.3103                 1.2439
 Frc consts  --      1.2344                 1.3144                 0.5725
 IR Inten    --     64.8157                40.0185                 2.4172

                     31                     32                     33
                      A                      A                      A
 Frequencies --    886.0837               974.6422              1002.9421
 Red. masses --      4.5781                 1.3977                 2.3697
 Frc consts  --      2.1178                 0.7823                 1.4044
 IR Inten    --    128.6898                 7.1692                38.0684

                     34                     35                     36
                      A                      A                      A
 Frequencies --   1010.0075              1025.5644              1027.8234
 Red. masses --      1.3295                 1.6138                 3.0230
 Frc consts  --      0.7991                 1.0001                 1.8816
 IR Inten    --     48.3398                 6.1598                 8.2326

                     37                     38                     39
                      A                      A                      A
 Frequencies --   1036.5554              1064.5951              1086.9711
 Red. masses --      1.3306                 2.1601                 1.5632
 Frc consts  --      0.8424                 1.4424                 1.0882
 IR Inten    --      5.0715                14.3405                21.4627

                     40                     41                     42
                      A                      A                      A
 Frequencies --   1087.3954              1108.5995              1121.5644
 Red. masses --      2.3735                 1.9018                 1.5784
 Frc consts  --      1.6535                 1.3771                 1.1698
 IR Inten    --    134.1250                66.8046                11.6388

                     43                     44                     45
                      A                      A                      A
 Frequencies --   1168.5997              1185.2678              1211.6007
 Red. masses --      2.4100                 1.1280                 1.1616
 Frc consts  --      1.9391                 0.9337                 1.0047
 IR Inten    --     95.8090                 0.0636                15.5097

                     46                     47                     48
                      A                      A                      A
 Frequencies --   1223.8713              1293.0274              1327.7579
 Red. masses --      1.3227                 1.8828                 4.0187
 Frc consts  --      1.1673                 1.8547                 4.1742
 IR Inten    --     65.7586               283.5810                11.8565

                     49                     50                     51
                      A                      A                      A
 Frequencies --   1350.3044              1362.2147              1377.9284
 Red. masses --      1.5018                 1.4282                 3.2219
 Frc consts  --      1.6134                 1.5615                 3.6043
 IR Inten    --     10.6130                 5.4291                11.7189

                     52                     53                     54
                      A                      A                      A
 Frequencies --   1449.3377              1469.0962              1488.0551
 Red. masses --      1.2280                 3.0037                 1.0412
 Frc consts  --      1.5198                 3.8195                 1.3584
 IR Inten    --    100.9676               996.5860                17.1578

                     55                     56                     57
                      A                      A                      A
 Frequencies --   1494.2288              1500.9547              1542.5411
 Red. masses --      2.3358                 1.0363                 2.2960
 Frc consts  --      3.0727                 1.3755                 3.2188
 IR Inten    --    169.8518                11.3512                11.1924

                     58                     59                     60
                      A                      A                      A
 Frequencies --   1605.9347              1627.5632              1651.0621
 Red. masses --      2.4812                 1.2248                 1.8645
 Frc consts  --      3.7703                 1.9116                 2.9946
 IR Inten    --    380.6049               387.3854                48.0816

                     61                     62                     63
                      A                      A                      A
 Frequencies --   1655.8256              1673.8493              3054.3562
 Red. masses --      3.3729                 5.8779                 1.0369
 Frc consts  --      5.4485                 9.7030                 5.6996
 IR Inten    --     33.0648                 0.6350                45.1397

                     64                     65                     66
                      A                      A                      A
 Frequencies --   3128.9164              3169.3633              3196.6169
 Red. masses --      1.1002                 1.1048                 1.0863
 Frc consts  --      6.3459                 6.5384                 6.5398
 IR Inten    --     10.9650                15.1832                 2.3674

                     67                     68                     69
                      A                      A                      A
 Frequencies --   3202.8045              3212.3954              3223.0788
 Red. masses --      1.0890                 1.0931                 1.0974
 Frc consts  --      6.5814                 6.6459                 6.7168
 IR Inten    --      3.9754                23.8268                20.6336

                     70                     71                     72
                      A                      A                      A
 Frequencies --   3231.8425              3235.9572              3412.5258
 Red. masses --      1.0900                 1.0935                 1.0640
 Frc consts  --      6.7079                 6.7467                 7.3004
 IR Inten    --      2.5938                 8.4991               114.0248

                     73                     74                     75
                      A                      A                      A
 Frequencies --   3597.2231              3615.4721              3736.7041
 Red. masses --      1.0850                 1.0460                 1.1032
 Frc consts  --      8.2724                 8.0559                 9.0754
 IR Inten    --     89.0313                67.9383                54.0788

 - Thermochemistry -
 -------------------
 Temperature   298.150 Kelvin.  Pressure   1.00000 Atm.
 Atom     1 has atomic number  6 and mass  12.00000

 Molecular mass:   212.07164 amu.
 Principal axes and moments of inertia in atomic units:
                           1         2         3
     Eigenvalues --  2316.538393536.042734603.17289
           X            0.99997  -0.00732   0.00297
           Y            0.00751   0.99747  -0.07067
           Z           -0.00245   0.07069   0.99750
 This molecule is an asymmetric top.
 Rotational symmetry number  1.
 Warning -- assumption of classical behavior for rotation
           may cause significant error
 Rotational temperatures (Kelvin)      0.03739     0.02449     0.01882
 Rotational constants (GHZ):           0.77907     0.51038     0.39206
    1 imaginary frequencies ignored.
 Zero-point vibrational energy     576788.4 (Joules/Mol)
                                  137.85574 (Kcal/Mol)
 Warning -- explicit consideration of  20 degrees of freedom as
           vibrations may cause significant error
 Vibrational temperatures:     82.52   114.00   128.99   146.18   189.23
          (Kelvin)            221.53   257.44   275.79   338.58   381.77
                              428.47   466.22   494.22   508.63   518.51
                              615.39   686.07   709.97   803.59   834.96
                              910.47   918.01   920.46  1002.22  1051.11
                             1131.98  1140.30  1181.11  1271.58  1274.88
                             1402.29  1443.01  1453.18  1475.56  1478.81
                             1491.37  1531.71  1563.91  1564.52  1595.03
                             1613.68  1681.35  1705.34  1743.22  1760.88
                             1860.38  1910.35  1942.79  1959.92  1982.53
                             2085.27  2113.70  2140.98  2149.86  2159.54
                             2219.37  2310.58  2341.70  2375.51  2382.36
                             2408.30  4394.54  4501.81  4560.01  4599.22
                             4608.12  4621.92  4637.29  4649.90  4655.82
                             4909.86  5175.60  5201.86  5376.28

 Zero-point correction=                           0.219687 (Hartree/Particle)
 Thermal correction to Energy=                    0.233539
 Thermal correction to Enthalpy=                  0.234484
 Thermal correction to Gibbs Free Energy=         0.179159
 Sum of electronic and zero-point Energies=          -1033.614537
 Sum of electronic and thermal Energies=             -1033.600685
 Sum of electronic and thermal Enthalpies=           -1033.599741
 Sum of electronic and thermal Free Energies=        -1033.655066

                     E (Thermal)             CV                S
                      KCal/Mol        Cal/Mol-Kelvin    Cal/Mol-Kelvin
 Total                  146.548             52.299            116.442
 Electronic               0.000              0.000              0.000
 Translational            0.889              2.981             41.959
 Rotational               0.889              2.981             32.000
 Vibrational            144.771             46.337             42.483
 Vibration     1          0.596              1.975              4.546
 Vibration     2          0.600              1.963              3.910
 Vibration     3          0.602              1.956              3.668
 Vibration     4          0.604              1.948              3.423
 Vibration     5          0.612              1.922              2.924
 Vibration     6          0.619              1.898              2.623
 Vibration     7          0.629              1.868              2.340
 Vibration     8          0.634              1.851              2.211
 Vibration     9          0.655              1.787              1.838
 Vibration    10          0.671              1.737              1.626
 Vibration    11          0.691              1.678              1.429
 Vibration    12          0.709              1.627              1.290
 Vibration    13          0.722              1.588              1.196
 Vibration    14          0.730              1.568              1.150
 Vibration    15          0.735              1.554              1.120
 Vibration    16          0.789              1.410              0.866
 Vibration    17          0.833              1.301              0.719
 Vibration    18          0.849              1.265              0.675
 Vibration    19          0.914              1.121              0.527
 Vibration    20          0.937              1.074              0.485

 Optimization completed.
    -- Stationary point found.
 Normal termination of Gaussian 16 at Fri Jun 11 08:53:43 2021.
