 Gaussian 16, Revision A.03,
 Gaussian 16:  ES64L-G16RevA.03 25-Dec-2016

 ----------------------------------------------------------------------
 # wB97XD def2tzvp, opt=(ts, noeigen, calcfc, maxcycles=70, maxstep=8),
  freq=noraman, scrf=(iefpcm, solvent=water)
 ----------------------------------------------------------------------

 ------------------------
 1_iteration/TS-870-1.out
 ------------------------
 Symbolic Z-matrix:
 Charge =  0 Multiplicity = 1

 SCF Done:  E(RwB97XD) =  -3455.00518682     A.U. after   15 cycles
 SCF Done:  E(RwB97XD) =  -3455.00518986     A.U. after    9 cycles
 Optimization completed.
    -- Stationary point found.
 Normal termination of Gaussian 16 at Thu Feb 25 15:01:24 2021.

 ---------------------------------------------------------------------
 #N Geom=AllCheck Guess=TCheck SCRF=Check GenChk RwB97XD/def2TZVP Freq
 ---------------------------------------------------------------------

 Structure from the checkpoint file:  "/beegfs/scratch/user/q/tla25/Gau-73579.chk"
 ------------------------
 1_iteration/TS-870-1.out
 ------------------------
 Charge =  0 Multiplicity = 1

                         Standard orientation:
 ---------------------------------------------------------------------
 Center     Atomic      Atomic             Coordinates (Angstroms)
 Number     Number       Type             X           Y           Z
 ---------------------------------------------------------------------
      1          6           0       -0.078362   -0.050032    0.332499
      2          6           0       -1.071299    1.010928    0.176235
      3          8           0       -0.692251    2.183939    0.005132
      4          6           0        1.200607    0.364862    0.657014
      5          6           0        3.271790    1.974998   -0.571976
      6          1           0        3.566279    2.589198   -1.424123
      7          1           0        3.143952    2.619111    0.297712
      8          1           0        4.059281    1.253563   -0.363307
      9          7           0        2.022375    1.266429   -0.822842
     10          1           0        1.245163    1.896958   -1.005867
     11          1           0        2.097828    0.599934   -1.581758
     12         17           0        2.437363   -0.799250    1.077025
     13          1           0        1.263025    1.244620    1.284017
     14         35           0       -0.305380   -1.693417   -0.618182
     15          7           0       -2.395026    0.713630    0.208817
     16          6           0       -2.947477   -0.447104    0.876794
     17          6           0       -3.352741    1.738214   -0.149076
     18          1           0       -2.173057   -0.973421    1.427302
     19          1           0       -3.707903   -0.117267    1.589200
     20          1           0       -3.412990   -1.136865    0.168746
     21          1           0       -2.917260    2.413859   -0.880051
     22          1           0       -4.234534    1.261811   -0.579556
     23          1           0       -3.665196    2.322242    0.722806
 ---------------------------------------------------------------------

 SCF Done:  E(RwB97XD) =  -3455.00518986     A.U. after    1 cycles

 The electronic state is 1-A.
 Alpha  occ. eigenvalues -- -483.12375-101.70504 -62.67202 -56.46311 -56.45967
 Alpha  occ. eigenvalues --  -56.45964 -19.20902 -14.47756 -14.45919 -10.39049
 Alpha  occ. eigenvalues --  -10.38494 -10.31695 -10.30825 -10.30580 -10.30512
 Alpha  occ. eigenvalues --   -9.59082  -8.81312  -7.33729  -7.32870  -7.32822
 Alpha  occ. eigenvalues --   -6.63439  -6.62338  -6.62326  -2.73832  -2.73509
 Alpha  occ. eigenvalues --   -2.73499  -2.72609  -2.72608  -1.13598  -1.03817
 Alpha  occ. eigenvalues --   -1.03226  -0.97820  -0.90760  -0.83021  -0.81639
 Alpha  occ. eigenvalues --   -0.79781  -0.78171  -0.69285  -0.63496  -0.62687
 Alpha  occ. eigenvalues --   -0.59718  -0.56828  -0.56190  -0.55983  -0.54508
 Alpha  occ. eigenvalues --   -0.52807  -0.51025  -0.48621  -0.48363  -0.48233
 Alpha  occ. eigenvalues --   -0.47567  -0.46579  -0.46188  -0.45227  -0.40903
 Alpha  occ. eigenvalues --   -0.39541  -0.38495  -0.37184  -0.34750  -0.32105
 Alpha  occ. eigenvalues --   -0.27084
 Alpha virt. eigenvalues --    0.05514   0.06219   0.10347   0.12123   0.12629
 Alpha virt. eigenvalues --    0.14075   0.15486   0.15821   0.16430   0.17502
 Alpha virt. eigenvalues --    0.18014   0.19009   0.19396   0.20018   0.20196

 Mulliken charges:
               1
     1  C   -0.271804
     2  C    0.352521
     3  O   -0.565186
     4  C   -0.006648
     5  C   -0.272943
     6  H    0.150871
     7  H    0.147180
     8  H    0.148716
     9  N   -0.331970
    10  H    0.274390
    11  H    0.279302
    12  Cl  -0.092903
    13  H    0.188422
    14  Br  -0.147810
    15  N   -0.118309
    16  C   -0.301294
    17  C   -0.291241
    18  H    0.158720
    19  H    0.139870
    20  H    0.143519
    21  H    0.139966
    22  H    0.141016
    23  H    0.135615
 Sum of Mulliken charges =  -0.00000

 Dipole moment (field-independent basis, Debye):
    X=              1.7995    Y=              2.0320    Z=             -1.5860  Tot=              3.1437
 Quadrupole moment (field-independent basis, Debye-Ang):
   XX=            -66.2276   YY=            -91.7955   ZZ=            -83.5870
   XY=              8.8392   XZ=             -6.9056   YZ=             -2.0591

  Exact polarizability: 223.028  11.261 180.877  -5.054  -2.806 136.652
 Approx polarizability: 162.939   7.243 151.879  -2.529  -1.386 121.452

 ******    1 imaginary frequencies (negative Signs) ******

                      1                      2                      3
                      A                      A                      A
 Frequencies --   -378.7242                51.1649                59.8076
 Red. masses --      6.7195                 4.4513                 4.4316
 Frc consts  --      0.5678                 0.0069                 0.0093
 IR Inten    --   1014.5396                 2.5638                 8.3223

                      4                      5                      6
                      A                      A                      A
 Frequencies --     90.2883                98.9416               117.4812
 Red. masses --      3.0549                 3.1681                 1.6657
 Frc consts  --      0.0147                 0.0183                 0.0135
 IR Inten    --      1.2552                 5.4426                 9.5307

                      7                      8                      9
                      A                      A                      A
 Frequencies --    129.6606               144.2185               156.2835
 Red. masses --      2.2617                 4.9907                 1.5315
 Frc consts  --      0.0224                 0.0612                 0.0220
 IR Inten    --     24.8252                 1.4532                 2.1910

                     10                     11                     12
                      A                      A                      A
 Frequencies --    174.7684               181.0186               206.8731
 Red. masses --      2.4056                 2.1758                 2.1377
 Frc consts  --      0.0433                 0.0420                 0.0539
 IR Inten    --     10.0653                 7.9269                 7.8751

                     13                     14                     15
                      A                      A                      A
 Frequencies --    243.6336               272.0427               303.7625
 Red. masses --      3.0147                 2.1697                 4.0689
 Frc consts  --      0.1054                 0.0946                 0.2212
 IR Inten    --     18.2637                17.2022                25.1929

                     16                     17                     18
                      A                      A                      A
 Frequencies --    337.8308               395.7889               449.6038
 Red. masses --      4.6299                 3.6533                 8.0723
 Frc consts  --      0.3113                 0.3372                 0.9614
 IR Inten    --      3.5232                18.4118               138.1961

                     19                     20                     21
                      A                      A                      A
 Frequencies --    469.9745               604.0758               658.9903
 Red. masses --      3.4877                 3.4370                 6.1401
 Frc consts  --      0.4539                 0.7390                 1.5710
 IR Inten    --     38.2702                 8.3254                23.9482

                     22                     23                     24
                      A                      A                      A
 Frequencies --    684.7210               774.1956               803.6087
 Red. masses --      1.8135                 7.6277                 4.2698
 Frc consts  --      0.5010                 2.6937                 1.6246
 IR Inten    --     37.5880                42.2823               115.9254

                     25                     26                     27
                      A                      A                      A
 Frequencies --    921.6997              1006.7948              1048.0741
 Red. masses --      3.9480                 1.1118                 1.3530
 Frc consts  --      1.9761                 0.6640                 0.8757
 IR Inten    --     52.1957                26.3171               157.3709

                     28                     29                     30
                      A                      A                      A
 Frequencies --   1056.3164              1082.8074              1089.8569
 Red. masses --      1.7906                 3.4876                 1.4490
 Frc consts  --      1.1772                 2.4092                 1.0140
 IR Inten    --     10.4063               259.0939                25.3400

                     31                     32                     33
                      A                      A                      A
 Frequencies --   1133.2761              1152.3421              1169.8214
 Red. masses --      1.2288                 1.1454                 1.4042
 Frc consts  --      0.9298                 0.8961                 1.1322
 IR Inten    --      1.0474                67.9624                 6.0582

                     34                     35                     36
                      A                      A                      A
 Frequencies --   1206.8053              1225.8108              1252.0961
 Red. masses --      1.4303                 2.9804                 1.2382
 Frc consts  --      1.2273                 2.6386                 1.1437
 IR Inten    --     52.3690               159.1040                31.9666

                     37                     38                     39
                      A                      A                      A
 Frequencies --   1314.9476              1347.7621              1418.1421
 Red. masses --      5.1388                 1.3150                 3.6096
 Frc consts  --      5.2351                 1.4073                 4.2771
 IR Inten    --     37.5660                 9.3329              1164.5047

                     40                     41                     42
                      A                      A                      A
 Frequencies --   1439.8004              1447.4977              1464.2843
 Red. masses --      1.9196                 1.2465                 1.2197
 Frc consts  --      2.3446                 1.5388                 1.5408
 IR Inten    --     10.4842                15.1765                25.6510

                     43                     44                     45
                      A                      A                      A
 Frequencies --   1474.5281              1483.3854              1490.0378
 Red. masses --      1.1945                 1.0967                 1.0403
 Frc consts  --      1.5302                 1.4218                 1.3609
 IR Inten    --     49.5924                 7.7682                16.8096

                     46                     47                     48
                      A                      A                      A
 Frequencies --   1495.7444              1501.3887              1505.8219
 Red. masses --      1.0574                 1.0564                 1.0348
 Frc consts  --      1.3938                 1.4031                 1.3824
 IR Inten    --     23.4253                25.5867                13.7537

                     49                     50                     51
                      A                      A                      A
 Frequencies --   1533.5916              1618.8337              1653.9639
 Red. masses --      1.6925                 5.7718                 1.0977
 Frc consts  --      2.3453                 8.9118                 1.7692
 IR Inten    --    227.0627               692.8662                59.0439

                     52                     53                     54
                      A                      A                      A
 Frequencies --   3032.5206              3041.2106              3064.3061
 Red. masses --      1.0445                 1.0388                 1.0343
 Frc consts  --      5.6596                 5.6606                 5.7221
 IR Inten    --     82.9897               106.9513                59.3534

                     55                     56                     57
                      A                      A                      A
 Frequencies --   3096.5030              3107.2206              3138.9011
 Red. masses --      1.1030                 1.0959                 1.1042
 Frc consts  --      6.2309                 6.2340                 6.4102
 IR Inten    --     64.0595                23.4144                19.7091

                     58                     59                     60
                      A                      A                      A
 Frequencies --   3164.5143              3173.6065              3176.0945
 Red. masses --      1.1050                 1.1002                 1.0983
 Frc consts  --      6.5197                 6.5285                 6.5277
 IR Inten    --     16.1977                11.5343                13.2070

                     61                     62                     63
                      A                      A                      A
 Frequencies --   3202.8935              3481.1577              3594.6723
 Red. masses --      1.0909                 1.0563                 1.0921
 Frc consts  --      6.5934                 7.5418                 8.3144
 IR Inten    --      0.3471                63.8735                73.0121

 - Thermochemistry -
 -------------------
 Temperature   298.150 Kelvin.  Pressure   1.00000 Atm.
 Atom     1 has atomic number  6 and mass  12.00000

 Molecular mass:   241.98215 amu.
 Principal axes and moments of inertia in atomic units:
                           1         2         3
     Eigenvalues --  2143.508613538.590574870.78889
           X            0.99938   0.02320  -0.02665
           Y           -0.02431   0.99881  -0.04225
           Z            0.02563   0.04287   0.99875
 This molecule is an asymmetric top.
 Rotational symmetry number  1.
 Warning -- assumption of classical behavior for rotation
           may cause significant error
 Rotational temperatures (Kelvin)      0.04041     0.02448     0.01778
 Rotational constants (GHZ):           0.84196     0.51002     0.37052
    1 imaginary frequencies ignored.
 Zero-point vibrational energy     485790.1 (Joules/Mol)
                                  116.10663 (Kcal/Mol)
 Warning -- explicit consideration of  19 degrees of freedom as
           vibrations may cause significant error
 Vibrational temperatures:     73.61    86.05   129.90   142.35   169.03
          (Kelvin)            186.55   207.50   224.86   251.45   260.45
                              297.64   350.53   391.41   437.05   486.06
                              569.45   646.88   676.19   869.13   948.14
                              985.16  1113.89  1156.21  1326.12  1448.55
                             1507.94  1519.80  1557.92  1568.06  1630.53
                             1657.96  1683.11  1736.32  1763.67  1801.49
                             1891.92  1939.13  2040.39  2071.55  2082.63
                             2106.78  2121.52  2134.26  2143.83  2152.04
                             2160.16  2166.54  2206.50  2329.14  2379.69
                             4363.12  4375.62  4408.85  4455.18  4470.60
                             4516.18  4553.03  4566.11  4569.69  4608.25
                             5008.61  5171.93

 Zero-point correction=                           0.185028 (Hartree/Particle)
 Thermal correction to Energy=                    0.198934
 Thermal correction to Enthalpy=                  0.199878
 Thermal correction to Gibbs Free Energy=         0.142899
 Sum of electronic and zero-point Energies=          -3454.820162
 Sum of electronic and thermal Energies=             -3454.806256
 Sum of electronic and thermal Enthalpies=           -3454.805312
 Sum of electronic and thermal Free Energies=        -3454.862291

                     E (Thermal)             CV                S
                      KCal/Mol        Cal/Mol-Kelvin    Cal/Mol-Kelvin
 Total                  124.833             46.710            119.923
 Electronic               0.000              0.000              0.000
 Translational            0.889              2.981             42.352
 Rotational               0.889              2.981             31.980
 Vibrational            123.055             40.749             45.591
 Vibration     1          0.595              1.977              4.772
 Vibration     2          0.597              1.973              4.464
 Vibration     3          0.602              1.956              3.654
 Vibration     4          0.604              1.950              3.475
 Vibration     5          0.608              1.935              3.141
 Vibration     6          0.612              1.924              2.951
 Vibration     7          0.616              1.909              2.747
 Vibration     8          0.620              1.896              2.594
 Vibration     9          0.627              1.873              2.384
 Vibration    10          0.630              1.866              2.318
 Vibration    11          0.641              1.830              2.071
 Vibration    12          0.659              1.773              1.776
 Vibration    13          0.675              1.725              1.583
 Vibration    14          0.695              1.667              1.396
 Vibration    15          0.718              1.600              1.222
 Vibration    16          0.763              1.479              0.978
 Vibration    17          0.808              1.362              0.797
 Vibration    18          0.827              1.317              0.738
 Vibration    19          0.963              1.023              0.443

 Optimization completed.
    -- Stationary point found.
 Normal termination of Gaussian 16 at Thu Feb 25 15:25:15 2021.
