 Gaussian 16, Revision A.03,
 Gaussian 16:  ES64L-G16RevA.03 25-Dec-2016

 ----------------------------------------------------------------------
 # wB97XD def2tzvp, opt=(ts, noeigen, calcfc, maxcycles=70, maxstep=8),
  freq=noraman, scrf=(iefpcm, solvent=water)
 ----------------------------------------------------------------------

 ------------------------
 1_iteration/TS-879-1.out
 ------------------------
 Symbolic Z-matrix:
 Charge =  0 Multiplicity = 1

 SCF Done:  E(RwB97XD) =  -1493.43891383     A.U. after   14 cycles
 SCF Done:  E(RwB97XD) =  -1493.43954791     A.U. after   14 cycles
 SCF Done:  E(RwB97XD) =  -1493.43984248     A.U. after   13 cycles
 SCF Done:  E(RwB97XD) =  -1493.43986928     A.U. after   11 cycles
 SCF Done:  E(RwB97XD) =  -1493.43990234     A.U. after   10 cycles
 SCF Done:  E(RwB97XD) =  -1493.43990311     A.U. after    8 cycles
 SCF Done:  E(RwB97XD) =  -1493.43990321     A.U. after    7 cycles
 SCF Done:  E(RwB97XD) =  -1493.43990228     A.U. after    9 cycles
 SCF Done:  E(RwB97XD) =  -1493.43990323     A.U. after    9 cycles
 SCF Done:  E(RwB97XD) =  -1493.43990322     A.U. after    6 cycles
 Optimization completed.
    -- Stationary point found.
 Normal termination of Gaussian 16 at Thu Feb 25 16:06:53 2021.

 ---------------------------------------------------------------------
 #N Geom=AllCheck Guess=TCheck SCRF=Check GenChk RwB97XD/def2TZVP Freq
 ---------------------------------------------------------------------

 Structure from the checkpoint file:  "/beegfs/scratch/user/q/tla25/Gau-115380.chk"
 ------------------------
 1_iteration/TS-879-1.out
 ------------------------
 Charge =  0 Multiplicity = 1

                         Standard orientation:
 ---------------------------------------------------------------------
 Center     Atomic      Atomic             Coordinates (Angstroms)
 Number     Number       Type             X           Y           Z
 ---------------------------------------------------------------------
      1          6           0       -1.193696   -0.477170   -0.209593
      2          6           0        0.069779    0.223969   -0.306068
      3          8           0        0.114784    1.414357   -0.631658
      4          6           0       -2.351195    0.227639   -0.470397
      5          6           0       -4.027230    2.156115    0.884668
      6          1           0       -4.933102    1.634978    0.583176
      7          1           0       -4.225995    2.721985    1.795274
      8          1           0       -3.733703    2.845854    0.094504
      9          7           0       -2.957516    1.180082    1.082864
     10          1           0       -2.097557    1.623864    1.385086
     11          1           0       -3.205843    0.476656    1.769384
     12         17           0       -3.821661   -0.623975   -0.891215
     13          1           0       -2.221216    1.129315   -1.052331
     14         17           0       -1.276259   -2.085001    0.479775
     15          7           0        1.194841   -0.509779   -0.027605
     16          6           0        2.536153   -0.115467   -0.023043
     17          6           0        2.977211    1.172126   -0.331421
     18          6           0        4.334549    1.461439   -0.293798
     19          6           0        5.268643    0.495150    0.043744
     20          6           0        4.828583   -0.786333    0.348694
     21          6           0        3.480140   -1.089808    0.316599
     22          1           0        1.032422   -1.471696    0.221377
     23          1           0        2.260029    1.930869   -0.596894
     24          1           0        4.660182    2.465909   -0.535351
     25          1           0        6.323804    0.734050    0.068652
     26          1           0        5.539542   -1.558541    0.614691
     27          1           0        3.148904   -2.093595    0.557040
 ---------------------------------------------------------------------

 SCF Done:  E(RwB97XD) =  -1493.43990322     A.U. after    1 cycles

 The electronic state is 1-A.
 Alpha  occ. eigenvalues -- -101.70749-101.69875 -19.21089 -14.48831 -14.46702
 Alpha  occ. eigenvalues --  -10.39477 -10.39433 -10.33970 -10.32018 -10.31596
 Alpha  occ. eigenvalues --  -10.29099 -10.28943 -10.28918 -10.28310 -10.28271
 Alpha  occ. eigenvalues --   -9.59326  -9.58397  -7.33978  -7.33113  -7.33062
 Alpha  occ. eigenvalues --   -7.33024  -7.32204  -7.32160  -1.14142  -1.04566
 Alpha  occ. eigenvalues --   -1.04466  -0.99096  -0.95915  -0.94582  -0.85611
 Alpha  occ. eigenvalues --   -0.85176  -0.83789  -0.79071  -0.75085  -0.71646
 Alpha  occ. eigenvalues --   -0.68782  -0.65077  -0.64101  -0.63064  -0.60493
 Alpha  occ. eigenvalues --   -0.58081  -0.56816  -0.55459  -0.54230  -0.53506
 Alpha  occ. eigenvalues --   -0.52650  -0.52217  -0.51728  -0.50538  -0.48569
 Alpha  occ. eigenvalues --   -0.48399  -0.47934  -0.46283  -0.44816  -0.43024
 Alpha  occ. eigenvalues --   -0.42903  -0.41736  -0.40094  -0.39969  -0.39029
 Alpha  occ. eigenvalues --   -0.34507  -0.33813  -0.30583  -0.27295
 Alpha virt. eigenvalues --    0.03447   0.05335   0.07207   0.08914   0.10115
 Alpha virt. eigenvalues --    0.13009   0.13393   0.14257   0.14962   0.15551
 Alpha virt. eigenvalues --    0.16512   0.17097   0.17765   0.18111   0.18810

 Mulliken charges:
               1
     1  C   -0.190550
     2  C    0.411958
     3  O   -0.546142
     4  C   -0.022166
     5  C   -0.273055
     6  H    0.150850
     7  H    0.154971
     8  H    0.152644
     9  N   -0.333844
    10  H    0.286622
    11  H    0.286287
    12  Cl  -0.087781
    13  H    0.187776
    14  Cl  -0.160117
    15  N   -0.276184
    16  C    0.303042
    17  C   -0.294745
    18  C   -0.109952
    19  C   -0.196870
    20  C   -0.098092
    21  C   -0.309652
    22  H    0.234526
    23  H    0.162201
    24  H    0.141558
    25  H    0.140898
    26  H    0.143804
    27  H    0.142014
 Sum of Mulliken charges =  -0.00000

 Dipole moment (field-independent basis, Debye):
    X=             -4.6110    Y=              1.8487    Z=              4.5238  Tot=              6.7189
 Quadrupole moment (field-independent basis, Debye-Ang):
   XX=            -81.4675   YY=            -97.1550   ZZ=           -101.7644
   XY=            -16.9839   XZ=             -8.9235   YZ=              2.8142

  Exact polarizability: 333.843  -9.870 230.585   0.465 -10.616 150.877
 Approx polarizability: 232.299  -2.758 199.841   2.035 -11.684 136.795

 ******    1 imaginary frequencies (negative Signs) ******

                      1                      2                      3
                      A                      A                      A
 Frequencies --   -366.5163                16.7567                31.8123
 Red. masses --      6.7729                 3.9599                 6.1109
 Frc consts  --      0.5361                 0.0007                 0.0036
 IR Inten    --   1212.3451                 0.6345                 3.1176

                      4                      5                      6
                      A                      A                      A
 Frequencies --     53.9329                73.3714                87.9195
 Red. masses --      6.1420                 4.9013                 2.6874
 Frc consts  --      0.0105                 0.0155                 0.0122
 IR Inten    --      9.0886                 5.0136                 1.5136

                      7                      8                      9
                      A                      A                      A
 Frequencies --     91.8749               122.5801               169.1323
 Red. masses --      3.6811                 5.6697                 1.9342
 Frc consts  --      0.0183                 0.0502                 0.0326
 IR Inten    --      7.2379                12.9991                 3.2200

                     10                     11                     12
                      A                      A                      A
 Frequencies --    192.6414               195.8673               220.5119
 Red. masses --      3.5925                 4.4440                 6.1792
 Frc consts  --      0.0785                 0.1004                 0.1770
 IR Inten    --      6.4341                19.1688                 8.4957

                     13                     14                     15
                      A                      A                      A
 Frequencies --    241.1695               250.4355               334.5471
 Red. masses --      4.3613                 4.9281                 4.0265
 Frc consts  --      0.1495                 0.1821                 0.2655
 IR Inten    --     21.5768                 0.6990                 5.0193

                     16                     17                     18
                      A                      A                      A
 Frequencies --    364.2941               423.2847               428.0440
 Red. masses --      7.4136                 3.0715                 8.1562
 Frc consts  --      0.5797                 0.3242                 0.8805
 IR Inten    --      8.3835                 5.1395                82.7404

                     19                     20                     21
                      A                      A                      A
 Frequencies --    470.1830               527.8995               561.6627
 Red. masses --      9.9556                 2.7853                 7.3828
 Frc consts  --      1.2967                 0.4573                 1.3722
 IR Inten    --     78.7270                36.6818                51.3079

                     22                     23                     24
                      A                      A                      A
 Frequencies --    580.5065               628.5242               636.8515
 Red. masses --      1.1340                 2.3585                 5.6335
 Frc consts  --      0.2252                 0.5489                 1.3462
 IR Inten    --    100.8354                 6.6792                 0.7284

                     25                     26                     27
                      A                      A                      A
 Frequencies --    682.0719               718.8818               763.0923
 Red. masses --      2.7413                 1.8871                 9.5666
 Frc consts  --      0.7514                 0.5746                 3.2822
 IR Inten    --     20.2278                62.9533                33.4948

                     28                     29                     30
                      A                      A                      A
 Frequencies --    766.9948               784.2883               861.2385
 Red. masses --      4.4938                 1.8207                 1.2571
 Frc consts  --      1.5576                 0.6598                 0.5494
 IR Inten    --    102.8938                98.7491                 0.0292

                     31                     32                     33
                      A                      A                      A
 Frequencies --    873.4725               876.2552               932.1564
 Red. masses --      5.6285                 4.3918                 1.4666
 Frc consts  --      2.5301                 1.9868                 0.7508
 IR Inten    --     17.5068                95.2722                12.5824

                     34                     35                     36
                      A                      A                      A
 Frequencies --   1001.4659              1014.4731              1017.6994
 Red. masses --      1.3504                 1.1067                 1.2923
 Frc consts  --      0.7980                 0.6711                 0.7886
 IR Inten    --      0.0163                15.4953                 0.6248

                     37                     38                     39
                      A                      A                      A
 Frequencies --   1020.2856              1043.6727              1058.5457
 Red. masses --      5.7458                 1.1405                 2.8589
 Frc consts  --      3.5241                 0.7320                 1.8874
 IR Inten    --      7.1804                93.6392                34.5074

                     40                     41                     42
                      A                      A                      A
 Frequencies --   1070.1970              1081.2992              1125.4054
 Red. masses --      3.4583                 3.1028                 1.5990
 Frc consts  --      2.3337                 2.1375                 1.1932
 IR Inten    --    163.7881               153.7730                10.1448

                     43                     44                     45
                      A                      A                      A
 Frequencies --   1158.7338              1182.7016              1209.8542
 Red. masses --      1.1497                 1.1206                 1.1379
 Frc consts  --      0.9095                 0.9236                 0.9814
 IR Inten    --    164.4535                 3.4545                27.4041

                     46                     47                     48
                      A                      A                      A
 Frequencies --   1224.9391              1244.6147              1273.1298
 Red. masses --      1.4004                 1.3385                 2.2010
 Frc consts  --      1.2380                 1.2217                 2.1019
 IR Inten    --     26.6764               161.6878               396.8380

                     49                     50                     51
                      A                      A                      A
 Frequencies --   1282.3907              1347.9199              1349.1536
 Red. masses --      5.0114                 1.4703                 3.2226
 Frc consts  --      4.8557                 1.5739                 3.4561
 IR Inten    --      5.7794                89.0351               575.9069

                     52                     53                     54
                      A                      A                      A
 Frequencies --   1363.3895              1437.3369              1465.9173
 Red. masses --      1.4948                 3.7069                 1.2930
 Frc consts  --      1.6370                 4.5122                 1.6370
 IR Inten    --     47.8645               939.3680                84.5137

                     55                     56                     57
                      A                      A                      A
 Frequencies --   1482.8058              1491.3569              1505.7039
 Red. masses --      2.2272                 1.0403                 1.0331
 Frc consts  --      2.8852                 1.3633                 1.3799
 IR Inten    --    371.6777                18.0573                10.3208

                     58                     59                     60
                      A                      A                      A
 Frequencies --   1547.2809              1574.9159              1642.3793
 Red. masses --      2.4284                 2.1677                 1.1117
 Frc consts  --      3.4254                 3.1679                 1.7668
 IR Inten    --    167.2269               898.0440                42.0652

                     61                     62                     63
                      A                      A                      A
 Frequencies --   1658.7831              1666.7835              1681.8601
 Red. masses --      6.7796                 3.7565                 6.5115
 Frc consts  --     10.9909                 6.1488                10.8521
 IR Inten    --    223.0941               102.0090               290.2236

                     64                     65                     66
                      A                      A                      A
 Frequencies --   3069.7351              3147.0590              3171.0760
 Red. masses --      1.0340                 1.1049                 1.1053
 Frc consts  --      5.7405                 6.4474                 6.5483
 IR Inten    --     49.0941                15.1440                11.4489

                     67                     68                     69
                      A                      A                      A
 Frequencies --   3188.9095              3197.3684              3207.0242
 Red. masses --      1.0876                 1.0885                 1.0933
 Frc consts  --      6.5163                 6.5562                 6.6253
 IR Inten    --     12.1584                 2.4978                30.2092

                     70                     71                     72
                      A                      A                      A
 Frequencies --   3221.8021              3222.9234              3266.4530
 Red. masses --      1.0980                 1.0903                 1.0932
 Frc consts  --      6.7150                 6.6729                 6.8721
 IR Inten    --     22.3011                 2.3449                 6.7563

                     73                     74                     75
                      A                      A                      A
 Frequencies --   3521.9864              3606.0574              3634.9217
 Red. masses --      1.0506                 1.0969                 1.0762
 Frc consts  --      7.6784                 8.4037                 8.3778
 IR Inten    --     27.1016                52.6450                90.2935

 - Thermochemistry -
 -------------------
 Temperature   298.150 Kelvin.  Pressure   1.00000 Atm.
 Atom     1 has atomic number  6 and mass  12.00000

 Molecular mass:   246.03267 amu.
 Principal axes and moments of inertia in atomic units:
                           1         2         3
     Eigenvalues --  1700.817108678.811729749.15637
           X            0.99978  -0.01938  -0.00800
           Y            0.01949   0.99972   0.01371
           Z            0.00773  -0.01387   0.99987
 This molecule is an asymmetric top.
 Rotational symmetry number  1.
 Warning -- assumption of classical behavior for rotation
           may cause significant error
 Rotational temperatures (Kelvin)      0.05092     0.00998     0.00888
 Rotational constants (GHZ):           1.06110     0.20795     0.18512
    1 imaginary frequencies ignored.
 Zero-point vibrational energy     554125.6 (Joules/Mol)
                                  132.43920 (Kcal/Mol)
 Warning -- explicit consideration of  21 degrees of freedom as
           vibrations may cause significant error
 Vibrational temperatures:     24.11    45.77    77.60   105.57   126.50
          (Kelvin)            132.19   176.37   243.34   277.17   281.81
                              317.27   346.99   360.32   481.34   524.14
                              609.01   615.86   676.49   759.53   808.11
                              835.22   904.31   916.29   981.35  1034.31
                             1097.92  1103.53  1128.42  1239.13  1256.73
                             1260.74  1341.17  1440.89  1459.60  1464.24
                             1467.96  1501.61  1523.01  1539.77  1555.75
                             1619.21  1667.16  1701.64  1740.71  1762.41
                             1790.72  1831.75  1845.07  1939.36  1941.13
                             1961.61  2068.01  2109.13  2133.43  2145.73
                             2166.37  2226.19  2265.95  2363.02  2386.62
                             2398.13  2419.82  4416.66  4527.92  4562.47
                             4588.13  4600.30  4614.19  4635.45  4637.07
                             4699.70  5067.35  5188.31  5229.84

 Zero-point correction=                           0.211055 (Hartree/Particle)
 Thermal correction to Energy=                    0.226305
 Thermal correction to Enthalpy=                  0.227249
 Thermal correction to Gibbs Free Energy=         0.165436
 Sum of electronic and zero-point Energies=          -1493.228848
 Sum of electronic and thermal Energies=             -1493.213599
 Sum of electronic and thermal Enthalpies=           -1493.212654
 Sum of electronic and thermal Free Energies=        -1493.274467

                     E (Thermal)             CV                S
                      KCal/Mol        Cal/Mol-Kelvin    Cal/Mol-Kelvin
 Total                  142.008             54.444            130.096
 Electronic               0.000              0.000              0.000
 Translational            0.889              2.981             42.402
 Rotational               0.889              2.981             33.331
 Vibrational            140.231             48.483             54.363
 Vibration     1          0.593              1.986              6.986
 Vibration     2          0.594              1.983              5.713
 Vibration     3          0.596              1.976              4.668
 Vibration     4          0.599              1.967              4.061
 Vibration     5          0.601              1.958              3.706
 Vibration     6          0.602              1.955              3.620
 Vibration     7          0.610              1.930              3.059
 Vibration     8          0.625              1.880              2.445
 Vibration     9          0.635              1.850              2.202
 Vibration    10          0.636              1.846              2.172
 Vibration    11          0.647              1.810              1.955
 Vibration    12          0.658              1.777              1.794
 Vibration    13          0.663              1.762              1.728
 Vibration    14          0.716              1.607              1.238
 Vibration    15          0.738              1.546              1.104
 Vibration    16          0.785              1.420              0.881
 Vibration    17          0.790              1.409              0.865
 Vibration    18          0.827              1.316              0.737
 Vibration    19          0.883              1.188              0.592
 Vibration    20          0.917              1.114              0.521
 Vibration    21          0.937              1.073              0.484

 Optimization completed.
    -- Stationary point found.
 Normal termination of Gaussian 16 at Thu Feb 25 16:48:46 2021.
