 Gaussian 16, Revision C.01,
 Gaussian 16:  ES64L-G16RevC.01  3-Jul-2019

 ----------------------------------------------------------------------
 # opt=(calcfc,ts,noeigen,maxcycles=100,maxstep=10) freq=noraman wb97xd
  scrf=(iefpcm,solvent=water) def2tzvp
 ----------------------------------------------------------------------

 ----------
 TS-822.out
 ----------
 Symbolic Z-matrix:
 Charge =  0 Multiplicity = 1

 SCF Done:  E(RwB97XD) =  -1151.74957668     A.U. after   15 cycles
 SCF Done:  E(RwB97XD) =  -1151.74957669     A.U. after    6 cycles
 Optimization completed.
    -- Stationary point found.
 Normal termination of Gaussian 16 at Tue Jun  7 00:49:57 2022.

 ---------------------------------------------------------------------
 #N Geom=AllCheck Guess=TCheck SCRF=Check GenChk RwB97XD/def2TZVP Freq
 ---------------------------------------------------------------------

 Structure from the checkpoint file:  "/local/jobs/107541/Gau-1083672.chk"
 ----------
 TS-822.out
 ----------
 Charge =  0 Multiplicity = 1

                         Standard orientation:
 ---------------------------------------------------------------------
 Center     Atomic      Atomic             Coordinates (Angstroms)
 Number     Number       Type             X           Y           Z
 ---------------------------------------------------------------------
      1          6           0        1.460916    0.495486   -0.107903
      2          6           0        0.849904    1.804973    0.174525
      3          8           0        1.330459    2.538541    1.049636
      4          6           0        0.753445   -0.668635   -0.201612
      5          6           0        1.396592   -1.396971    2.419751
      6          1           0        2.133946   -1.902569    3.041659
      7          1           0        1.617397   -0.328415    2.390748
      8          1           0        0.406455   -1.543830    2.842374
      9          7           0        1.427275   -1.905569    1.053026
     10          1           0        2.374312   -2.077290    0.736879
     11          1           0        0.904556   -2.766517    0.940418
     12         17           0        1.329815   -1.862112   -1.653784
     13          6           0       -0.720219   -0.777004    0.017629
     14          6           0       -1.567726   -1.508664   -0.809378
     15          6           0       -2.931941   -1.559894   -0.562718
     16          6           0       -3.475319   -0.886112    0.518385
     17          6           0       -2.640041   -0.163653    1.358850
     18          6           0       -1.279009   -0.115775    1.115336
     19          1           0       -1.163935   -2.033403   -1.661720
     20          1           0       -3.570477   -2.129280   -1.225985
     21          1           0       -4.540249   -0.925388    0.708848
     22          1           0       -3.047624    0.364216    2.211494
     23          1           0       -0.644466    0.454151    1.779370
     24          6           0        2.968267    0.474038   -0.096608
     25          1           0        3.384068    0.213905    0.884382
     26          1           0        3.352118   -0.251588   -0.816379
     27          1           0        3.372372    1.451574   -0.357751
     28          7           0       -0.220084    2.229847   -0.552422
     29          6           0       -0.632926    1.695547   -1.830016
     30          6           0       -0.950875    3.399511   -0.118749
     31          1           0        0.087823    0.966097   -2.187747
     32          1           0       -1.614014    1.217278   -1.761339
     33          1           0       -0.697736    2.510375   -2.556663
     34          1           0       -0.786136    3.563762    0.942229
     35          1           0       -0.639353    4.296545   -0.663749
     36          1           0       -2.016331    3.240920   -0.299006
 ---------------------------------------------------------------------

 SCF Done:  E(RwB97XD) =  -1151.74957669     A.U. after    1 cycles

 The electronic state is 1-A.
 Alpha  occ. eigenvalues -- -101.66523 -19.19824 -14.49459 -14.45412 -10.39428
 Alpha  occ. eigenvalues --  -10.37517 -10.31885 -10.31224 -10.30394 -10.30189
 Alpha  occ. eigenvalues --  -10.29662 -10.29437 -10.29388 -10.29298 -10.29230
 Alpha  occ. eigenvalues --  -10.27128 -10.26130  -9.55133  -7.29630  -7.28982
 Alpha  occ. eigenvalues --   -7.28963  -1.12651  -1.05069  -1.02719  -0.97736
 Alpha  occ. eigenvalues --   -0.93272  -0.87655  -0.86036  -0.85395  -0.81353
 Alpha  occ. eigenvalues --   -0.79486  -0.79235  -0.77415  -0.71237  -0.70465
 Alpha  occ. eigenvalues --   -0.67192  -0.64518  -0.62383  -0.61124  -0.58139
 Alpha  occ. eigenvalues --   -0.57639  -0.56465  -0.56025  -0.55315  -0.54992
 Alpha  occ. eigenvalues --   -0.52980  -0.51435  -0.51043  -0.50344  -0.48826
 Alpha  occ. eigenvalues --   -0.48533  -0.48121  -0.47799  -0.47191  -0.46523
 Alpha  occ. eigenvalues --   -0.46125  -0.45617  -0.44585  -0.44100  -0.42672
 Alpha  occ. eigenvalues --   -0.42054  -0.38236  -0.37818  -0.34444  -0.34055
 Alpha  occ. eigenvalues --   -0.33759  -0.31116  -0.26312
 Alpha virt. eigenvalues --    0.02024   0.05017   0.06453   0.08581   0.10251
 Alpha virt. eigenvalues --    0.11875   0.13259   0.13984   0.14254   0.14707
 Alpha virt. eigenvalues --    0.16175   0.16550   0.16654   0.17525   0.17921

 Mulliken charges:
               1
     1  C   -0.075565
     2  C    0.232398
     3  O   -0.526524
     4  C    0.117791
     5  C   -0.310670
     6  H    0.167588
     7  H    0.151607
     8  H    0.165423
     9  N   -0.283797
    10  H    0.289212
    11  H    0.290936
    12  Cl  -0.293264
    13  C    0.147969
    14  C   -0.218693
    15  C   -0.132063
    16  C   -0.136363
    17  C   -0.158289
    18  C   -0.286298
    19  H    0.135425
    20  H    0.143101
    21  H    0.145404
    22  H    0.144288
    23  H    0.183568
    24  C   -0.455369
    25  H    0.125444
    26  H    0.133809
    27  H    0.133033
    28  N   -0.074332
    29  C   -0.313276
    30  C   -0.292800
    31  H    0.147739
    32  H    0.147025
    33  H    0.142675
    34  H    0.141938
    35  H    0.136509
    36  H    0.134422
 Sum of Mulliken charges =  -0.00000

 Dipole moment (field-independent basis, Debye):
    X=             -3.2176    Y=             -5.3540    Z=              2.3448  Tot=              6.6720
 Quadrupole moment (field-independent basis, Debye-Ang):
   XX=           -102.3607   YY=           -111.5760   ZZ=           -107.3551
   XY=            -12.3972   XZ=              3.9573   YZ=            -15.9837

  Exact polarizability:     285.074       4.833     266.843       4.324      27.724     250.216
 Approx polarizability:     224.523       5.000     213.848       4.245      27.115     212.254

 ******    1 imaginary frequencies (negative Signs) ******

                      1                      2                      3
                      A                      A                      A
 Frequencies --   -439.1371                44.9443                51.8411
 Red. masses --      6.5768                 2.9014                 3.9060
 Frc consts  --      0.7472                 0.0035                 0.0062
 IR Inten    --    437.2637                 6.1505                 1.1265

                      4                      5                      6
                      A                      A                      A
 Frequencies --     63.6238                79.6487                81.9795
 Red. masses --      2.4110                 2.0433                 3.0388
 Frc consts  --      0.0058                 0.0076                 0.0120
 IR Inten    --      3.7143                 6.7422                25.0248

                      7                      8                      9
                      A                      A                      A
 Frequencies --     90.2324                99.6125               125.7110
 Red. masses --      2.0586                 1.3740                 2.6985
 Frc consts  --      0.0099                 0.0080                 0.0251
 IR Inten    --      6.4893                 2.4390                10.4063

                     10                     11                     12
                      A                      A                      A
 Frequencies --    152.3639               178.5529               193.7068
 Red. masses --      3.2560                 3.3690                 2.0109
 Frc consts  --      0.0445                 0.0633                 0.0445
 IR Inten    --      1.0232                 5.1174                 7.3990

                     13                     14                     15
                      A                      A                      A
 Frequencies --    209.9096               221.0141               230.9514
 Red. masses --      3.3332                 1.3469                 1.3129
 Frc consts  --      0.0865                 0.0388                 0.0413
 IR Inten    --      1.5573                 6.5379                 4.4972

                     16                     17                     18
                      A                      A                      A
 Frequencies --    249.3277               265.8088               277.1339
 Red. masses --      3.4371                 4.0103                 7.7965
 Frc consts  --      0.1259                 0.1669                 0.3528
 IR Inten    --     44.9785                10.9324               136.5097

                     19                     20                     21
                      A                      A                      A
 Frequencies --    292.4927               308.9459               325.2687
 Red. masses --      3.2192                 2.7871                 3.3946
 Frc consts  --      0.1623                 0.1567                 0.2116
 IR Inten    --     30.2955                 1.1828                30.8513

                     22                     23                     24
                      A                      A                      A
 Frequencies --    345.2620               375.3945               407.7717
 Red. masses --      4.1500                 4.6102                 2.8673
 Frc consts  --      0.2915                 0.3828                 0.2809
 IR Inten    --     13.0762                 9.0764                 2.0290

                     25                     26                     27
                      A                      A                      A
 Frequencies --    427.8359               479.4428               536.2113
 Red. masses --      2.8915                 3.8373                 3.6243
 Frc consts  --      0.3118                 0.5197                 0.6140
 IR Inten    --      0.6631                26.6948                17.0587

                     28                     29                     30
                      A                      A                      A
 Frequencies --    591.2815               620.8878               627.3713
 Red. masses --      4.2994                 3.2691                 3.5667
 Frc consts  --      0.8856                 0.7425                 0.8271
 IR Inten    --    296.0263               110.8531                81.2580

                     31                     32                     33
                      A                      A                      A
 Frequencies --    641.4166               697.3347               721.6333
 Red. masses --      6.2388                 2.1236                 1.6819
 Frc consts  --      1.5123                 0.6084                 0.5160
 IR Inten    --     21.9690                20.8758                63.1461

                     34                     35                     36
                      A                      A                      A
 Frequencies --    737.3657               798.9948               810.5287
 Red. masses --      4.1553                 4.4380                 2.6693
 Frc consts  --      1.3311                 1.6693                 1.0332
 IR Inten    --    242.6051                23.4861                16.9216

                     37                     38                     39
                      A                      A                      A
 Frequencies --    872.3979               875.9976               961.7634
 Red. masses --      2.9064                 1.2587                 2.1899
 Frc consts  --      1.3033                 0.5691                 1.1935
 IR Inten    --     95.0427                 1.3474                11.1287

                     40                     41                     42
                      A                      A                      A
 Frequencies --    974.3437              1018.0385              1019.2929
 Red. masses --      1.8305                 1.1345                 1.3615
 Frc consts  --      1.0238                 0.6928                 0.8334
 IR Inten    --      3.8158                27.4967                 1.5403

                     43                     44                     45
                      A                      A                      A
 Frequencies --   1025.9505              1035.8402              1037.3672
 Red. masses --      5.7488                 1.3413                 1.8488
 Frc consts  --      3.5652                 0.8479                 1.1722
 IR Inten    --      2.2564                 3.0833                86.8263

                     46                     47                     48
                      A                      A                      A
 Frequencies --   1055.6588              1068.3260              1071.0259
 Red. masses --      1.2001                 1.3256                 2.0555
 Frc consts  --      0.7880                 0.8914                 1.3892
 IR Inten    --     45.0152                63.2936                 4.7214

                     49                     50                     51
                      A                      A                      A
 Frequencies --   1080.8388              1083.9747              1113.4553
 Red. masses --      1.3719                 4.7153                 2.0144
 Frc consts  --      0.9443                 3.2643                 1.4714
 IR Inten    --     14.8050                63.5337               135.2371

                     52                     53                     54
                      A                      A                      A
 Frequencies --   1129.7790              1131.6520              1174.2542
 Red. masses --      1.5824                 1.2487                 1.3917
 Frc consts  --      1.1900                 0.9422                 1.1306
 IR Inten    --      5.3271                 0.7657                 8.6912

                     55                     56                     57
                      A                      A                      A
 Frequencies --   1187.4414              1213.7568              1224.3221
 Red. masses --      1.1262                 1.5438                 1.1278
 Frc consts  --      0.9356                 1.3400                 0.9961
 IR Inten    --      0.0441                36.4822                 4.1203

                     58                     59                     60
                      A                      A                      A
 Frequencies --   1232.8680              1277.7563              1318.2587
 Red. masses --      3.0000                 4.4345                 5.2458
 Frc consts  --      2.6866                 4.2657                 5.3711
 IR Inten    --     32.3330               183.2051               125.1999

                     61                     62                     63
                      A                      A                      A
 Frequencies --   1321.0378              1331.6944              1368.8572
 Red. masses --      4.8285                 1.3272                 1.3959
 Frc consts  --      4.9647                 1.3867                 1.5410
 IR Inten    --      8.3655                 3.0547                 4.2517

                     64                     65                     66
                      A                      A                      A
 Frequencies --   1411.1806              1425.1612              1437.6810
 Red. masses --      1.2465                 1.9099                 1.2150
 Frc consts  --      1.4625                 2.2856                 1.4797
 IR Inten    --      0.8858               303.0793                43.2364

                     67                     68                     69
                      A                      A                      A
 Frequencies --   1452.5006              1466.1648              1479.1823
 Red. masses --      1.1826                 1.2254                 1.0696
 Frc consts  --      1.4700                 1.5521                 1.3788
 IR Inten    --     36.5955               106.5683                37.1052

                     70                     71                     72
                      A                      A                      A
 Frequencies --   1482.3876              1483.1643              1488.0930
 Red. masses --      1.1071                 1.0568                 2.0575
 Frc consts  --      1.4334                 1.3696                 2.6844
 IR Inten    --     39.0893                15.5450                17.9195

                     73                     74                     75
                      A                      A                      A
 Frequencies --   1495.1505              1498.3221              1503.2539
 Red. masses --      1.1405                 1.0436                 1.0547
 Frc consts  --      1.5022                 1.3804                 1.4042
 IR Inten    --     12.3738                20.7553                 4.6416

                     76                     77                     78
                      A                      A                      A
 Frequencies --   1509.9481              1533.4271              1540.4333
 Red. masses --      1.0503                 1.8726                 1.7196
 Frc consts  --      1.4108                 2.5943                 2.4042
 IR Inten    --     24.6612               356.7068               166.0278

                     79                     80                     81
                      A                      A                      A
 Frequencies --   1566.8222              1629.6112              1640.6924
 Red. masses --      4.4530                 7.9300                 1.0967
 Frc consts  --      6.4408                12.4077                 1.7394
 IR Inten    --    271.9265               811.8021                56.3621

                     82                     83                     84
                      A                      A                      A
 Frequencies --   1650.1672              1675.3311              3013.9671
 Red. masses --      5.4693                 5.8775                 1.0523
 Frc consts  --      8.7748                 9.7195                 5.6318
 IR Inten    --      7.8453                 1.2390               109.8297

                     85                     86                     87
                      A                      A                      A
 Frequencies --   3029.3890              3034.5691              3067.3189
 Red. masses --      1.0414                 1.0402                 1.0355
 Frc consts  --      5.6307                 5.6437                 5.7400
 IR Inten    --     59.4123               132.8071                31.0960

                     88                     89                     90
                      A                      A                      A
 Frequencies --   3085.6931              3090.1456              3094.5170
 Red. masses --      1.1022                 1.0833                 1.0996
 Frc consts  --      6.1833                 6.0946                 6.2041
 IR Inten    --     87.8175                40.3014                15.3775

                     91                     92                     93
                      A                      A                      A
 Frequencies --   3137.8126              3144.8325              3173.6470
 Red. masses --      1.1008                 1.1036                 1.0986
 Frc consts  --      6.3859                 6.4305                 6.5191
 IR Inten    --     25.9909                 5.8897                 8.3650

                     94                     95                     96
                      A                      A                      A
 Frequencies --   3175.8311              3180.1987              3198.9929
 Red. masses --      1.0977                 1.1043                 1.0863
 Frc consts  --      6.5230                 6.5803                 6.5500
 IR Inten    --      8.8477                12.8996                 0.1346

                     97                     98                     99
                      A                      A                      A
 Frequencies --   3208.2917              3219.2865              3227.9495
 Red. masses --      1.0903                 1.0945                 1.0966
 Frc consts  --      6.6124                 6.6833                 6.7320
 IR Inten    --     14.2528                23.6093                10.4337

                    100                    101                    102
                      A                      A                      A
 Frequencies --   3252.6389              3529.8508              3611.9130
 Red. masses --      1.0916                 1.0511                 1.0970
 Frc consts  --      6.8046                 7.7160                 8.4318
 IR Inten    --      2.5094                56.2095                60.3455

 - Thermochemistry -
 -------------------
 Temperature   298.150 Kelvin.  Pressure   1.00000 Atm.
 Atom     1 has atomic number  6 and mass  12.00000

 Molecular mass:   254.11859 amu.
 Principal axes and moments of inertia in atomic units:
                           1         2         3
     Eigenvalues --  3914.622954089.679915504.81141
           X            0.98729  -0.15503   0.03491
           Y            0.15682   0.98602  -0.05638
           Z           -0.02568   0.06114   0.99780
 This molecule is an asymmetric top.
 Rotational symmetry number  1.
 Warning -- assumption of classical behavior for rotation
           may cause significant error
 Rotational temperatures (Kelvin)      0.02213     0.02118     0.01573
 Rotational constants (GHZ):           0.46103     0.44129     0.32785
    1 imaginary frequencies ignored.
 Zero-point vibrational energy     797988.6 (Joules/Mol)
                                  190.72384 (Kcal/Mol)
 Warning -- explicit consideration of  27 degrees of freedom as
           vibrations may cause significant error
 Vibrational temperatures:     64.66    74.59    91.54   114.60   117.95
          (Kelvin)            129.82   143.32   180.87   219.22   256.90
                              278.70   302.01   317.99   332.29   358.73
                              382.44   398.73   420.83   444.50   467.99
                              496.75   540.11   586.69   615.56   689.81
                              771.49   850.72   893.32   902.65   922.86
                             1003.31  1038.27  1060.90  1149.58  1166.17
                             1255.19  1260.37  1383.76  1401.86  1464.73
                             1466.54  1476.11  1490.34  1492.54  1518.86
                             1537.08  1540.97  1555.09  1559.60  1602.01
                             1625.50  1628.19  1689.49  1708.46  1746.33
                             1761.53  1773.82  1838.41  1896.68  1900.68
                             1916.01  1969.48  2030.37  2050.49  2068.50
                             2089.82  2109.48  2128.21  2132.83  2133.94
                             2141.03  2151.19  2155.75  2162.85  2172.48
                             2206.26  2216.34  2254.31  2344.65  2360.59
                             2374.22  2410.43  4336.43  4358.62  4366.07
                             4413.19  4439.62  4446.03  4452.32  4514.61
                             4524.71  4566.17  4569.31  4575.60  4602.64
                             4616.02  4631.84  4644.30  4679.82  5078.67
                             5196.74

 Zero-point correction=                           0.303938 (Hartree/Particle)
 Thermal correction to Energy=                    0.322592
 Thermal correction to Enthalpy=                  0.323536
 Thermal correction to Gibbs Free Energy=         0.257174
 Sum of electronic and zero-point Energies=          -1151.445639
 Sum of electronic and thermal Energies=             -1151.426985
 Sum of electronic and thermal Enthalpies=           -1151.426041
 Sum of electronic and thermal Free Energies=        -1151.492403

                     E (Thermal)             CV                S
                      KCal/Mol        Cal/Mol-Kelvin    Cal/Mol-Kelvin
 Total                  202.429             68.026            139.670
 Electronic               0.000              0.000              0.000
 Translational            0.889              2.981             42.498
 Rotational               0.889              2.981             32.844
 Vibrational            200.652             62.065             64.328
 Vibration     1          0.595              1.979              5.028
 Vibration     2          0.596              1.977              4.746
 Vibration     3          0.597              1.972              4.342
 Vibration     4          0.600              1.963              3.900
 Vibration     5          0.600              1.961              3.843
 Vibration     6          0.602              1.956              3.655
 Vibration     7          0.604              1.949              3.462
 Vibration     8          0.611              1.927              3.011
 Vibration     9          0.619              1.900              2.642
 Vibration    10          0.629              1.869              2.343
 Vibration    11          0.635              1.849              2.192
 Vibration    12          0.642              1.826              2.044
 Vibration    13          0.648              1.809              1.951
 Vibration    14          0.653              1.794              1.872
 Vibration    15          0.662              1.764              1.735
 Vibration    16          0.672              1.736              1.623
 Vibration    17          0.678              1.716              1.551
 Vibration    18          0.688              1.688              1.459
 Vibration    19          0.698              1.657              1.368
 Vibration    20          0.709              1.625              1.283
 Vibration    21          0.724              1.585              1.188
 Vibration    22          0.746              1.523              1.058
 Vibration    23          0.772              1.453              0.935
 Vibration    24          0.789              1.410              0.866
 Vibration    25          0.836              1.296              0.712
 Vibration    26          0.891              1.170              0.573
 Vibration    27          0.949              1.050              0.465

 Optimization completed.
    -- Stationary point found.
 Normal termination of Gaussian 16 at Tue Jun  7 01:57:15 2022.
