 Gaussian 16, Revision A.03,
 Gaussian 16:  ES64L-G16RevA.03 25-Dec-2016

 ----------------------------------------------------------------------
 # wB97XD def2tzvp, opt=(ts, noeigen, calcfc, maxcycles=70, maxstep=8),
  freq=noraman, scrf=(iefpcm, solvent=water)
 ----------------------------------------------------------------------

 ------------------------
 1_iteration/TS-860-1.out
 ------------------------
 Symbolic Z-matrix:
 Charge =  0 Multiplicity = 1

 SCF Done:  E(RwB97XD) =  -901.274632826     A.U. after   14 cycles
 SCF Done:  E(RwB97XD) =  -901.274632842     A.U. after    7 cycles
 Optimization completed.
    -- Stationary point found.
 Normal termination of Gaussian 16 at Thu Apr 15 00:52:54 2021.

 ---------------------------------------------------------------------
 #N Geom=AllCheck Guess=TCheck SCRF=Check GenChk RwB97XD/def2TZVP Freq
 ---------------------------------------------------------------------

 Structure from the checkpoint file:  "/beegfs/scratch/user/q/tla25/Gau-56181.chk"
 ------------------------
 1_iteration/TS-860-1.out
 ------------------------
 Charge =  0 Multiplicity = 1

                         Standard orientation:
 ---------------------------------------------------------------------
 Center     Atomic      Atomic             Coordinates (Angstroms)
 Number     Number       Type             X           Y           Z
 ---------------------------------------------------------------------
      1          6           0       -0.004746   -0.740777    0.279043
      2          6           0        1.406018   -0.551850    0.132461
      3          8           0        2.263310   -1.155967    0.766410
      4          6           0       -0.867134    0.034691   -0.476542
      5          6           0       -0.449256    2.260368    1.084328
      6          1           0       -0.819884    3.002411    1.790066
      7          1           0        0.195312    1.552902    1.606510
      8          1           0        0.127470    2.752008    0.304082
      9          7           0       -1.542085    1.513673    0.472397
     10          1           0       -2.167970    1.128149    1.170922
     11          1           0       -2.093328    2.084623   -0.158604
     12         17           0       -2.448539   -0.637141   -0.968915
     13          1           0       -0.448203    0.608303   -1.289531
     14          6           0       -0.468353   -1.694927    1.344143
     15          1           0       -1.552469   -1.806774    1.321664
     16          1           0       -0.030783   -2.687727    1.215877
     17          1           0       -0.193273   -1.353899    2.347258
     18          8           0        1.765700    0.372237   -0.802258
     19          6           0        3.157232    0.576241   -0.984530
     20          1           0        3.248001    1.341004   -1.752493
     21          1           0        3.628812    0.920516   -0.063206
     22          1           0        3.651434   -0.338475   -1.314402
 ---------------------------------------------------------------------

 SCF Done:  E(RwB97XD) =  -901.274632842     A.U. after    1 cycles

 The electronic state is 1-A.
 Alpha  occ. eigenvalues -- -101.69548 -19.27623 -19.20745 -14.49206 -10.38963
 Alpha  occ. eigenvalues --  -10.38327 -10.32411 -10.31793 -10.26829 -10.25957
 Alpha  occ. eigenvalues --   -9.58141  -7.32756  -7.31937  -7.31904  -1.18875
 Alpha  occ. eigenvalues --   -1.09265  -1.04803  -0.96442  -0.88306  -0.81315
 Alpha  occ. eigenvalues --   -0.79232  -0.77287  -0.69701  -0.64466  -0.62803
 Alpha  occ. eigenvalues --   -0.59568  -0.57672  -0.56541  -0.55791  -0.54100
 Alpha  occ. eigenvalues --   -0.51556  -0.50622  -0.49471  -0.48088  -0.46192
 Alpha  occ. eigenvalues --   -0.45861  -0.45763  -0.45240  -0.43023  -0.39635
 Alpha  occ. eigenvalues --   -0.38775  -0.37650  -0.34755  -0.27012
 Alpha virt. eigenvalues --    0.06459   0.09318   0.10251   0.12784   0.14094
 Alpha virt. eigenvalues --    0.15328   0.15762   0.16908   0.17845   0.17975
 Alpha virt. eigenvalues --    0.19672   0.20172   0.20633   0.21007   0.21138

 Mulliken charges:
               1
     1  C   -0.260304
     2  C    0.421329
     3  O   -0.514945
     4  C   -0.005661
     5  C   -0.298511
     6  H    0.161537
     7  H    0.157532
     8  H    0.157329
     9  N   -0.304285
    10  H    0.285665
    11  H    0.291851
    12  Cl  -0.140606
    13  H    0.192503
    14  C   -0.368130
    15  H    0.121829
    16  H    0.118963
    17  H    0.115224
    18  O   -0.322228
    19  C   -0.190554
    20  H    0.135038
    21  H    0.122622
    22  H    0.123803
 Sum of Mulliken charges =  -0.00000

 Dipole moment (field-independent basis, Debye):
    X=             -4.7118    Y=              8.0407    Z=              0.1666  Tot=              9.3210
 Quadrupole moment (field-independent basis, Debye-Ang):
   XX=            -68.6617   YY=            -62.8192   ZZ=            -67.2205
   XY=             -0.3254   XZ=            -10.1705   YZ=              3.6151

  Exact polarizability: 174.397 -12.723 140.236   9.434  -4.287 119.925
 Approx polarizability: 134.146  -9.462 114.500   8.891  -4.726 103.390

 ******    1 imaginary frequencies (negative Signs) ******

                      1                      2                      3
                      A                      A                      A
 Frequencies --   -378.9904                59.0119                60.6628
 Red. masses --      6.1611                 2.3253                 2.6327
 Frc consts  --      0.5214                 0.0048                 0.0057
 IR Inten    --    869.1509                 0.8185                 1.5722

                      4                      5                      6
                      A                      A                      A
 Frequencies --     84.9257                98.4342               123.3876
 Red. masses --      1.9195                 1.7056                 3.3334
 Frc consts  --      0.0082                 0.0097                 0.0299
 IR Inten    --      6.9105                 1.8793                 8.5771

                      7                      8                      9
                      A                      A                      A
 Frequencies --    147.6403               161.1290               186.4419
 Red. masses --      3.2164                 2.4520                 1.2249
 Frc consts  --      0.0413                 0.0375                 0.0251
 IR Inten    --      5.1341                 4.8907                 1.3542

                     10                     11                     12
                      A                      A                      A
 Frequencies --    198.2575               225.0234               257.1508
 Red. masses --      1.2626                 5.0979                 2.9904
 Frc consts  --      0.0292                 0.1521                 0.1165
 IR Inten    --      8.2365                 8.1472                 2.6042

                     13                     14                     15
                      A                      A                      A
 Frequencies --    307.6991               350.6963               370.7149
 Red. masses --      3.5237                 4.5156                 6.6398
 Frc consts  --      0.1966                 0.3272                 0.5376
 IR Inten    --     19.8795                43.9687                 7.0781

                     16                     17                     18
                      A                      A                      A
 Frequencies --    472.6713               485.2540               640.9224
 Red. masses --      2.9695                 6.1589                 2.0839
 Frc consts  --      0.3909                 0.8545                 0.5044
 IR Inten    --     80.3935                19.1445                23.0412

                     19                     20                     21
                      A                      A                      A
 Frequencies --    726.3989               784.2960               788.1041
 Red. masses --      3.4962                 2.9797                 7.5686
 Frc consts  --      1.0869                 1.0799                 2.7697
 IR Inten    --    130.2297                85.3422                48.5688

                     22                     23                     24
                      A                      A                      A
 Frequencies --    843.9696               972.9549              1008.6665
 Red. masses --      4.1763                 2.2237                 1.1358
 Frc consts  --      1.7526                 1.2403                 0.6809
 IR Inten    --    123.1619               161.6116                17.8318

                     25                     26                     27
                      A                      A                      A
 Frequencies --   1036.2898              1056.1811              1066.7454
 Red. masses --      1.1710                 2.2209                 1.4011
 Frc consts  --      0.7409                 1.4596                 0.9394
 IR Inten    --     67.0933                38.0853                21.1418

                     28                     29                     30
                      A                      A                      A
 Frequencies --   1085.3695              1151.5729              1167.9770
 Red. masses --      4.8881                 3.9815                 1.1080
 Frc consts  --      3.3927                 3.1109                 0.8906
 IR Inten    --     41.3898               345.4841                49.3685

                     31                     32                     33
                      A                      A                      A
 Frequencies --   1182.7263              1215.2720              1226.5413
 Red. masses --      1.2765                 1.5489                 1.3913
 Frc consts  --      1.0520                 1.3478                 1.2332
 IR Inten    --      4.0613               152.2260                32.9839

                     34                     35                     36
                      A                      A                      A
 Frequencies --   1287.9287              1342.6298              1381.0924
 Red. masses --      1.6833                 1.3206                 2.1918
 Frc consts  --      1.6451                 1.4026                 2.4632
 IR Inten    --    312.8362                 2.3467               365.9422

                     37                     38                     39
                      A                      A                      A
 Frequencies --   1418.8310              1448.3612              1468.4220
 Red. masses --      1.3535                 1.4537                 1.4608
 Frc consts  --      1.6053                 1.7967                 1.8558
 IR Inten    --     29.4044               158.9026               149.2009

                     40                     41                     42
                      A                      A                      A
 Frequencies --   1475.2405              1483.5460              1484.2444
 Red. masses --      1.0460                 1.1174                 1.1600
 Frc consts  --      1.3412                 1.4490                 1.5056
 IR Inten    --     15.2647                30.3006                37.7826

                     43                     44                     45
                      A                      A                      A
 Frequencies --   1493.5588              1498.3316              1500.8354
 Red. masses --      1.0398                 1.0760                 1.0417
 Frc consts  --      1.3666                 1.4233                 1.3825
 IR Inten    --     23.8114                 4.2994                18.7487

                     46                     47                     48
                      A                      A                      A
 Frequencies --   1515.2523              1643.9065              1684.6366
 Red. masses --      1.6565                 1.0888                11.0068
 Frc consts  --      2.2409                 1.7337                18.4045
 IR Inten    --    346.7974                68.4229              1062.9745

                     49                     50                     51
                      A                      A                      A
 Frequencies --   3031.0149              3056.9572              3071.7779
 Red. masses --      1.0426                 1.0309                 1.0330
 Frc consts  --      5.6437                 5.6762                 5.7430
 IR Inten    --     81.0774                69.1166                29.3089

                     52                     53                     54
                      A                      A                      A
 Frequencies --   3084.1264              3129.7442              3133.0962
 Red. masses --      1.0966                 1.1064                 1.0985
 Frc consts  --      6.1457                 6.3850                 6.3535
 IR Inten    --     47.3804                45.4087                25.2563

                     55                     56                     57
                      A                      A                      A
 Frequencies --   3151.3475              3163.5309              3172.5400
 Red. masses --      1.1046                 1.1049                 1.1060
 Frc consts  --      6.4633                 6.5153                 6.5586
 IR Inten    --      8.2923                28.0451                12.5288

                     58                     59                     60
                      A                      A                      A
 Frequencies --   3240.3154              3520.2012              3604.2919
 Red. masses --      1.0914                 1.0506                 1.0968
 Frc consts  --      6.7519                 7.6706                 8.3953
 IR Inten    --      1.6644                54.0491                51.5056

 - Thermochemistry -
 -------------------
 Temperature   298.150 Kelvin.  Pressure   1.00000 Atm.
 Atom     1 has atomic number  6 and mass  12.00000

 Molecular mass:   165.05566 amu.
 Principal axes and moments of inertia in atomic units:
                           1         2         3
     Eigenvalues --  1244.724502539.619642865.88196
           X            0.99921  -0.00261  -0.03959
           Y            0.00168   0.99972  -0.02359
           Z            0.03964   0.02350   0.99894
 This molecule is an asymmetric top.
 Rotational symmetry number  1.
 Warning -- assumption of classical behavior for rotation
           may cause significant error
 Rotational temperatures (Kelvin)      0.06958     0.03411     0.03022
 Rotational constants (GHZ):           1.44991     0.71063     0.62973
    1 imaginary frequencies ignored.
 Zero-point vibrational energy     478678.8 (Joules/Mol)
                                  114.40698 (Kcal/Mol)
 Warning -- explicit consideration of  16 degrees of freedom as
           vibrations may cause significant error
 Vibrational temperatures:     84.90    87.28   122.19   141.62   177.53
          (Kelvin)            212.42   231.83   268.25   285.25   323.76
                              369.98   442.71   504.57   533.38   680.07
                              698.17   922.14  1045.13  1128.43  1133.91
                             1214.28  1399.87  1451.25  1490.99  1519.61
                             1534.81  1561.60  1656.86  1680.46  1701.68
                             1748.51  1764.72  1853.04  1931.74  1987.08
                             2041.38  2083.87  2112.73  2122.54  2134.49
                             2135.50  2148.90  2155.77  2159.37  2180.11
                             2365.21  2423.82  4360.95  4398.28  4419.60
                             4437.37  4503.00  4507.83  4534.09  4551.62
                             4564.58  4662.09  5064.78  5185.77

 Zero-point correction=                           0.182319 (Hartree/Particle)
 Thermal correction to Energy=                    0.194822
 Thermal correction to Enthalpy=                  0.195766
 Thermal correction to Gibbs Free Energy=         0.142785
 Sum of electronic and zero-point Energies=           -901.092314
 Sum of electronic and thermal Energies=              -901.079811
 Sum of electronic and thermal Enthalpies=            -901.078867
 Sum of electronic and thermal Free Energies=         -901.131848

                     E (Thermal)             CV                S
                      KCal/Mol        Cal/Mol-Kelvin    Cal/Mol-Kelvin
 Total                  122.253             42.203            111.508
 Electronic               0.000              0.000              0.000
 Translational            0.889              2.981             41.212
 Rotational               0.889              2.981             30.583
 Vibrational            120.475             36.242             39.713
 Vibration     1          0.596              1.974              4.490
 Vibration     2          0.597              1.973              4.436
 Vibration     3          0.601              1.960              3.774
 Vibration     4          0.604              1.950              3.485
 Vibration     5          0.610              1.930              3.047
 Vibration     6          0.617              1.905              2.702
 Vibration     7          0.622              1.890              2.536
 Vibration     8          0.632              1.858              2.263
 Vibration     9          0.637              1.842              2.149
 Vibration    10          0.650              1.803              1.918
 Vibration    11          0.667              1.751              1.681
 Vibration    12          0.698              1.659              1.375
 Vibration    13          0.728              1.574              1.163
 Vibration    14          0.743              1.532              1.077
 Vibration    15          0.830              1.311              0.730
 Vibration    16          0.841              1.283              0.696

 Optimization completed.
    -- Stationary point found.
 Normal termination of Gaussian 16 at Thu Apr 15 00:59:20 2021.
