 Gaussian 16, Revision A.03,
 Gaussian 16:  ES64L-G16RevA.03 25-Dec-2016

 ----------------------------------------------------------------------
 # wB97XD def2tzvp, opt=(ts, noeigen, calcfc, maxcycles=70, maxstep=1),
  freq=noraman, scrf=(iefpcm, solvent=water)
 ----------------------------------------------------------------------

 ------------------------
 0_iteration/TS-851-0.out
 ------------------------
 Symbolic Z-matrix:
 Charge =  0 Multiplicity = 1

 SCF Done:  E(RwB97XD) =  -802.783017261     A.U. after   14 cycles
 SCF Done:  E(RwB97XD) =  -802.783004135     A.U. after   10 cycles
 SCF Done:  E(RwB97XD) =  -802.782995114     A.U. after   10 cycles
 SCF Done:  E(RwB97XD) =  -802.782990812     A.U. after   10 cycles
 SCF Done:  E(RwB97XD) =  -802.782995374     A.U. after   10 cycles
 SCF Done:  E(RwB97XD) =  -802.783012440     A.U. after   10 cycles
 SCF Done:  E(RwB97XD) =  -802.783042220     A.U. after   10 cycles
 SCF Done:  E(RwB97XD) =  -802.783082712     A.U. after   10 cycles
 SCF Done:  E(RwB97XD) =  -802.783130457     A.U. after   10 cycles
 SCF Done:  E(RwB97XD) =  -802.783182574     A.U. after   10 cycles
 SCF Done:  E(RwB97XD) =  -802.786269086     A.U. after   10 cycles
 SCF Done:  E(RwB97XD) =  -802.786301479     A.U. after   10 cycles
 SCF Done:  E(RwB97XD) =  -802.786326173     A.U. after   10 cycles
 SCF Done:  E(RwB97XD) =  -802.786341278     A.U. after   10 cycles
 SCF Done:  E(RwB97XD) =  -802.786345242     A.U. after   10 cycles
 SCF Done:  E(RwB97XD) =  -802.786345411     A.U. after    8 cycles
 SCF Done:  E(RwB97XD) =  -802.786345392     A.U. after    7 cycles
 SCF Done:  E(RwB97XD) =  -802.786344734     A.U. after    8 cycles
 SCF Done:  E(RwB97XD) =  -802.786345419     A.U. after    8 cycles
 Optimization completed.
    -- Stationary point found.
 Normal termination of Gaussian 16 at Wed Feb 24 01:09:40 2021.

 ---------------------------------------------------------------------
 #N Geom=AllCheck Guess=TCheck SCRF=Check GenChk RwB97XD/def2TZVP Freq
 ---------------------------------------------------------------------

 Structure from the checkpoint file:  "/beegfs/scratch/user/q/tla25/Gau-2756.chk"
 ------------------------
 0_iteration/TS-851-0.out
 ------------------------
 Charge =  0 Multiplicity = 1

                         Standard orientation:
 ---------------------------------------------------------------------
 Center     Atomic      Atomic             Coordinates (Angstroms)
 Number     Number       Type             X           Y           Z
 ---------------------------------------------------------------------
      1          6           0        0.484760   -0.627649    0.421646
      2          6           0        1.780614   -0.317210   -0.117354
      3          8           0        1.978348    0.232302   -1.211957
      4          6           0       -0.641246   -0.290847   -0.297915
      5          6           0       -0.361376    2.400577    0.245858
      6          1           0       -0.725724    3.309928    0.722278
      7          1           0        0.487287    2.010336    0.808333
      8          1           0       -0.040051    2.622001   -0.769324
      9          7           0       -1.390373    1.368142    0.207402
     10          1           0       -1.791866    1.209173    1.124983
     11          1           0       -2.145161    1.601264   -0.428466
     12         17           0       -2.107238   -1.269049   -0.067000
     13          1           0       -0.510913   -0.019310   -1.337396
     14          1           0        0.396265   -1.091551    1.394730
     15          7           0        2.856206   -0.649130    0.671616
     16          1           0        3.756533   -0.650862    0.224080
     17          1           0        2.732557   -1.297872    1.428901
 ---------------------------------------------------------------------

 SCF Done:  E(RwB97XD) =  -802.786345419     A.U. after    1 cycles

 The electronic state is 1-A.
 Alpha  occ. eigenvalues -- -101.69643 -19.19252 -14.48898 -14.43150 -10.38280
 Alpha  occ. eigenvalues --  -10.37195 -10.31555 -10.24809  -9.58234  -7.32856
 Alpha  occ. eigenvalues --   -7.32026  -7.31994  -1.11631  -1.04498  -0.98508
 Alpha  occ. eigenvalues --   -0.96335  -0.84866  -0.78952  -0.72337  -0.65050
 Alpha  occ. eigenvalues --   -0.63211  -0.60625  -0.57723  -0.57141  -0.54411
 Alpha  occ. eigenvalues --   -0.51105  -0.50242  -0.48692  -0.47694  -0.46453
 Alpha  occ. eigenvalues --   -0.46037  -0.40018  -0.38698  -0.34785  -0.33262
 Alpha  occ. eigenvalues --   -0.27721
 Alpha virt. eigenvalues --    0.06725   0.09362   0.11356   0.12774   0.14826
 Alpha virt. eigenvalues --    0.15533   0.16894   0.17599   0.18562   0.19904
 Alpha virt. eigenvalues --    0.20528   0.21219   0.23119   0.24653   0.26998

 Mulliken charges:
               1
     1  C   -0.455777
     2  C    0.336273
     3  O   -0.562135
     4  C    0.036182
     5  C   -0.281970
     6  H    0.157973
     7  H    0.149866
     8  H    0.152165
     9  N   -0.314748
    10  H    0.279889
    11  H    0.289971
    12  Cl  -0.140046
    13  H    0.175965
    14  H    0.138066
    15  N   -0.491838
    16  H    0.260038
    17  H    0.270125
 Sum of Mulliken charges =  -0.00000

 Dipole moment (field-independent basis, Debye):
    X=             -3.9633    Y=              3.3167    Z=              3.8734  Tot=              6.4584
 Quadrupole moment (field-independent basis, Debye-Ang):
   XX=            -51.4450   YY=            -49.3472   ZZ=            -56.4895
   XY=            -13.2314   XZ=              7.2289   YZ=             -0.9014

  Exact polarizability: 149.157  -6.988 110.530   2.811  -6.259  93.828
 Approx polarizability: 111.717  -2.929  89.632   1.652  -6.672  85.213

 ******    1 imaginary frequencies (negative Signs) ******

                      1                      2                      3
                      A                      A                      A
 Frequencies --   -373.2412                72.5418                97.0491
 Red. masses --      5.5559                 3.4193                 2.4638
 Frc consts  --      0.4560                 0.0106                 0.0137
 IR Inten    --    816.4775                14.9907                17.7516

                      4                      5                      6
                      A                      A                      A
 Frequencies --    103.4056               167.8040               190.6137
 Red. masses --      4.9396                 4.3416                 1.1773
 Frc consts  --      0.0311                 0.0720                 0.0252
 IR Inten    --     10.6352                21.3395                 2.8715

                      7                      8                      9
                      A                      A                      A
 Frequencies --    215.2507               286.3205               343.2414
 Red. masses --      4.2104                 4.0007                 2.3838
 Frc consts  --      0.1149                 0.1932                 0.1655
 IR Inten    --      3.9671                25.8531               155.4293

                     10                     11                     12
                      A                      A                      A
 Frequencies --    358.9680               417.2764               472.3397
 Red. masses --      1.9987                 2.3727                 1.7833
 Frc consts  --      0.1517                 0.2434                 0.2344
 IR Inten    --    284.4437                90.2959                24.1854

                     13                     14                     15
                      A                      A                      A
 Frequencies --    488.1775               615.8403               685.3151
 Red. masses --      1.3377                 4.6926                 1.2338
 Frc consts  --      0.1878                 1.0486                 0.3414
 IR Inten    --     15.6923                80.9320                88.0104

                     16                     17                     18
                      A                      A                      A
 Frequencies --    717.6674               791.6618               793.5378
 Red. masses --      1.6380                 6.0866                 5.4412
 Frc consts  --      0.4971                 2.2475                 2.0187
 IR Inten    --     28.5464                84.4126               168.3467

                     19                     20                     21
                      A                      A                      A
 Frequencies --    979.6983              1010.3915              1036.1458
 Red. masses --      2.0819                 1.2007                 1.1133
 Frc consts  --      1.1773                 0.7222                 0.7042
 IR Inten    --     12.3128                22.6783                69.9794

                     22                     23                     24
                      A                      A                      A
 Frequencies --   1083.6309              1092.2917              1172.0723
 Red. masses --      4.7433                 1.9322                 1.1522
 Frc consts  --      3.2817                 1.3583                 0.9326
 IR Inten    --     45.9073                54.7103                71.8650

                     25                     26                     27
                      A                      A                      A
 Frequencies --   1221.1374              1227.0761              1273.1133
 Red. masses --      1.2087                 1.4062                 1.4370
 Frc consts  --      1.0619                 1.2475                 1.3723
 IR Inten    --    108.7208                20.3574               220.5925

                     28                     29                     30
                      A                      A                      A
 Frequencies --   1342.0637              1359.1627              1453.4504
 Red. masses --      1.3700                 3.7928                 1.2393
 Frc consts  --      1.4539                 4.1281                 1.5425
 IR Inten    --      6.4498                36.8976               161.4786

                     31                     32                     33
                      A                      A                      A
 Frequencies --   1488.2100              1493.3041              1502.3397
 Red. masses --      1.0457                 2.9273                 1.0363
 Frc consts  --      1.3645                 3.8461                 1.3781
 IR Inten    --      9.5770              1198.1957                22.3244

                     34                     35                     36
                      A                      A                      A
 Frequencies --   1619.9932              1642.2197              1657.5992
 Red. masses --      1.3122                 1.0928                 4.7872
 Frc consts  --      2.0290                 1.7365                 7.7498
 IR Inten    --    191.8279                63.8176               598.3117

                     37                     38                     39
                      A                      A                      A
 Frequencies --   3070.0204              3148.6476              3171.2833
 Red. masses --      1.0330                 1.1047                 1.1058
 Frc consts  --      5.7363                 6.4530                 6.5525
 IR Inten    --     32.4565                 7.9831                13.0369

                     40                     41                     42
                      A                      A                      A
 Frequencies --   3208.0061              3211.7202              3519.4966
 Red. masses --      1.0935                 1.0873                 1.0504
 Frc consts  --      6.6304                 6.6083                 7.6657
 IR Inten    --      2.9646                 5.2337                47.7188

                     43                     44                     45
                      A                      A                      A
 Frequencies --   3605.2175              3613.2858              3734.2421
 Red. masses --      1.0967                 1.0461                 1.1030
 Frc consts  --      8.3987                 8.0467                 9.0620
 IR Inten    --     48.3239                64.5374                50.1398

 - Thermochemistry -
 -------------------
 Temperature   298.150 Kelvin.  Pressure   1.00000 Atm.
 Atom     1 has atomic number  6 and mass  12.00000

 Molecular mass:   136.04034 amu.
 Principal axes and moments of inertia in atomic units:
                           1         2         3
     Eigenvalues --   845.878961721.051942255.28342
           X            0.99786  -0.06425   0.01216
           Y            0.06433   0.99791  -0.00587
           Z           -0.01175   0.00664   0.99991
 This molecule is an asymmetric top.
 Rotational symmetry number  1.
 Warning -- assumption of classical behavior for rotation
           may cause significant error
 Rotational temperatures (Kelvin)      0.10240     0.05033     0.03840
 Rotational constants (GHZ):           2.13357     1.04863     0.80023
    1 imaginary frequencies ignored.
 Zero-point vibrational energy     363382.6 (Joules/Mol)
                                   86.85053 (Kcal/Mol)
 Warning -- explicit consideration of  13 degrees of freedom as
           vibrations may cause significant error
 Vibrational temperatures:    104.37   139.63   148.78   241.43   274.25
          (Kelvin)            309.70   411.95   493.85   516.47   600.37
                              679.59   702.38   886.06   986.02  1032.56
                             1139.02  1141.72  1409.57  1453.73  1490.78
                             1559.10  1571.56  1686.35  1756.94  1765.49
                             1831.73  1930.93  1955.53  2091.19  2141.20
                             2148.53  2161.53  2330.81  2362.79  2384.92
                             4417.07  4530.20  4562.77  4615.61  4620.95
                             5063.77  5187.10  5198.71  5372.74

 Zero-point correction=                           0.138405 (Hartree/Particle)
 Thermal correction to Energy=                    0.147955
 Thermal correction to Enthalpy=                  0.148899
 Thermal correction to Gibbs Free Energy=         0.103218
 Sum of electronic and zero-point Energies=           -802.647940
 Sum of electronic and thermal Energies=              -802.638390
 Sum of electronic and thermal Enthalpies=            -802.637446
 Sum of electronic and thermal Free Energies=         -802.683127

                     E (Thermal)             CV                S
                      KCal/Mol        Cal/Mol-Kelvin    Cal/Mol-Kelvin
 Total                   92.843             33.378             96.144
 Electronic               0.000              0.000              0.000
 Translational            0.889              2.981             40.635
 Rotational               0.889              2.981             29.575
 Vibrational             91.066             27.416             25.934
 Vibration     1          0.599              1.967              4.083
 Vibration     2          0.603              1.951              3.513
 Vibration     3          0.605              1.946              3.389
 Vibration     4          0.625              1.882              2.460
 Vibration     5          0.634              1.853              2.222
 Vibration     6          0.645              1.818              1.999
 Vibration     7          0.684              1.699              1.496
 Vibration     8          0.722              1.589              1.197
 Vibration     9          0.734              1.557              1.127
 Vibration    10          0.780              1.433              0.901
 Vibration    11          0.829              1.311              0.731
 Vibration    12          0.844              1.276              0.688
 Vibration    13          0.975              0.998              0.423

 Optimization completed.
    -- Stationary point found.
 Normal termination of Gaussian 16 at Wed Feb 24 01:15:59 2021.
