 Gaussian 16, Revision A.03,
 Gaussian 16:  ES64L-G16RevA.03 25-Dec-2016

 ----------------------------------------------------------------------
 # wB97XD def2tzvp, opt=(ts, noeigen, calcfc, maxcycles=70, maxstep=8),
  freq=noraman, scrf=(iefpcm, solvent=water)
 ----------------------------------------------------------------------

 ------------------------
 1_iteration/TS-813-1.out
 ------------------------
 Symbolic Z-matrix:
 Charge =  0 Multiplicity = 1

 SCF Done:  E(RwB97XD) =  -1073.13354287     A.U. after   15 cycles
 SCF Done:  E(RwB97XD) =  -1073.13364687     A.U. after   12 cycles
 SCF Done:  E(RwB97XD) =  -1073.13367768     A.U. after   11 cycles
 SCF Done:  E(RwB97XD) =  -1073.13349115     A.U. after   12 cycles
 SCF Done:  E(RwB97XD) =  -1073.13367204     A.U. after   12 cycles
 SCF Done:  E(RwB97XD) =  -1073.13367837     A.U. after   10 cycles
 SCF Done:  E(RwB97XD) =  -1073.13368359     A.U. after   10 cycles
 SCF Done:  E(RwB97XD) =  -1073.13368356     A.U. after    8 cycles
 SCF Done:  E(RwB97XD) =  -1073.13368352     A.U. after    7 cycles
 Optimization completed.
    -- Stationary point found.
 Normal termination of Gaussian 16 at Thu Feb 25 21:02:19 2021.

 ---------------------------------------------------------------------
 #N Geom=AllCheck Guess=TCheck SCRF=Check GenChk RwB97XD/def2TZVP Freq
 ---------------------------------------------------------------------

 Structure from the checkpoint file:  "/beegfs/scratch/user/q/tla25/Gau-32889.chk"
 ------------------------
 1_iteration/TS-813-1.out
 ------------------------
 Charge =  0 Multiplicity = 1

                         Standard orientation:
 ---------------------------------------------------------------------
 Center     Atomic      Atomic             Coordinates (Angstroms)
 Number     Number       Type             X           Y           Z
 ---------------------------------------------------------------------
      1          6           0       -1.397426    0.740868   -0.676014
      2          6           0       -2.129793   -0.476278   -0.441454
      3          8           0       -3.274160   -0.630674   -0.907928
      4          6           0       -0.108705    1.095278   -0.256350
      5          6           0       -0.915857    1.333988    2.337659
      6          1           0       -1.154556    2.029118    3.139815
      7          1           0       -1.834644    0.943465    1.903828
      8          1           0       -0.323221    0.511795    2.729400
      9          7           0       -0.178203    2.020775    1.273441
     10          1           0       -0.695175    2.841655    0.973720
     11          1           0        0.733640    2.347813    1.580617
     12         17           0        0.578867    2.478883   -1.254327
     13          6           0        0.974965    0.057582   -0.091755
     14          6           0        1.156646   -0.821340   -1.162420
     15          6           0        2.134889   -1.797208   -1.123713
     16          6           0        2.958178   -1.915485   -0.011837
     17          6           0        2.796051   -1.043229    1.050149
     18          6           0        1.816864   -0.059272    1.008896
     19          1           0        0.510046   -0.732687   -2.025272
     20          1           0        2.253612   -2.469055   -1.963897
     21          1           0        3.721809   -2.681617    0.023547
     22          1           0        3.432014   -1.121027    1.922225
     23          1           0        1.736052    0.596626    1.862864
     24          1           0       -1.989288    1.515649   -1.143420
     25          7           0       -1.601392   -1.477865    0.327928
     26          6           0       -2.240222   -2.768003    0.428311
     27          1           0       -0.641117   -1.420105    0.610317
     28          1           0       -3.240486   -2.678211    0.853556
     29          1           0       -2.330375   -3.262741   -0.543207
     30          1           0       -1.642151   -3.398070    1.084470
 ---------------------------------------------------------------------

 SCF Done:  E(RwB97XD) =  -1073.13368352     A.U. after    1 cycles

 The electronic state is 1-A.
 Alpha  occ. eigenvalues -- -101.69292 -19.18514 -14.51470 -14.43437 -10.41140
 Alpha  occ. eigenvalues --  -10.36557 -10.32525 -10.31979 -10.30648 -10.30162
 Alpha  occ. eigenvalues --  -10.29986 -10.29933 -10.29867 -10.29772 -10.24333
 Alpha  occ. eigenvalues --   -9.57892  -7.32502  -7.31685  -7.31660  -1.11131
 Alpha  occ. eigenvalues --   -1.07121  -1.00120  -0.98610  -0.95554  -0.87922
 Alpha  occ. eigenvalues --   -0.86309  -0.84065  -0.80445  -0.78491  -0.73627
 Alpha  occ. eigenvalues --   -0.71709  -0.68148  -0.66311  -0.65322  -0.61506
 Alpha  occ. eigenvalues --   -0.59884  -0.58237  -0.57567  -0.55672  -0.54555
 Alpha  occ. eigenvalues --   -0.53571  -0.52644  -0.51861  -0.51757  -0.49903
 Alpha  occ. eigenvalues --   -0.49079  -0.47801  -0.47753  -0.46369  -0.45677
 Alpha  occ. eigenvalues --   -0.45242  -0.43623  -0.43353  -0.40318  -0.39859
 Alpha  occ. eigenvalues --   -0.34955  -0.34308  -0.32854  -0.32200  -0.26821
 Alpha virt. eigenvalues --    0.02112   0.04314   0.07708   0.08827   0.10675
 Alpha virt. eigenvalues --    0.12025   0.13515   0.13978   0.15085   0.15408
 Alpha virt. eigenvalues --    0.15950   0.17062   0.17447   0.18754   0.19128

 Mulliken charges:
               1
     1  C   -0.547179
     2  C    0.356661
     3  O   -0.577905
     4  C    0.284132
     5  C   -0.310223
     6  H    0.171674
     7  H    0.163735
     8  H    0.162000
     9  N   -0.237715
    10  H    0.289277
    11  H    0.293489
    12  Cl  -0.168790
    13  C    0.060857
    14  C   -0.288066
    15  C   -0.100004
    16  C   -0.140277
    17  C   -0.162937
    18  C   -0.176676
    19  H    0.155226
    20  H    0.149169
    21  H    0.149699
    22  H    0.149439
    23  H    0.147041
    24  H    0.113212
    25  N   -0.300525
    26  C   -0.258062
    27  H    0.248434
    28  H    0.122248
    29  H    0.117527
    30  H    0.134542
 Sum of Mulliken charges =   0.00000

 Dipole moment (field-independent basis, Debye):
    X=              8.1570    Y=              2.0396    Z=              8.7579  Tot=             12.1407
 Quadrupole moment (field-independent basis, Debye-Ang):
   XX=           -119.1070   YY=            -81.8135   ZZ=            -89.1393
   XY=             -9.9434   XZ=             -7.4325   YZ=             11.2797

  Exact polarizability: 233.453  -4.423 235.244  22.169   7.674 212.829
 Approx polarizability: 186.940  -4.731 186.718  18.880   7.072 182.888

 ******    1 imaginary frequencies (negative Signs) ******

                      1                      2                      3
                      A                      A                      A
 Frequencies --   -325.6283                23.6540                50.8314
 Red. masses --      5.3330                 3.5630                 3.4348
 Frc consts  --      0.3332                 0.0012                 0.0052
 IR Inten    --    607.1923                 1.4624                 0.7473

                      4                      5                      6
                      A                      A                      A
 Frequencies --     65.0303                85.1648               106.5369
 Red. masses --      4.7524                 4.2648                 2.2620
 Frc consts  --      0.0118                 0.0182                 0.0151
 IR Inten    --     17.7478                 1.1667                15.4369

                      7                      8                      9
                      A                      A                      A
 Frequencies --    125.9006               145.4930               155.4954
 Red. masses --      2.1030                 2.0306                 1.7911
 Frc consts  --      0.0196                 0.0253                 0.0255
 IR Inten    --      1.5590                 4.8679                 4.3611

                     10                     11                     12
                      A                      A                      A
 Frequencies --    180.4577               208.5601               216.6753
 Red. masses --      1.8798                 3.6039                 3.6116
 Frc consts  --      0.0361                 0.0924                 0.0999
 IR Inten    --      1.8077                 1.7935                27.1650

                     13                     14                     15
                      A                      A                      A
 Frequencies --    246.5197               279.4144               303.4680
 Red. masses --      3.5911                 4.2107                 3.4696
 Frc consts  --      0.1286                 0.1937                 0.1883
 IR Inten    --      7.3528                 6.3692                44.6082

                     16                     17                     18
                      A                      A                      A
 Frequencies --    323.5133               356.7884               375.0838
 Red. masses --      2.8428                 4.9510                 8.0549
 Frc consts  --      0.1753                 0.3713                 0.6677
 IR Inten    --     25.0033                60.6626                 0.2719

                     19                     20                     21
                      A                      A                      A
 Frequencies --    417.9329               426.8395               519.3470
 Red. masses --      2.1508                 1.4815                 3.6739
 Frc consts  --      0.2213                 0.1590                 0.5838
 IR Inten    --     24.2743                64.5721                12.7724

                     22                     23                     24
                      A                      A                      A
 Frequencies --    558.1218               600.6596               628.8829
 Red. masses --      3.6946                 5.7508                 1.5372
 Frc consts  --      0.6781                 1.2225                 0.3582
 IR Inten    --     67.5831               155.8288               125.5599

                     25                     26                     27
                      A                      A                      A
 Frequencies --    639.9715               678.9151               720.2256
 Red. masses --      6.1695                 2.5717                 1.7464
 Frc consts  --      1.4888                 0.6984                 0.5338
 IR Inten    --     18.0609                60.9071                52.2406

                     28                     29                     30
                      A                      A                      A
 Frequencies --    726.3925               759.7844               789.6802
 Red. masses --      2.9107                 1.9619                 6.5413
 Frc consts  --      0.9049                 0.6673                 2.4034
 IR Inten    --     16.1178               229.3363                74.7594

                     31                     32                     33
                      A                      A                      A
 Frequencies --    815.5669               861.4518               870.9735
 Red. masses --      2.4144                 3.4543                 1.2715
 Frc consts  --      0.9462                 1.5103                 0.5683
 IR Inten    --     46.0783               123.5485                 4.5928

                     34                     35                     36
                      A                      A                      A
 Frequencies --    917.0139               961.7951              1014.0034
 Red. masses --      2.7320                 1.4812                 1.3229
 Frc consts  --      1.3536                 0.8073                 0.8014
 IR Inten    --      7.5503                 1.5007                 9.7980

                     37                     38                     39
                      A                      A                      A
 Frequencies --   1020.9352              1026.6022              1037.4311
 Red. masses --      1.4113                 3.5182                 1.3236
 Frc consts  --      0.8667                 2.1846                 0.8393
 IR Inten    --     18.2236                 3.3660                 0.4091

                     40                     41                     42
                      A                      A                      A
 Frequencies --   1063.2110              1066.0804              1109.7792
 Red. masses --      3.1166                 2.3810                 1.3490
 Frc consts  --      2.0757                 1.5944                 0.9789
 IR Inten    --     20.6225                12.5598                81.9731

                     43                     44                     45
                      A                      A                      A
 Frequencies --   1125.6469              1141.7545              1153.7914
 Red. masses --      1.7124                 2.1694                 1.3905
 Frc consts  --      1.2784                 1.6662                 1.0906
 IR Inten    --     37.6603                59.2538                34.4607

                     46                     47                     48
                      A                      A                      A
 Frequencies --   1174.5166              1187.8862              1189.5862
 Red. masses --      1.8631                 1.1434                 2.3780
 Frc consts  --      1.5142                 0.9506                 1.9827
 IR Inten    --     15.7143                 7.6909                69.2067

                     49                     50                     51
                      A                      A                      A
 Frequencies --   1228.2449              1275.4308              1311.6016
 Red. masses --      1.1460                 1.3421                 2.0013
 Frc consts  --      1.0186                 1.2863                 2.0285
 IR Inten    --      1.2958                52.3993               349.1367

                     52                     53                     54
                      A                      A                      A
 Frequencies --   1316.6464              1334.4337              1363.2419
 Red. masses --      3.7836                 1.7527                 1.6753
 Frc consts  --      3.8645                 1.8388                 1.8344
 IR Inten    --    110.8796                95.4514               111.7560

                     55                     56                     57
                      A                      A                      A
 Frequencies --   1372.1932              1422.7663              1452.8172
 Red. masses --      1.3841                 2.7552                 1.2459
 Frc consts  --      1.5355                 3.2860                 1.5493
 IR Inten    --     23.7008               403.8170                15.8912

                     58                     59                     60
                      A                      A                      A
 Frequencies --   1458.5326              1474.7009              1491.6790
 Red. masses --      1.3433                 1.0525                 2.1393
 Frc consts  --      1.6836                 1.3486                 2.8046
 IR Inten    --     85.2507                15.3246                42.6957

                     61                     62                     63
                      A                      A                      A
 Frequencies --   1493.5339              1504.0854              1508.9873
 Red. masses --      1.0505                 1.0635                 1.0921
 Frc consts  --      1.3807                 1.4175                 1.4652
 IR Inten    --     33.4917                10.1736                18.0081

                     64                     65                     66
                      A                      A                      A
 Frequencies --   1545.7906              1551.1962              1624.3346
 Red. masses --      2.2469                 1.9139                 4.1456
 Frc consts  --      3.1633                 2.7134                 6.4445
 IR Inten    --     44.4483               397.3181              1125.2486

                     67                     68                     69
                      A                      A                      A
 Frequencies --   1637.6343              1654.7059              1675.7969
 Red. masses --      1.2015                 4.4297                 5.5874
 Frc consts  --      1.8985                 7.1460                 9.2449
 IR Inten    --     56.1510                 4.0637                 1.0458

                     70                     71                     72
                      A                      A                      A
 Frequencies --   3036.6120              3086.4834              3101.8771
 Red. masses --      1.0420                 1.0326                 1.0962
 Frc consts  --      5.6612                 5.7958                 6.2140
 IR Inten    --    100.2317                25.0043                52.3560

                     73                     74                     75
                      A                      A                      A
 Frequencies --   3149.6069              3171.9521              3187.3218
 Red. masses --      1.1021                 1.1053                 1.1063
 Frc consts  --      6.4415                 6.5524                 6.6216
 IR Inten    --     27.7517                 1.6144                12.3732

                     76                     77                     78
                      A                      A                      A
 Frequencies --   3203.7237              3210.3082              3212.4180
 Red. masses --      1.0864                 1.0873                 1.0895
 Frc consts  --      6.5700                 6.6021                 6.6244
 IR Inten    --      0.1565                 6.5989                 4.9593

                     79                     80                     81
                      A                      A                      A
 Frequencies --   3221.4524              3228.7032              3242.7719
 Red. masses --      1.0933                 1.0972                 1.0932
 Frc consts  --      6.6849                 6.7391                 6.7732
 IR Inten    --     14.8978                18.4374                13.9989

                     82                     83                     84
                      A                      A                      A
 Frequencies --   3500.0185              3575.6394              3687.7486
 Red. masses --      1.0525                 1.0954                 1.0771
 Frc consts  --      7.5965                 8.2514                 8.6304
 IR Inten    --     46.2831                57.0594                90.8040

 - Thermochemistry -
 -------------------
 Temperature   298.150 Kelvin.  Pressure   1.00000 Atm.
 Atom     1 has atomic number  6 and mass  12.00000

 Molecular mass:   226.08729 amu.
 Principal axes and moments of inertia in atomic units:
                           1         2         3
     Eigenvalues --  3166.670923641.926844894.86739
           X            0.99938  -0.03421  -0.00833
           Y            0.03458   0.99824   0.04821
           Z            0.00667  -0.04847   0.99880
 This molecule is an asymmetric top.
 Rotational symmetry number  1.
 Warning -- assumption of classical behavior for rotation
           may cause significant error
 Rotational temperatures (Kelvin)      0.02735     0.02378     0.01769
 Rotational constants (GHZ):           0.56992     0.49555     0.36870
    1 imaginary frequencies ignored.
 Zero-point vibrational energy     651775.5 (Joules/Mol)
                                  155.77809 (Kcal/Mol)
 Warning -- explicit consideration of  22 degrees of freedom as
           vibrations may cause significant error
 Vibrational temperatures:     34.03    73.14    93.56   122.53   153.28
          (Kelvin)            181.14   209.33   223.72   259.64   300.07
                              311.75   354.69   402.02   436.62   465.46
                              513.34   539.66   601.31   614.13   747.22
                              803.01   864.22   904.82   920.78   976.81
                             1036.24  1045.12  1093.16  1136.17  1173.42
                             1239.44  1253.14  1319.38  1383.81  1458.92
                             1468.90  1477.05  1492.63  1529.72  1533.85
                             1596.72  1619.55  1642.73  1660.05  1689.87
                             1709.10  1711.55  1767.17  1835.06  1887.10
                             1894.36  1919.95  1961.40  1974.28  2047.04
                             2090.28  2098.50  2121.77  2146.19  2148.86
                             2164.04  2171.10  2224.05  2231.83  2337.06
                             2356.19  2380.75  2411.10  4369.01  4440.76
                             4462.91  4531.58  4563.73  4585.85  4609.44
                             4618.92  4621.95  4634.95  4645.38  4665.63
                             5035.75  5144.55  5305.85

 Zero-point correction=                           0.248248 (Hartree/Particle)
 Thermal correction to Energy=                    0.263850
 Thermal correction to Enthalpy=                  0.264794
 Thermal correction to Gibbs Free Energy=         0.204293
 Sum of electronic and zero-point Energies=          -1072.885435
 Sum of electronic and thermal Energies=             -1072.869834
 Sum of electronic and thermal Enthalpies=           -1072.868889
 Sum of electronic and thermal Free Energies=        -1072.929390

                     E (Thermal)             CV                S
                      KCal/Mol        Cal/Mol-Kelvin    Cal/Mol-Kelvin
 Total                  165.568             57.114            127.335
 Electronic               0.000              0.000              0.000
 Translational            0.889              2.981             42.150
 Rotational               0.889              2.981             32.401
 Vibrational            163.791             51.153             52.784
 Vibration     1          0.593              1.985              6.301
 Vibration     2          0.595              1.977              4.785
 Vibration     3          0.597              1.971              4.298
 Vibration     4          0.601              1.959              3.768
 Vibration     5          0.605              1.944              3.331
 Vibration     6          0.611              1.927              3.008
 Vibration     7          0.617              1.908              2.730
 Vibration     8          0.620              1.897              2.604
 Vibration     9          0.629              1.866              2.324
 Vibration    10          0.642              1.828              2.056
 Vibration    11          0.646              1.816              1.987
 Vibration    12          0.661              1.769              1.755
 Vibration    13          0.680              1.712              1.537
 Vibration    14          0.695              1.667              1.398
 Vibration    15          0.708              1.628              1.292
 Vibration    16          0.732              1.561              1.136
 Vibration    17          0.746              1.523              1.059
 Vibration    18          0.781              1.431              0.899
 Vibration    19          0.789              1.412              0.869
 Vibration    20          0.874              1.207              0.611
 Vibration    21          0.914              1.122              0.528
 Vibration    22          0.959              1.030              0.449

 Optimization completed.
    -- Stationary point found.
 Normal termination of Gaussian 16 at Thu Feb 25 22:07:10 2021.
