 Gaussian 16, Revision A.03,
 Gaussian 16:  ES64L-G16RevA.03 25-Dec-2016

 ----------------------------------------------------------------------
 # wB97XD def2tzvp, opt=(ts, noeigen, calcfc, maxcycles=70, maxstep=1),
  freq=noraman, scrf=(iefpcm, solvent=water)
 ----------------------------------------------------------------------

 ------------------------
 0_iteration/TS-891-0.out
 ------------------------
 Symbolic Z-matrix:
 Charge =  0 Multiplicity = 1

 SCF Done:  E(RwB97XD) =  -842.102783904     A.U. after   15 cycles
 SCF Done:  E(RwB97XD) =  -842.102755905     A.U. after   10 cycles
 SCF Done:  E(RwB97XD) =  -842.102731727     A.U. after   10 cycles
 SCF Done:  E(RwB97XD) =  -842.102711426     A.U. after   10 cycles
 SCF Done:  E(RwB97XD) =  -842.102695067     A.U. after   10 cycles
 SCF Done:  E(RwB97XD) =  -842.102682798     A.U. after   10 cycles
 SCF Done:  E(RwB97XD) =  -842.102675229     A.U. after   10 cycles
 SCF Done:  E(RwB97XD) =  -842.102674490     A.U. after   10 cycles
 SCF Done:  E(RwB97XD) =  -842.102693480     A.U. after   11 cycles
 SCF Done:  E(RwB97XD) =  -842.102736792     A.U. after   10 cycles
 SCF Done:  E(RwB97XD) =  -842.102869956     A.U. after   10 cycles
 SCF Done:  E(RwB97XD) =  -842.102908608     A.U. after   10 cycles
 SCF Done:  E(RwB97XD) =  -842.102942873     A.U. after   10 cycles
 SCF Done:  E(RwB97XD) =  -842.102972267     A.U. after   10 cycles
 SCF Done:  E(RwB97XD) =  -842.102996465     A.U. after   10 cycles
 SCF Done:  E(RwB97XD) =  -842.103015217     A.U. after   10 cycles
 SCF Done:  E(RwB97XD) =  -842.103028349     A.U. after   10 cycles
 SCF Done:  E(RwB97XD) =  -842.103035735     A.U. after   10 cycles
 SCF Done:  E(RwB97XD) =  -842.103037427     A.U. after    9 cycles
 Optimization completed.
    -- Stationary point found.
 Normal termination of Gaussian 16 at Wed Feb 24 02:58:07 2021.

 ---------------------------------------------------------------------
 #N Geom=AllCheck Guess=TCheck SCRF=Check GenChk RwB97XD/def2TZVP Freq
 ---------------------------------------------------------------------

 Structure from the checkpoint file:  "/beegfs/scratch/user/q/tla25/Gau-35817.chk"
 ------------------------
 0_iteration/TS-891-0.out
 ------------------------
 Charge =  0 Multiplicity = 1

                         Standard orientation:
 ---------------------------------------------------------------------
 Center     Atomic      Atomic             Coordinates (Angstroms)
 Number     Number       Type             X           Y           Z
 ---------------------------------------------------------------------
      1          6           0       -0.565606   -0.625342   -0.430610
      2          6           0       -1.883178   -0.311484    0.031918
      3          8           0       -2.184162    0.312049    1.062842
      4          6           0        0.618352   -0.249266    0.206264
      5          6           0        0.366236    2.394335   -0.540210
      6          1           0        0.646637    3.174191   -1.246411
      7          1           0       -0.620130    2.008261   -0.798628
      8          1           0        0.342028    2.808249    0.464628
      9          7           0        1.309486    1.279964   -0.585282
     10          1           0        1.473689    0.984565   -1.541606
     11          1           0        2.207129    1.523161   -0.178512
     12         17           0        2.018390   -1.317823   -0.222228
     13          6           0        0.677220    0.135585    1.658371
     14          1           0        0.434866   -0.738122    2.263119
     15          1           0        1.670530    0.485939    1.934512
     16          1           0       -0.069623    0.897019    1.865752
     17          1           0       -0.476596   -1.142087   -1.377016
     18          7           0       -2.909673   -0.809116   -0.752816
     19          1           0       -2.713246   -1.059947   -1.706303
     20          1           0       -3.811469   -0.393527   -0.592112
 ---------------------------------------------------------------------

 SCF Done:  E(RwB97XD) =  -842.103037427     A.U. after    1 cycles

 The electronic state is 1-A.
 Alpha  occ. eigenvalues -- -101.69111 -19.18909 -14.49698 -14.42657 -10.40055
 Alpha  occ. eigenvalues --  -10.36922 -10.31880 -10.28200 -10.24430  -9.57723
 Alpha  occ. eigenvalues --   -7.32326  -7.31523  -7.31492  -1.11262  -1.05409
 Alpha  occ. eigenvalues --   -0.97993  -0.96498  -0.86208  -0.80744  -0.79381
 Alpha  occ. eigenvalues --   -0.70196  -0.63903  -0.62991  -0.59578  -0.58319
 Alpha  occ. eigenvalues --   -0.56648  -0.55658  -0.52599  -0.50005  -0.49588
 Alpha  occ. eigenvalues --   -0.48833  -0.47660  -0.46246  -0.45282  -0.44474
 Alpha  occ. eigenvalues --   -0.39608  -0.38970  -0.34575  -0.32635  -0.27301
 Alpha virt. eigenvalues --    0.07050   0.08239   0.10602   0.12889   0.14490
 Alpha virt. eigenvalues --    0.15349   0.15817   0.16933   0.18023   0.19157
 Alpha virt. eigenvalues --    0.20377   0.20645   0.21343   0.22264   0.23640

 Mulliken charges:
               1
     1  C   -0.504304
     2  C    0.342757
     3  O   -0.566878
     4  C    0.205851
     5  C   -0.308503
     6  H    0.162717
     7  H    0.158117
     8  H    0.162491
     9  N   -0.279484
    10  H    0.284438
    11  H    0.291701
    12  Cl  -0.158891
    13  C   -0.380138
    14  H    0.145794
    15  H    0.141114
    16  H    0.155117
    17  H    0.125517
    18  N   -0.497419
    19  H    0.264289
    20  H    0.255715
 Sum of Mulliken charges =  -0.00000

 Dipole moment (field-independent basis, Debye):
    X=              4.8471    Y=              4.9620    Z=             -4.7173  Tot=              8.3887
 Quadrupole moment (field-independent basis, Debye-Ang):
   XX=            -62.3059   YY=            -58.9275   ZZ=            -58.6998
   XY=              8.4663   XZ=              9.1005   YZ=             -2.0465

  Exact polarizability: 164.235   5.237 125.671  -0.680   5.891 113.603
 Approx polarizability: 124.681   1.434 103.860  -2.104   6.569  98.909

 ******    1 imaginary frequencies (negative Signs) ******

                      1                      2                      3
                      A                      A                      A
 Frequencies --   -366.1578                63.2924                72.5263
 Red. masses --      5.3925                 3.1959                 2.9944
 Frc consts  --      0.4260                 0.0075                 0.0093
 IR Inten    --    929.5289                16.0840                 8.9089

                      4                      5                      6
                      A                      A                      A
 Frequencies --     89.7255               189.7990               200.6895
 Red. masses --      3.1571                 2.8723                 1.8191
 Frc consts  --      0.0150                 0.0610                 0.0432
 IR Inten    --      4.5371                18.1080                 5.2437

                      7                      8                      9
                      A                      A                      A
 Frequencies --    215.7185               260.3985               293.6415
 Red. masses --      2.2103                 1.5638                 2.6665
 Frc consts  --      0.0606                 0.0625                 0.1355
 IR Inten    --      1.9324                27.0306                 9.8769

                     10                     11                     12
                      A                      A                      A
 Frequencies --    305.7768               330.5456               354.7689
 Red. masses --      2.1254                 2.8257                 5.1917
 Frc consts  --      0.1171                 0.1819                 0.3850
 IR Inten    --     10.0483                35.2298                47.5981

                     13                     14                     15
                      A                      A                      A
 Frequencies --    399.8164               439.9326               457.2031
 Red. masses --      1.2903                 2.9622                 1.1224
 Frc consts  --      0.1215                 0.3378                 0.1382
 IR Inten    --    330.4379                39.9224                41.6759

                     16                     17                     18
                      A                      A                      A
 Frequencies --    505.9503               603.6472               673.8105
 Red. masses --      2.8582                 3.8419                 1.2421
 Frc consts  --      0.4311                 0.8248                 0.3323
 IR Inten    --     36.0095               102.7262                77.5303

                     19                     20                     21
                      A                      A                      A
 Frequencies --    726.6831               750.3246               797.3485
 Red. masses --      1.8469                 2.5763                 5.9618
 Frc consts  --      0.5746                 0.8545                 2.2332
 IR Inten    --     31.1482                98.0842                87.1217

                     22                     23                     24
                      A                      A                      A
 Frequencies --    901.1324              1004.9817              1048.0239
 Red. masses --      4.0446                 1.1811                 1.7579
 Frc consts  --      1.9351                 0.7029                 1.1376
 IR Inten    --     88.1082                20.2784               101.3865

                     25                     26                     27
                      A                      A                      A
 Frequencies --   1053.3782              1063.4838              1081.8815
 Red. masses --      1.2982                 1.7997                 2.4696
 Frc consts  --      0.8487                 1.1993                 1.7031
 IR Inten    --     11.9780                95.0760                 3.9317

                     28                     29                     30
                      A                      A                      A
 Frequencies --   1088.9107              1125.1302              1245.5142
 Red. masses --      1.5917                 2.0556                 1.3711
 Frc consts  --      1.1119                 1.5332                 1.2532
 IR Inten    --    130.4317                49.8016                37.9706

                     31                     32                     33
                      A                      A                      A
 Frequencies --   1286.5966              1339.5877              1372.9064
 Red. masses --      1.9878                 1.3861                 1.9666
 Frc consts  --      1.9387                 1.4655                 2.1839
 IR Inten    --    266.8110                 1.9397                85.2547

                     34                     35                     36
                      A                      A                      A
 Frequencies --   1425.2813              1451.0539              1463.3556
 Red. masses --      1.5301                 1.2114                 1.0759
 Frc consts  --      1.8314                 1.5029                 1.3574
 IR Inten    --     27.5065               148.9896                 6.0931

                     37                     38                     39
                      A                      A                      A
 Frequencies --   1476.5878              1491.5691              1502.6143
 Red. masses --      1.5047                 1.1479                 1.3588
 Frc consts  --      1.9329                 1.5046                 1.8075
 IR Inten    --    673.1390               133.7607               393.2945

                     40                     41                     42
                      A                      A                      A
 Frequencies --   1508.5204              1618.4951              1636.3226
 Red. masses --      1.0564                 1.2901                 1.0937
 Frc consts  --      1.4163                 1.9911                 1.7253
 IR Inten    --     54.0374               204.7650                84.5090

                     43                     44                     45
                      A                      A                      A
 Frequencies --   1653.4807              3074.4668              3078.1361
 Red. masses --      4.6401                 1.0331                 1.0366
 Frc consts  --      7.4745                 5.7533                 5.7865
 IR Inten    --    614.9093                32.5349                17.6389

                     46                     47                     48
                      A                      A                      A
 Frequencies --   3152.8277              3153.9813              3176.2725
 Red. masses --      1.1031                 1.1048                 1.1057
 Frc consts  --      6.4604                 6.4753                 6.5724
 IR Inten    --     21.7765                 4.0330                12.6136

                     49                     50                     51
                      A                      A                      A
 Frequencies --   3185.7554              3198.9015              3509.2986
 Red. masses --      1.1017                 1.0883                 1.0510
 Frc consts  --      6.5879                 6.5618                 7.6257
 IR Inten    --      0.7047                 7.8175                50.5076

                     52                     53                     54
                      A                      A                      A
 Frequencies --   3593.5790              3607.8099              3725.0983
 Red. masses --      1.0968                 1.0464                 1.1019
 Frc consts  --      8.3448                 8.0252                 9.0090
 IR Inten    --     50.7347                49.5428                42.6240

 - Thermochemistry -
 -------------------
 Temperature   298.150 Kelvin.  Pressure   1.00000 Atm.
 Atom     1 has atomic number  6 and mass  12.00000

 Molecular mass:   150.05599 amu.
 Principal axes and moments of inertia in atomic units:
                           1         2         3
     Eigenvalues --  1043.820351956.020442328.36380
           X            0.99811   0.05621   0.02502
           Y           -0.05588   0.99834  -0.01376
           Z           -0.02575   0.01234   0.99959
 This molecule is an asymmetric top.
 Rotational symmetry number  1.
 Warning -- assumption of classical behavior for rotation
           may cause significant error
 Rotational temperatures (Kelvin)      0.08298     0.04428     0.03720
 Rotational constants (GHZ):           1.72898     0.92266     0.77511
    1 imaginary frequencies ignored.
 Zero-point vibrational energy     436795.7 (Joules/Mol)
                                  104.39667 (Kcal/Mol)
 Warning -- explicit consideration of  16 degrees of freedom as
           vibrations may cause significant error
 Vibrational temperatures:     91.06   104.35   129.09   273.08   288.75
          (Kelvin)            310.37   374.66   422.48   439.94   475.58
                              510.43   575.25   632.96   657.81   727.95
                              868.51   969.46  1045.53  1079.55  1147.21
                             1296.53  1445.94  1507.87  1515.58  1530.12
                             1556.59  1566.70  1618.81  1792.02  1851.13
                             1927.37  1975.31  2050.66  2087.74  2105.44
                             2124.48  2146.04  2161.93  2170.42  2328.65
                             2354.30  2378.99  4423.47  4428.75  4536.22
                             4537.88  4569.95  4583.59  4602.51  5049.10
                             5170.36  5190.83  5359.59

 Zero-point correction=                           0.166367 (Hartree/Particle)
 Thermal correction to Energy=                    0.177237
 Thermal correction to Enthalpy=                  0.178181
 Thermal correction to Gibbs Free Energy=         0.129807
 Sum of electronic and zero-point Energies=           -841.936671
 Sum of electronic and thermal Energies=              -841.925800
 Sum of electronic and thermal Enthalpies=            -841.924856
 Sum of electronic and thermal Free Energies=         -841.973231

                     E (Thermal)             CV                S
                      KCal/Mol        Cal/Mol-Kelvin    Cal/Mol-Kelvin
 Total                  111.218             39.121            101.812
 Electronic               0.000              0.000              0.000
 Translational            0.889              2.981             40.928
 Rotational               0.889              2.981             29.943
 Vibrational            109.440             33.159             30.942
 Vibration     1          0.597              1.972              4.352
 Vibration     2          0.599              1.967              4.084
 Vibration     3          0.602              1.956              3.666
 Vibration     4          0.633              1.854              2.230
 Vibration     5          0.638              1.839              2.127
 Vibration     6          0.645              1.817              1.995
 Vibration     7          0.668              1.745              1.659
 Vibration     8          0.688              1.686              1.453
 Vibration     9          0.696              1.663              1.385
 Vibration    10          0.713              1.614              1.257
 Vibration    11          0.731              1.565              1.145
 Vibration    12          0.766              1.471              0.963
 Vibration    13          0.800              1.383              0.827
 Vibration    14          0.815              1.345              0.774
 Vibration    15          0.861              1.237              0.643
 Vibration    16          0.962              1.024              0.443

 Optimization completed.
    -- Stationary point found.
 Normal termination of Gaussian 16 at Wed Feb 24 03:08:42 2021.
