 Gaussian 16, Revision A.03,
 Gaussian 16:  ES64L-G16RevA.03 25-Dec-2016

 ----------------------------------------------------------------------
 # wB97XD def2tzvp, opt=(ts, noeigen, calcfc, maxcycles=70, maxstep=8),
  freq=noraman, scrf=(iefpcm, solvent=water)
 ----------------------------------------------------------------------

 ------------------------
 1_iteration/TS-866-1.out
 ------------------------
 Symbolic Z-matrix:
 Charge =  0 Multiplicity = 1

 SCF Done:  E(RwB97XD) =  -3360.33249596     A.U. after   15 cycles
 SCF Done:  E(RwB97XD) =  -3360.33249597     A.U. after    6 cycles
 Optimization completed.
    -- Stationary point found.
 Normal termination of Gaussian 16 at Thu Feb 25 08:41:02 2021.

 ---------------------------------------------------------------------
 #N Geom=AllCheck Guess=TCheck SCRF=Check GenChk RwB97XD/def2TZVP Freq
 ---------------------------------------------------------------------

 Structure from the checkpoint file:  "/beegfs/scratch/user/q/tla25/Gau-43595.chk"
 ------------------------
 1_iteration/TS-866-1.out
 ------------------------
 Charge =  0 Multiplicity = 1

                         Standard orientation:
 ---------------------------------------------------------------------
 Center     Atomic      Atomic             Coordinates (Angstroms)
 Number     Number       Type             X           Y           Z
 ---------------------------------------------------------------------
      1          6           0        0.423502    0.305614   -0.302542
      2          6           0        1.001838    1.625086   -0.350223
      3          8           0        0.299191    2.607056   -0.604929
      4          6           0       -0.917231    0.171464   -0.592566
      5          6           0       -3.444590    0.788222    0.815806
      6          1           0       -3.946351    1.147137    1.715892
      7          1           0       -3.621789    1.496504    0.007092
      8          1           0       -3.864981   -0.176062    0.536555
      9          7           0       -2.006326    0.643124    1.013570
     10          1           0       -1.570341    1.518099    1.279469
     11          1           0       -1.782732   -0.050643    1.717067
     12         17           0       -1.619125   -1.369263   -0.983917
     13          1           0       -1.362790    0.981077   -1.152706
     14         35           0        1.415969   -1.162813    0.385782
     15          6           0        2.476288    1.803289   -0.086725
     16          1           0        3.074786    1.123440   -0.694346
     17          1           0        2.751242    2.833338   -0.301875
     18          1           0        2.701067    1.582669    0.959008
 ---------------------------------------------------------------------

 SCF Done:  E(RwB97XD) =  -3360.33249597     A.U. after    1 cycles

 The electronic state is 1-A.
 Alpha  occ. eigenvalues -- -483.12812-101.71072 -62.67650 -56.46759 -56.46413
 Alpha  occ. eigenvalues --  -56.46408 -19.21917 -14.47725 -10.39423 -10.36982
 Alpha  occ. eigenvalues --  -10.31693 -10.31478 -10.27716  -9.59644  -8.81770
 Alpha  occ. eigenvalues --   -7.34296  -7.33438  -7.33374  -6.63902  -6.62793
 Alpha  occ. eigenvalues --   -6.62780  -2.74298  -2.73969  -2.73958  -2.73061
 Alpha  occ. eigenvalues --   -2.73061  -1.12823  -1.03537  -0.98592  -0.91694
 Alpha  occ. eigenvalues --   -0.83718  -0.82995  -0.78536  -0.70902  -0.63331
 Alpha  occ. eigenvalues --   -0.61762  -0.57398  -0.56168  -0.54739  -0.54403
 Alpha  occ. eigenvalues --   -0.52259  -0.50764  -0.47973  -0.47836  -0.47370
 Alpha  occ. eigenvalues --   -0.46122  -0.43883  -0.41425  -0.40054  -0.38642
 Alpha  occ. eigenvalues --   -0.37377  -0.33351  -0.28336
 Alpha virt. eigenvalues --    0.02705   0.06675   0.10014   0.12100   0.13337
 Alpha virt. eigenvalues --    0.14031   0.14798   0.16387   0.17349   0.19004
 Alpha virt. eigenvalues --    0.19615   0.20276   0.20749   0.21382   0.23263

 Mulliken charges:
               1
     1  C   -0.188357
     2  C    0.266474
     3  O   -0.500596
     4  C    0.011568
     5  C   -0.267461
     6  H    0.150023
     7  H    0.149139
     8  H    0.147550
     9  N   -0.379624
    10  H    0.282670
    11  H    0.282321
    12  Cl  -0.069524
    13  H    0.188697
    14  Br  -0.122177
    15  C   -0.373173
    16  H    0.145460
    17  H    0.130399
    18  H    0.146610
 Sum of Mulliken charges =  -0.00000

 Dipole moment (field-independent basis, Debye):
    X=             -4.4533    Y=             -0.3426    Z=              3.7521  Tot=              5.8333
 Quadrupole moment (field-independent basis, Debye-Ang):
   XX=            -59.3704   YY=            -85.0382   ZZ=            -70.5924
   XY=             -2.1192   XZ=             -5.4150   YZ=              4.0719

  Exact polarizability: 185.218   6.318 156.911  -4.602  -2.618 114.589
 Approx polarizability: 136.491   0.350 132.532  -0.987  -2.997 102.053

 ******    1 imaginary frequencies (negative Signs) ******

                      1                      2                      3
                      A                      A                      A
 Frequencies --   -355.3798                35.8367                65.7565
 Red. masses --      6.4979                 4.0472                 2.1722
 Frc consts  --      0.4835                 0.0031                 0.0055
 IR Inten    --    857.3961                 1.4703                 5.6142

                      4                      5                      6
                      A                      A                      A
 Frequencies --     76.5252               102.4606               144.3730
 Red. masses --      3.4974                 5.4468                 7.0262
 Frc consts  --      0.0121                 0.0337                 0.0863
 IR Inten    --      8.2732                15.1688                 1.8777

                      7                      8                      9
                      A                      A                      A
 Frequencies --    146.9930               172.8494               184.1182
 Red. masses --      1.0523                 1.4066                 5.7428
 Frc consts  --      0.0134                 0.0248                 0.1147
 IR Inten    --      0.1682                 2.2121                 3.0702

                     10                     11                     12
                      A                      A                      A
 Frequencies --    189.2254               279.0077               354.9695
 Red. masses --      3.7242                 3.2424                 6.0456
 Frc consts  --      0.0786                 0.1487                 0.4488
 IR Inten    --     18.3542                 0.8016                 6.2429

                     13                     14                     15
                      A                      A                      A
 Frequencies --    394.0390               420.9962               549.7140
 Red. masses --      6.8854                 5.3517                 3.2303
 Frc consts  --      0.6299                 0.5589                 0.5751
 IR Inten    --      6.6310               162.2685                29.4246

                     16                     17                     18
                      A                      A                      A
 Frequencies --    601.2347               618.5190               659.9612
 Red. masses --      2.3461                 2.2829                 2.7137
 Frc consts  --      0.4997                 0.5146                 0.6964
 IR Inten    --     20.0536                37.1923                55.9750

                     19                     20                     21
                      A                      A                      A
 Frequencies --    825.7342               974.7050               997.6241
 Red. masses --      4.8513                 2.7524                 1.1525
 Frc consts  --      1.9489                 1.5407                 0.6758
 IR Inten    --    108.8158                29.5155                70.4493

                     22                     23                     24
                      A                      A                      A
 Frequencies --   1011.0449              1021.4554              1044.6304
 Red. masses --      1.5917                 1.2205                 1.8079
 Frc consts  --      0.9587                 0.7503                 1.1624
 IR Inten    --     97.9566                43.4429                 4.3197

                     25                     26                     27
                      A                      A                      A
 Frequencies --   1074.4149              1121.0755              1205.1102
 Red. masses --      3.9494                 1.1591                 1.4178
 Frc consts  --      2.6861                 0.8583                 1.2132
 IR Inten    --    151.2183                63.5912                20.0281

                     28                     29                     30
                      A                      A                      A
 Frequencies --   1239.7401              1309.9149              1344.0367
 Red. masses --      1.2942                 3.8258                 1.3289
 Frc consts  --      1.1720                 3.8678                 1.4144
 IR Inten    --     54.6632               171.5221                 9.4311

                     31                     32                     33
                      A                      A                      A
 Frequencies --   1390.2629              1416.8546              1456.9118
 Red. masses --      1.5736                 3.4648                 1.0768
 Frc consts  --      1.7920                 4.0981                 1.3466
 IR Inten    --     42.4503              1268.8805                43.1546

                     34                     35                     36
                      A                      A                      A
 Frequencies --   1464.7556              1467.4244              1490.5919
 Red. masses --      1.1969                 1.0727                 1.0401
 Frc consts  --      1.5130                 1.3609                 1.3615
 IR Inten    --     42.8910                39.9034                15.5438

                     37                     38                     39
                      A                      A                      A
 Frequencies --   1506.2715              1641.6791              1664.1870
 Red. masses --      1.0317                 1.1178                 7.7717
 Frc consts  --      1.3791                 1.7750                12.6815
 IR Inten    --     11.6721                41.3038               368.6242

                     40                     41                     42
                      A                      A                      A
 Frequencies --   3062.6147              3062.7635              3132.8267
 Red. masses --      1.0368                 1.0351                 1.0992
 Frc consts  --      5.7296                 5.7211                 6.3564
 IR Inten    --     17.6154                42.3395                 8.7981

                     43                     44                     45
                      A                      A                      A
 Frequencies --   3137.8496              3163.8409              3169.7934
 Red. masses --      1.1034                 1.1050                 1.1039
 Frc consts  --      6.4012                 6.5168                 6.5352
 IR Inten    --     18.4251                14.1694                23.8532

                     46                     47                     48
                      A                      A                      A
 Frequencies --   3226.9240              3528.4544              3613.8103
 Red. masses --      1.0904                 1.0503                 1.0969
 Frc consts  --      6.6897                 7.7040                 8.4401
 IR Inten    --      1.9616                23.6860                46.6414

 - Thermochemistry -
 -------------------
 Temperature   298.150 Kelvin.  Pressure   1.00000 Atm.
 Atom     1 has atomic number  6 and mass  12.00000

 Molecular mass:   212.95560 amu.
 Principal axes and moments of inertia in atomic units:
                           1         2         3
     Eigenvalues --  1688.733952551.335493592.75356
           X            0.99778   0.05614  -0.03569
           Y           -0.05557   0.99831   0.01669
           Z            0.03657  -0.01467   0.99922
 This molecule is an asymmetric top.
 Rotational symmetry number  1.
 Warning -- assumption of classical behavior for rotation
           may cause significant error
 Rotational temperatures (Kelvin)      0.05129     0.03395     0.02411
 Rotational constants (GHZ):           1.06869     0.70737     0.50233
    1 imaginary frequencies ignored.
 Zero-point vibrational energy     363448.7 (Joules/Mol)
                                   86.86633 (Kcal/Mol)
 Warning -- explicit consideration of  16 degrees of freedom as
           vibrations may cause significant error
 Vibrational temperatures:     51.56    94.61   110.10   147.42   207.72
          (Kelvin)            211.49   248.69   264.90   272.25   401.43
                              510.72   566.93   605.72   790.92   865.04
                              889.91   949.54  1188.05  1402.38  1435.36
                             1454.67  1469.65  1502.99  1545.84  1612.98
                             1733.88  1783.71  1884.68  1933.77  2000.28
                             2038.54  2096.17  2107.46  2111.30  2144.63
                             2167.19  2362.01  2394.39  4406.42  4406.63
                             4507.44  4514.67  4552.06  4560.63  4642.82
                             5076.66  5199.47

 Zero-point correction=                           0.138430 (Hartree/Particle)
 Thermal correction to Energy=                    0.149945
 Thermal correction to Enthalpy=                  0.150889
 Thermal correction to Gibbs Free Energy=         0.098655
 Sum of electronic and zero-point Energies=          -3360.194066
 Sum of electronic and thermal Energies=             -3360.182551
 Sum of electronic and thermal Enthalpies=           -3360.181607
 Sum of electronic and thermal Free Energies=        -3360.233841

                     E (Thermal)             CV                S
                      KCal/Mol        Cal/Mol-Kelvin    Cal/Mol-Kelvin
 Total                   94.092             37.855            109.935
 Electronic               0.000              0.000              0.000
 Translational            0.889              2.981             41.971
 Rotational               0.889              2.981             31.116
 Vibrational             92.314             31.893             36.848
 Vibration     1          0.594              1.982              5.477
 Vibration     2          0.597              1.971              4.277
 Vibration     3          0.599              1.965              3.978
 Vibration     4          0.605              1.947              3.407
 Vibration     5          0.616              1.909              2.745
 Vibration     6          0.617              1.906              2.711
 Vibration     7          0.626              1.876              2.404
 Vibration     8          0.631              1.861              2.286
 Vibration     9          0.633              1.855              2.235
 Vibration    10          0.679              1.712              1.540
 Vibration    11          0.731              1.565              1.144
 Vibration    12          0.761              1.483              0.985
 Vibration    13          0.783              1.425              0.889
 Vibration    14          0.905              1.140              0.545
 Vibration    15          0.959              1.029              0.448
 Vibration    16          0.978              0.993              0.419

 Optimization completed.
    -- Stationary point found.
 Normal termination of Gaussian 16 at Thu Feb 25 08:50:51 2021.
