 Gaussian 16, Revision A.03,
 Gaussian 16:  ES64L-G16RevA.03 25-Dec-2016

 ----------------------------------------------------------------------
 # wB97XD def2tzvp, opt=(ts, noeigen, calcfc, maxcycles=70, maxstep=5),
  freq=noraman, scrf=(iefpcm, solvent=water)
 ----------------------------------------------------------------------

 -----------------------
 2_iteration/TS-81-2.out
 -----------------------
 Symbolic Z-matrix:
 Charge =  0 Multiplicity = 1

 SCF Done:  E(RwB97XD) =  -789.208033749     A.U. after   15 cycles
 SCF Done:  E(RwB97XD) =  -789.208056132     A.U. after   12 cycles
 SCF Done:  E(RwB97XD) =  -789.208057829     A.U. after   10 cycles
 SCF Done:  E(RwB97XD) =  -789.208058062     A.U. after    8 cycles
 SCF Done:  E(RwB97XD) =  -789.208058100     A.U. after    7 cycles
 Optimization completed.
    -- Stationary point found.
 Normal termination of Gaussian 16 at Sun Jan 31 19:12:24 2021.

 ---------------------------------------------------------------------
 #N Geom=AllCheck Guess=TCheck SCRF=Check GenChk RwB97XD/def2TZVP Freq
 ---------------------------------------------------------------------

 Structure from the checkpoint file:  "/beegfs/scratch/user/q/tla25/Gau-117439.chk"
 -----------------------
 2_iteration/TS-81-2.out
 -----------------------
 Charge =  0 Multiplicity = 1

                         Standard orientation:
 ---------------------------------------------------------------------
 Center     Atomic      Atomic             Coordinates (Angstroms)
 Number     Number       Type             X           Y           Z
 ---------------------------------------------------------------------
      1          6           0       -0.661122   -1.248417   -0.509040
      2          6           0       -1.282562   -2.401072   -1.026044
      3          8           0       -2.494416   -2.549532   -1.261652
      4          6           0        0.747659   -1.199320   -0.275472
      5          6           0        2.311551   -1.719534    2.170324
      6          1           0        2.711385   -0.709748    2.100847
      7          1           0        2.249425   -2.009626    3.219388
      8          1           0        2.978630   -2.404087    1.651905
      9          7           0        0.992654   -1.754111    1.532695
     10          1           0        0.621939   -2.697580    1.499246
     11          1           0        0.320821   -1.203282    2.054806
     12          6           0        1.380597    0.173440   -0.236189
     13          6           0        2.226650    0.560883   -1.272370
     14          6           0        2.776896    1.834147   -1.310545
     15          6           0        2.504254    2.743928   -0.302184
     16          6           0        1.669697    2.369141    0.740606
     17          6           0        1.110551    1.102840    0.766956
     18          1           0        2.455727   -0.126956   -2.074714
     19          1           0        3.424409    2.110001   -2.133189
     20          1           0        2.937703    3.735498   -0.326808
     21          1           0        1.445152    3.067208    1.536989
     22          1           0        0.442112    0.856541    1.580588
     23          6           0        1.635506   -2.251924   -0.919310
     24          1           0        1.567332   -2.187372   -2.004486
     25          1           0        2.676057   -2.101788   -0.637003
     26          1           0        1.348952   -3.261555   -0.634731
     27          6           0       -1.537153   -0.092767   -0.161486
     28          6           0       -2.267072   -0.079157    1.025984
     29          6           0       -3.068346    1.001796    1.367177
     30          6           0       -3.160335    2.093976    0.516545
     31          6           0       -2.453818    2.090027   -0.678626
     32          6           0       -1.655475    1.006132   -1.011396
     33          1           0       -2.203917   -0.931097    1.694100
     34          1           0       -3.620007    0.991400    2.299324
     35          1           0       -3.781483    2.940733    0.780724
     36          1           0       -2.523376    2.935433   -1.352338
     37          1           0       -1.096457    1.013350   -1.939795
     38          1           0       -0.612517   -3.246759   -1.260084
 ---------------------------------------------------------------------

 SCF Done:  E(RwB97XD) =  -789.208058100     A.U. after    1 cycles

 The electronic state is 1-A.
 Alpha  occ. eigenvalues --  -19.19346 -14.49112 -10.36350 -10.33132 -10.32020
 Alpha  occ. eigenvalues --  -10.30735 -10.29448 -10.29386 -10.29248 -10.29226
 Alpha  occ. eigenvalues --  -10.29146 -10.29143 -10.28587 -10.28540 -10.28530
 Alpha  occ. eigenvalues --  -10.28459 -10.28248 -10.28119 -10.25567  -1.09267
 Alpha  occ. eigenvalues --   -1.04655  -0.97669  -0.96039  -0.92110  -0.86425
 Alpha  occ. eigenvalues --   -0.85511  -0.84475  -0.84199  -0.79951  -0.78945
 Alpha  occ. eigenvalues --   -0.73862  -0.70766  -0.69736  -0.69570  -0.67429
 Alpha  occ. eigenvalues --   -0.63950  -0.62912  -0.61055  -0.58920  -0.58171
 Alpha  occ. eigenvalues --   -0.56673  -0.55595  -0.55009  -0.53692  -0.53644
 Alpha  occ. eigenvalues --   -0.52819  -0.52046  -0.51283  -0.50320  -0.49622
 Alpha  occ. eigenvalues --   -0.48899  -0.48330  -0.47474  -0.47160  -0.46562
 Alpha  occ. eigenvalues --   -0.45558  -0.44971  -0.43630  -0.43010  -0.42200
 Alpha  occ. eigenvalues --   -0.41598  -0.41197  -0.34450  -0.33968  -0.33134
 Alpha  occ. eigenvalues --   -0.32210  -0.31117  -0.26937
 Alpha virt. eigenvalues --    0.02733   0.04570   0.05686   0.06130   0.07195
 Alpha virt. eigenvalues --    0.09784   0.12648   0.13169   0.13267   0.13727
 Alpha virt. eigenvalues --    0.15411   0.15699   0.16069   0.16242   0.17191

 Mulliken charges:
               1
     1  C   -0.101988
     2  C    0.062815
     3  O   -0.548441
     4  C    0.125887
     5  C   -0.287606
     6  H    0.159588
     7  H    0.158991
     8  H    0.159964
     9  N   -0.297806
    10  H    0.283980
    11  H    0.270748
    12  C    0.258011
    13  C   -0.266368
    14  C   -0.144033
    15  C   -0.149579
    16  C   -0.137664
    17  C   -0.328338
    18  H    0.152560
    19  H    0.143130
    20  H    0.144234
    21  H    0.143343
    22  H    0.163571
    23  C   -0.445531
    24  H    0.170944
    25  H    0.168815
    26  H    0.165205
    27  C    0.211029
    28  C   -0.309820
    29  C   -0.152999
    30  C   -0.131688
    31  C   -0.171609
    32  C   -0.216343
    33  H    0.143038
    34  H    0.137006
    35  H    0.140454
    36  H    0.136343
    37  H    0.135020
    38  H    0.055138
 Sum of Mulliken charges =  -0.00000

 Dipole moment (field-independent basis, Debye):
    X=             10.4897    Y=              1.0360    Z=              6.8234  Tot=             12.5565
 Quadrupole moment (field-independent basis, Debye-Ang):
   XX=           -125.9626   YY=           -107.6476   ZZ=           -102.1097
   XY=            -22.3078   XZ=            -10.7675   YZ=            -14.3556

  Exact polarizability: 298.112  12.861 310.926 -10.507   8.379 278.384
 Approx polarizability: 231.643   6.930 247.966 -14.391   3.576 236.949

 ******    1 imaginary frequencies (negative Signs) ******

                      1                      2                      3
                      A                      A                      A
 Frequencies --   -334.6183                28.1311                44.6741
 Red. masses --      5.9534                 4.6878                 4.6983
 Frc consts  --      0.3928                 0.0022                 0.0055
 IR Inten    --    880.4140                 4.5322                 3.3852

                      4                      5                      6
                      A                      A                      A
 Frequencies --     53.4988                68.1849                83.6543
 Red. masses --      3.8914                 3.6571                 3.0837
 Frc consts  --      0.0066                 0.0100                 0.0127
 IR Inten    --      0.8953                 1.9812                 8.7144

                      7                      8                      9
                      A                      A                      A
 Frequencies --     86.0313               109.8382               147.4655
 Red. masses --      2.4108                 2.8822                 1.9993
 Frc consts  --      0.0105                 0.0205                 0.0256
 IR Inten    --      0.2619                 7.0253                 2.3921

                     10                     11                     12
                      A                      A                      A
 Frequencies --    182.1062               199.4380               237.4543
 Red. masses --      2.5938                 4.4048                 3.2258
 Frc consts  --      0.0507                 0.1032                 0.1072
 IR Inten    --      1.8337                 5.0887                13.8146

                     13                     14                     15
                      A                      A                      A
 Frequencies --    253.8549               265.6237               287.0550
 Red. masses --      2.9184                 3.9824                 3.3477
 Frc consts  --      0.1108                 0.1655                 0.1625
 IR Inten    --     24.4397                 1.1003                12.2955

                     16                     17                     18
                      A                      A                      A
 Frequencies --    311.4539               327.2953               342.0883
 Red. masses --      1.8705                 1.5397                 3.1567
 Frc consts  --      0.1069                 0.0972                 0.2177
 IR Inten    --      0.4235                10.2646                18.9426

                     19                     20                     21
                      A                      A                      A
 Frequencies --    359.5710               422.2055               425.0661
 Red. masses --      3.1280                 2.9092                 2.8843
 Frc consts  --      0.2383                 0.3055                 0.3071
 IR Inten    --     13.2749                 0.2834                 0.3127

                     22                     23                     24
                      A                      A                      A
 Frequencies --    445.3915               460.7956               510.7702
 Red. masses --      3.5683                 3.6511                 3.9924
 Frc consts  --      0.4171                 0.4568                 0.6137
 IR Inten    --     14.0946                74.2872                15.7813

                     25                     26                     27
                      A                      A                      A
 Frequencies --    544.8243               594.9189               615.6358
 Red. masses --      3.8491                 3.4585                 4.5119
 Frc consts  --      0.6732                 0.7212                 1.0075
 IR Inten    --      9.3494                37.4697               128.6443

                     28                     29                     30
                      A                      A                      A
 Frequencies --    638.6393               646.6979               660.8465
 Red. masses --      6.3702                 5.5259                 3.7221
 Frc consts  --      1.5308                 1.3616                 0.9577
 IR Inten    --      1.0309                56.9080                80.1118

                     31                     32                     33
                      A                      A                      A
 Frequencies --    682.9730               729.1896               730.3776
 Red. masses --      1.5388                 1.6671                 1.5619
 Frc consts  --      0.4229                 0.5223                 0.4909
 IR Inten    --     46.9830                19.6136               161.9583

                     34                     35                     36
                      A                      A                      A
 Frequencies --    741.2316               798.7007               803.3962
 Red. masses --      3.1113                 2.4549                 2.6063
 Frc consts  --      1.0072                 0.9227                 0.9911
 IR Inten    --     46.7497                 7.8532                 0.4734

                     37                     38                     39
                      A                      A                      A
 Frequencies --    842.0855               878.6136               881.2861
 Red. masses --      2.7318                 1.2475                 1.2495
 Frc consts  --      1.1413                 0.5674                 0.5718
 IR Inten    --     14.6586                 0.2897                 0.6063

                     40                     41                     42
                      A                      A                      A
 Frequencies --    954.2024               962.4112              1008.8223
 Red. masses --      1.4670                 1.4069                 1.3922
 Frc consts  --      0.7870                 0.7678                 0.8348
 IR Inten    --      3.5766                 1.8846                10.9436

                     43                     44                     45
                      A                      A                      A
 Frequencies --   1013.3608              1016.1283              1019.5439
 Red. masses --      1.4476                 1.4120                 1.6744
 Frc consts  --      0.8759                 0.8590                 1.0254
 IR Inten    --      9.3013                 1.5562                25.8717

                     46                     47                     48
                      A                      A                      A
 Frequencies --   1024.9875              1026.1909              1027.0252
 Red. masses --      1.5155                 3.3453                 3.8628
 Frc consts  --      0.9381                 2.0756                 2.4006
 IR Inten    --     10.7833                 0.7237                 2.2717

                     49                     50                     51
                      A                      A                      A
 Frequencies --   1030.5308              1032.8510              1048.4312
 Red. masses --      1.8916                 1.3378                 1.5237
 Frc consts  --      1.1836                 0.8408                 0.9868
 IR Inten    --     90.5087                 2.3934                25.7367

                     52                     53                     54
                      A                      A                      A
 Frequencies --   1052.5846              1062.7871              1072.4106
 Red. masses --      2.3849                 2.6206                 1.6421
 Frc consts  --      1.5568                 1.7440                 1.1127
 IR Inten    --    100.2016                 2.9178                17.2685

                     55                     56                     57
                      A                      A                      A
 Frequencies --   1076.1944              1107.0598              1109.0805
 Red. masses --      2.2303                 1.5583                 1.7860
 Frc consts  --      1.5219                 1.1252                 1.2944
 IR Inten    --    105.4192                18.0658                 7.6118

                     58                     59                     60
                      A                      A                      A
 Frequencies --   1131.5402              1180.7995              1187.7182
 Red. masses --      1.6537                 1.1417                 1.3441
 Frc consts  --      1.2475                 0.9379                 1.1171
 IR Inten    --      8.8214                 0.1926                 3.4082

                     61                     62                     63
                      A                      A                      A
 Frequencies --   1189.8619              1205.5874              1231.7123
 Red. masses --      2.1004                 1.1206                 1.1615
 Frc consts  --      1.7520                 0.9596                 1.0382
 IR Inten    --      6.4647                 0.0543                 6.9423

                     64                     65                     66
                      A                      A                      A
 Frequencies --   1242.4841              1261.5627              1308.1762
 Red. masses --      1.4896                 3.0432                 4.4686
 Frc consts  --      1.3549                 2.8536                 4.5057
 IR Inten    --     70.7263                94.0661                 3.4998

                     67                     68                     69
                      A                      A                      A
 Frequencies --   1322.0280              1342.8102              1355.1710
 Red. masses --      4.7976                 1.3413                 1.7078
 Frc consts  --      4.9404                 1.4250                 1.8479
 IR Inten    --     52.0123                25.2632               253.4986

                     70                     71                     72
                      A                      A                      A
 Frequencies --   1359.2616              1377.3753              1411.6373
 Red. masses --      1.8693                 1.3945                 3.0490
 Frc consts  --      2.0349                 1.5588                 3.5798
 IR Inten    --    534.2448                14.9561                16.9624

                     73                     74                     75
                      A                      A                      A
 Frequencies --   1424.2916              1451.3234              1462.8375
 Red. masses --      1.4710                 1.3984                 1.4613
 Frc consts  --      1.7581                 1.7354                 1.8424
 IR Inten    --     44.6962                37.8810                31.1707

                     76                     77                     78
                      A                      A                      A
 Frequencies --   1486.9742              1490.7057              1493.4638
 Red. masses --      2.2020                 1.2718                 1.3325
 Frc consts  --      2.8686                 1.6652                 1.7511
 IR Inten    --      7.3428                27.3668                 1.1797

                     79                     80                     81
                      A                      A                      A
 Frequencies --   1498.2615              1503.4256              1516.7598
 Red. masses --      1.1902                 1.0445                 1.1442
 Frc consts  --      1.5741                 1.3910                 1.5509
 IR Inten    --     15.3979                11.6144                32.3377

                     82                     83                     84
                      A                      A                      A
 Frequencies --   1545.0473              1551.5842              1621.6926
 Red. masses --      2.5232                 2.2128                 5.3871
 Frc consts  --      3.5489                 3.1387                 8.3472
 IR Inten    --     41.2195                 6.3644              1366.7033

                     85                     86                     87
                      A                      A                      A
 Frequencies --   1643.1534              1645.0418              1654.1345
 Red. masses --      1.5147                 2.6108                 4.7800
 Frc consts  --      2.4095                 4.1628                 7.7058
 IR Inten    --     34.7344                 7.4261                 3.9554

                     88                     89                     90
                      A                      A                      A
 Frequencies --   1673.6431              1678.7399              2953.4862
 Red. masses --      5.9347                 5.6752                 1.0808
 Frc consts  --      9.7943                 9.4232                 5.5546
 IR Inten    --     42.6620                 0.5271               182.1736

                     91                     92                     93
                      A                      A                      A
 Frequencies --   3073.6438              3083.2346              3153.4953
 Red. masses --      1.0346                 1.0372                 1.1035
 Frc consts  --      5.7589                 5.8093                 6.4658
 IR Inten    --     43.2208                16.0208                12.7910

                     94                     95                     96
                      A                      A                      A
 Frequencies --   3156.9128              3166.4795              3176.7874
 Red. masses --      1.1024                 1.1024                 1.1059
 Frc consts  --      6.4734                 6.5123                 6.5756
 IR Inten    --     15.2528                27.5280                 8.8482

                     97                     98                     99
                      A                      A                      A
 Frequencies --   3180.2650              3187.7655              3197.7168
 Red. masses --      1.0880                 1.0868                 1.0873
 Frc consts  --      6.4836                 6.5069                 6.5503
 IR Inten    --     15.9945                 3.4767                 4.7130

                    100                    101                    102
                      A                      A                      A
 Frequencies --   3197.8271              3205.4439              3205.8493
 Red. masses --      1.0893                 1.0948                 1.0892
 Frc consts  --      6.5628                 6.6276                 6.5955
 IR Inten    --      7.2942                52.4344                 5.2406

                    103                    104                    105
                      A                      A                      A
 Frequencies --   3216.5727              3217.6309              3224.4731
 Red. masses --      1.0928                 1.0986                 1.0946
 Frc consts  --      6.6617                 6.7015                 6.7051
 IR Inten    --     28.1457                23.6984                27.5980

                    106                    107                    108
                      A                      A                      A
 Frequencies --   3229.7676              3520.2874              3595.1983
 Red. masses --      1.0961                 1.0522                 1.0954
 Frc consts  --      6.7367                 7.6826                 8.3419
 IR Inten    --      6.7461                13.9627                44.4184

 - Thermochemistry -
 -------------------
 Temperature   298.150 Kelvin.  Pressure   1.00000 Atm.
 Atom     1 has atomic number  6 and mass  12.00000

 Molecular mass:   253.14666 amu.
 Principal axes and moments of inertia in atomic units:
                           1         2         3
     Eigenvalues --  3941.050204944.510076655.84738
           X            0.99579  -0.09150  -0.00608
           Y            0.09137   0.99565  -0.01811
           Z            0.00771   0.01748   0.99982
 This molecule is an asymmetric top.
 Rotational symmetry number  1.
 Warning -- assumption of classical behavior for rotation
           may cause significant error
 Rotational temperatures (Kelvin)      0.02198     0.01752     0.01301
 Rotational constants (GHZ):           0.45793     0.36500     0.27115
    1 imaginary frequencies ignored.
 Zero-point vibrational energy     846222.2 (Joules/Mol)
                                  202.25197 (Kcal/Mol)
 Warning -- explicit consideration of  26 degrees of freedom as
           vibrations may cause significant error
 Vibrational temperatures:     40.47    64.28    76.97    98.10   120.36
          (Kelvin)            123.78   158.03   212.17   262.01   286.95
                              341.64   365.24   382.17   413.01   448.11
                              470.90   492.19   517.34   607.46   611.58
                              640.82   662.98   734.88   783.88   855.96
                              885.76   918.86   930.45   950.81   982.65
                             1049.14  1050.85  1066.47  1149.15  1155.91
                             1211.57  1264.13  1267.97  1372.88  1384.69
                             1451.47  1458.00  1461.98  1466.90  1474.73
                             1476.46  1477.66  1482.70  1486.04  1508.46
                             1514.43  1529.11  1542.96  1548.40  1592.81
                             1595.72  1628.03  1698.91  1708.86  1711.95
                             1734.57  1772.16  1787.66  1815.11  1882.17
                             1902.10  1932.00  1949.79  1955.67  1981.74
                             2031.03  2049.24  2088.13  2104.70  2139.42
                             2144.79  2148.76  2155.66  2163.09  2182.28
                             2222.98  2232.38  2333.25  2364.13  2366.85
                             2379.93  2408.00  2415.33  4249.41  4422.29
                             4436.09  4537.18  4542.09  4555.86  4570.69
                             4575.69  4586.48  4600.80  4600.96  4611.92
                             4612.50  4627.93  4629.45  4639.30  4646.92
                             5064.91  5172.69

 Zero-point correction=                           0.322309 (Hartree/Particle)
 Thermal correction to Energy=                    0.339775
 Thermal correction to Enthalpy=                  0.340719
 Thermal correction to Gibbs Free Energy=         0.276175
 Sum of electronic and zero-point Energies=           -788.885749
 Sum of electronic and thermal Energies=              -788.868283
 Sum of electronic and thermal Enthalpies=            -788.867339
 Sum of electronic and thermal Free Energies=         -788.931883

                     E (Thermal)             CV                S
                      KCal/Mol        Cal/Mol-Kelvin    Cal/Mol-Kelvin
 Total                  213.212             67.352            135.846
 Electronic               0.000              0.000              0.000
 Translational            0.889              2.981             42.487
 Rotational               0.889              2.981             33.228
 Vibrational            211.435             61.390             60.131
 Vibration     1          0.593              1.984              5.957
 Vibration     2          0.595              1.980              5.040
 Vibration     3          0.596              1.976              4.684
 Vibration     4          0.598              1.969              4.205
 Vibration     5          0.601              1.960              3.803
 Vibration     6          0.601              1.959              3.748
 Vibration     7          0.606              1.941              3.272
 Vibration     8          0.617              1.905              2.705
 Vibration     9          0.630              1.864              2.307
 Vibration    10          0.638              1.841              2.138
 Vibration    11          0.656              1.783              1.822
 Vibration    12          0.665              1.756              1.704
 Vibration    13          0.671              1.736              1.625
 Vibration    14          0.684              1.698              1.491
 Vibration    15          0.700              1.652              1.355
 Vibration    16          0.711              1.621              1.273
 Vibration    17          0.721              1.591              1.202
 Vibration    18          0.734              1.556              1.124
 Vibration    19          0.785              1.422              0.885
 Vibration    20          0.787              1.416              0.875
 Vibration    21          0.805              1.371              0.810
 Vibration    22          0.819              1.337              0.764
 Vibration    23          0.866              1.226              0.632
 Vibration    24          0.900              1.151              0.555
 Vibration    25          0.953              1.043              0.458
 Vibration    26          0.975              0.999              0.424

 Optimization completed.
    -- Stationary point found.
 Normal termination of Gaussian 16 at Sun Jan 31 21:43:59 2021.
