 Gaussian 16, Revision A.03,
 Gaussian 16:  ES64L-G16RevA.03 25-Dec-2016

 ----------------------------------------------------------------------
 # wB97XD def2tzvp, opt=(ts, noeigen, calcfc, maxcycles=70, maxstep=3),
  freq=noraman, scrf=(iefpcm, solvent=water)
 ----------------------------------------------------------------------

 ------------------------
 0_iteration/TS-869-0.out
 ------------------------
 Symbolic Z-matrix:
 Charge =  0 Multiplicity = 1

 SCF Done:  E(RwB97XD) =  -3415.70380042     A.U. after   15 cycles
 SCF Done:  E(RwB97XD) =  -3415.70379305     A.U. after   11 cycles
 SCF Done:  E(RwB97XD) =  -3415.70380803     A.U. after   10 cycles
 SCF Done:  E(RwB97XD) =  -3415.70386233     A.U. after   10 cycles
 SCF Done:  E(RwB97XD) =  -3415.70403508     A.U. after   11 cycles
 SCF Done:  E(RwB97XD) =  -3415.70425520     A.U. after   11 cycles
 SCF Done:  E(RwB97XD) =  -3415.70452013     A.U. after   11 cycles
 SCF Done:  E(RwB97XD) =  -3415.70478505     A.U. after   11 cycles
 SCF Done:  E(RwB97XD) =  -3415.70501017     A.U. after   11 cycles
 SCF Done:  E(RwB97XD) =  -3415.70520875     A.U. after   11 cycles
 SCF Done:  E(RwB97XD) =  -3415.70548782     A.U. after   10 cycles
 SCF Done:  E(RwB97XD) =  -3415.70550159     A.U. after   10 cycles
 SCF Done:  E(RwB97XD) =  -3415.70550328     A.U. after   10 cycles
 SCF Done:  E(RwB97XD) =  -3415.70550367     A.U. after    8 cycles
 SCF Done:  E(RwB97XD) =  -3415.70550382     A.U. after    8 cycles
 SCF Done:  E(RwB97XD) =  -3415.70550385     A.U. after    6 cycles
 SCF Done:  E(RwB97XD) =  -3415.70550388     A.U. after    8 cycles
 SCF Done:  E(RwB97XD) =  -3415.70550394     A.U. after    7 cycles
 SCF Done:  E(RwB97XD) =  -3415.70550396     A.U. after    7 cycles
 Optimization completed.
    -- Stationary point found.
 Normal termination of Gaussian 16 at Tue Apr 13 10:54:29 2021.

 ---------------------------------------------------------------------
 #N Geom=AllCheck Guess=TCheck SCRF=Check GenChk RwB97XD/def2TZVP Freq
 ---------------------------------------------------------------------

 Structure from the checkpoint file:  "/beegfs/scratch/user/q/tla25/Gau-64755.chk"
 ------------------------
 0_iteration/TS-869-0.out
 ------------------------
 Charge =  0 Multiplicity = 1

                         Standard orientation:
 ---------------------------------------------------------------------
 Center     Atomic      Atomic             Coordinates (Angstroms)
 Number     Number       Type             X           Y           Z
 ---------------------------------------------------------------------
      1          6           0        0.240287    0.010405   -0.295353
      2          6           0        1.339691    0.958605   -0.298477
      3          8           0        1.145223    2.159210   -0.549548
      4          6           0       -1.031954    0.489635   -0.537117
      5          6           0       -3.096560    1.897566    0.893793
      6          1           0       -3.401563    2.353319    1.836008
      7          1           0       -2.969020    2.678309    0.145191
      8          1           0       -3.869954    1.209062    0.561665
      9          7           0       -1.836704    1.169096    1.037168
     10          1           0       -1.095033    1.770151    1.379491
     11          1           0       -1.921077    0.383585    1.673133
     12         17           0       -2.303573   -0.591682   -1.085848
     13          1           0       -1.065528    1.438304   -1.055966
     14         35           0        0.488684   -1.758570    0.371801
     15          7           0        2.586191    0.507527   -0.026513
     16          6           0        3.734707    1.381042   -0.052272
     17          1           0        2.727537   -0.474118    0.126169
     18          1           0        3.596770    2.226646    0.623121
     19          1           0        4.606472    0.815630    0.270101
     20          1           0        3.922985    1.774082   -1.054161
 ---------------------------------------------------------------------

 SCF Done:  E(RwB97XD) =  -3415.70550396     A.U. after    1 cycles

 The electronic state is 1-A.
 Alpha  occ. eigenvalues -- -483.12766-101.70475 -62.67600 -56.46702 -56.46371
 Alpha  occ. eigenvalues --  -56.46359 -19.20078 -14.49066 -14.44717 -10.39239
 Alpha  occ. eigenvalues --  -10.38151 -10.32064 -10.30740 -10.30568  -9.59056
 Alpha  occ. eigenvalues --   -8.81717  -7.33701  -7.32844  -7.32798  -6.63825
 Alpha  occ. eigenvalues --   -6.62766  -6.62727  -2.74223  -2.73917  -2.73884
 Alpha  occ. eigenvalues --   -2.73029  -2.73028  -1.12886  -1.04716  -1.01477
 Alpha  occ. eigenvalues --   -0.97803  -0.90967  -0.83145  -0.80597  -0.78825
 Alpha  occ. eigenvalues --   -0.70222  -0.65877  -0.64033  -0.61227  -0.56592
 Alpha  occ. eigenvalues --   -0.55808  -0.55411  -0.53605  -0.52398  -0.50615
 Alpha  occ. eigenvalues --   -0.48611  -0.48164  -0.47381  -0.46275  -0.45753
 Alpha  occ. eigenvalues --   -0.41155  -0.39761  -0.39282  -0.37629  -0.34033
 Alpha  occ. eigenvalues --   -0.33429  -0.27196
 Alpha virt. eigenvalues --    0.05684   0.07102   0.09936   0.12125   0.13071
 Alpha virt. eigenvalues --    0.14408   0.14910   0.16272   0.16401   0.17572
 Alpha virt. eigenvalues --    0.19123   0.19677   0.20856   0.21317   0.22032

 Mulliken charges:
               1
     1  C   -0.220815
     2  C    0.363363
     3  O   -0.564426
     4  C   -0.020503
     5  C   -0.275445
     6  H    0.155890
     7  H    0.153209
     8  H    0.152061
     9  N   -0.321249
    10  H    0.287000
    11  H    0.286471
    12  Cl  -0.097972
    13  H    0.185840
    14  Br  -0.154026
    15  N   -0.329248
    16  C   -0.246436
    17  H    0.251375
    18  H    0.127685
    19  H    0.140908
    20  H    0.126318
 Sum of Mulliken charges =  -0.00000

 Dipole moment (field-independent basis, Debye):
    X=             -3.1873    Y=              1.1057    Z=              4.6472  Tot=              5.7427
 Quadrupole moment (field-independent basis, Debye-Ang):
   XX=            -61.0077   YY=            -85.7116   ZZ=            -77.6239
   XY=            -11.6975   XZ=             -5.1061   YZ=              5.5495

  Exact polarizability: 202.060  -5.880 162.268  -2.602  -0.259 122.102
 Approx polarizability: 147.675  -3.837 138.224  -0.216  -2.094 108.323

 ******    1 imaginary frequencies (negative Signs) ******

                      1                      2                      3
                      A                      A                      A
 Frequencies --   -362.6004                36.3780                55.9697
 Red. masses --      6.8364                 4.8480                 2.8731
 Frc consts  --      0.5296                 0.0038                 0.0053
 IR Inten    --    969.7970                 6.7923                11.8783

                      4                      5                      6
                      A                      A                      A
 Frequencies --     63.7206                72.2724                97.1914
 Red. masses --      2.5926                 1.2810                 4.4067
 Frc consts  --      0.0062                 0.0039                 0.0245
 IR Inten    --     22.5948                 4.5690                17.2458

                      7                      8                      9
                      A                      A                      A
 Frequencies --    125.0382               139.8225               154.5318
 Red. masses --      2.9289                 5.4540                 5.8799
 Frc consts  --      0.0270                 0.0628                 0.0827
 IR Inten    --      2.1480                 5.3830                 3.7212

                     10                     11                     12
                      A                      A                      A
 Frequencies --    177.5649               201.0252               274.4434
 Red. masses --      1.3037                 3.9739                 3.6594
 Frc consts  --      0.0242                 0.0946                 0.1624
 IR Inten    --      6.3421                19.9368                16.4183

                     13                     14                     15
                      A                      A                      A
 Frequencies --    299.4285               351.4569               383.9089
 Red. masses --      4.3255                 4.3852                 1.5968
 Frc consts  --      0.2285                 0.3191                 0.1387
 IR Inten    --      7.4980                 8.8640                52.4096

                     16                     17                     18
                      A                      A                      A
 Frequencies --    403.4818               444.7696               590.1236
 Red. masses --      4.3112                 4.3837                 3.4158
 Frc consts  --      0.4135                 0.5109                 0.7008
 IR Inten    --     28.9303               231.1723                 7.9667

                     19                     20                     21
                      A                      A                      A
 Frequencies --    667.8181               737.0675               771.7889
 Red. masses --      1.9746                 3.8660                 9.1210
 Frc consts  --      0.5189                 1.2374                 3.2010
 IR Inten    --     22.7638                80.3028                43.0595

                     22                     23                     24
                      A                      A                      A
 Frequencies --    836.6319               991.6723              1019.3168
 Red. masses --      3.4556                 2.8350                 1.1524
 Frc consts  --      1.4251                 1.6426                 0.7055
 IR Inten    --    106.8386                15.7226                24.1893

                     25                     26                     27
                      A                      A                      A
 Frequencies --   1046.3110              1074.6464              1152.6997
 Red. masses --      1.2343                 3.4686                 3.5365
 Frc consts  --      0.7961                 2.3601                 2.7686
 IR Inten    --     40.5404               239.3877                40.6234

                     28                     29                     30
                      A                      A                      A
 Frequencies --   1157.0149              1169.3049              1185.0593
 Red. masses --      1.2869                 1.1821                 1.7785
 Frc consts  --      1.0150                 0.9523                 1.4716
 IR Inten    --      3.5444                67.6841                11.4015

                     31                     32                     33
                      A                      A                      A
 Frequencies --   1229.5611              1236.4022              1299.7466
 Red. masses --      1.3534                 1.2878                 2.1195
 Frc consts  --      1.2055                 1.1599                 2.1096
 IR Inten    --     34.9498                53.4608               226.7232

                     34                     35                     36
                      A                      A                      A
 Frequencies --   1345.9981              1427.3888              1456.2199
 Red. masses --      1.3044                 4.2538                 1.2492
 Frc consts  --      1.3924                 5.1064                 1.5607
 IR Inten    --      4.1830               943.1903                25.4156

                     37                     38                     39
                      A                      A                      A
 Frequencies --   1463.5391              1476.2477              1492.6385
 Red. masses --      1.2478                 1.0494                 1.0402
 Frc consts  --      1.5748                 1.3475                 1.3655
 IR Inten    --     45.0645                16.7271                18.1941

                     40                     41                     42
                      A                      A                      A
 Frequencies --   1503.0646              1506.5638              1553.7936
 Red. masses --      1.0317                 1.0801                 2.1515
 Frc consts  --      1.3733                 1.4444                 3.0604
 IR Inten    --     15.7520                19.3205               757.5185

                     43                     44                     45
                      A                      A                      A
 Frequencies --   1633.7473              1642.2078              3048.1504
 Red. masses --      2.5484                 1.5396                 1.0377
 Frc consts  --      4.0076                 2.4463                 5.6807
 IR Inten    --    254.3957               264.7973                84.0556

                     46                     47                     48
                      A                      A                      A
 Frequencies --   3071.1478              3108.3233              3148.3997
 Red. masses --      1.0339                 1.1016                 1.1054
 Frc consts  --      5.7458                 6.2711                 6.4559
 IR Inten    --     45.3624                42.9897                15.1985

                     49                     50                     51
                      A                      A                      A
 Frequencies --   3159.0837              3174.8113              3211.4363
 Red. masses --      1.1019                 1.1049                 1.0899
 Frc consts  --      6.4791                 6.5616                 6.6227
 IR Inten    --     22.5534                10.5928                 1.5878

                     52                     53                     54
                      A                      A                      A
 Frequencies --   3517.4739              3600.4635              3677.0207
 Red. masses --      1.0507                 1.0969                 1.0781
 Frc consts  --      7.6596                 8.3781                 8.5880
 IR Inten    --     28.6088                55.8796                83.1442

 - Thermochemistry -
 -------------------
 Temperature   298.150 Kelvin.  Pressure   1.00000 Atm.
 Atom     1 has atomic number  6 and mass  12.00000

 Molecular mass:   227.96650 amu.
 Principal axes and moments of inertia in atomic units:
                           1         2         3
     Eigenvalues --  1986.717653145.679484435.28091
           X            0.99970  -0.00199  -0.02443
           Y            0.00281   0.99943   0.03352
           Z            0.02435  -0.03358   0.99914
 This molecule is an asymmetric top.
 Rotational symmetry number  1.
 Warning -- assumption of classical behavior for rotation
           may cause significant error
 Rotational temperatures (Kelvin)      0.04360     0.02753     0.01953
 Rotational constants (GHZ):           0.90840     0.57372     0.40691
    1 imaginary frequencies ignored.
 Zero-point vibrational energy     410701.3 (Joules/Mol)
                                   98.15996 (Kcal/Mol)
 Warning -- explicit consideration of  17 degrees of freedom as
           vibrations may cause significant error
 Vibrational temperatures:     52.34    80.53    91.68   103.98   139.84
          (Kelvin)            179.90   201.17   222.34   255.48   289.23
                              394.86   430.81   505.67   552.36   580.52
                              639.92   849.06   960.84  1060.48  1110.43
                             1203.73  1426.80  1466.57  1505.41  1546.18
                             1658.48  1664.69  1682.37  1705.04  1769.06
                             1778.91  1870.05  1936.59  2053.69  2095.18
                             2105.71  2123.99  2147.57  2162.57  2167.61
                             2235.56  2350.60  2362.77  4385.61  4418.70
                             4472.18  4529.84  4545.22  4567.85  4620.54
                             5060.86  5180.26  5290.41

 Zero-point correction=                           0.156428 (Hartree/Particle)
 Thermal correction to Energy=                    0.169407
 Thermal correction to Enthalpy=                  0.170351
 Thermal correction to Gibbs Free Energy=         0.114309
 Sum of electronic and zero-point Energies=          -3415.549076
 Sum of electronic and thermal Energies=             -3415.536097
 Sum of electronic and thermal Enthalpies=           -3415.535153
 Sum of electronic and thermal Free Energies=        -3415.591195

                     E (Thermal)             CV                S
                      KCal/Mol        Cal/Mol-Kelvin    Cal/Mol-Kelvin
 Total                  106.304             42.219            117.950
 Electronic               0.000              0.000              0.000
 Translational            0.889              2.981             42.174
 Rotational               0.889              2.981             31.694
 Vibrational            104.527             36.258             44.081
 Vibration     1          0.594              1.982              5.447
 Vibration     2          0.596              1.975              4.594
 Vibration     3          0.597              1.972              4.339
 Vibration     4          0.598              1.967              4.090
 Vibration     5          0.603              1.951              3.510
 Vibration     6          0.610              1.928              3.021
 Vibration     7          0.615              1.913              2.806
 Vibration     8          0.620              1.898              2.616
 Vibration     9          0.628              1.870              2.354
 Vibration    10          0.638              1.838              2.124
 Vibration    11          0.677              1.721              1.568
 Vibration    12          0.692              1.675              1.420
 Vibration    13          0.728              1.572              1.160
 Vibration    14          0.753              1.505              1.024
 Vibration    15          0.769              1.463              0.950
 Vibration    16          0.804              1.372              0.812
 Vibration    17          0.947              1.053              0.467

 Optimization completed.
    -- Stationary point found.
 Normal termination of Gaussian 16 at Tue Apr 13 11:00:36 2021.
