 Gaussian 16, Revision A.03,
 Gaussian 16:  ES64L-G16RevA.03 25-Dec-2016

 ----------------------------------------------------------------------
 # wB97XD def2tzvp, opt=(ts, noeigen, calcfc, maxcycles=70, maxstep=8),
  freq=noraman, scrf=(iefpcm, solvent=water)
 ----------------------------------------------------------------------

 ------------------------
 1_iteration/TS-862-1.out
 ------------------------
 Symbolic Z-matrix:
 Charge =  0 Multiplicity = 1

 SCF Done:  E(RwB97XD) =  -920.698279413     A.U. after   15 cycles
 SCF Done:  E(RwB97XD) =  -920.700216558     A.U. after   13 cycles
 SCF Done:  E(RwB97XD) =  -920.700946429     A.U. after   13 cycles
 SCF Done:  E(RwB97XD) =  -920.700986489     A.U. after   11 cycles
 SCF Done:  E(RwB97XD) =  -920.701023814     A.U. after   10 cycles
 SCF Done:  E(RwB97XD) =  -920.701024875     A.U. after    9 cycles
 SCF Done:  E(RwB97XD) =  -920.701025275     A.U. after    9 cycles
 SCF Done:  E(RwB97XD) =  -920.701025457     A.U. after    8 cycles
 SCF Done:  E(RwB97XD) =  -920.701025286     A.U. after    8 cycles
 SCF Done:  E(RwB97XD) =  -920.701025442     A.U. after    8 cycles
 Optimization completed.
    -- Stationary point found.
 Normal termination of Gaussian 16 at Thu Feb 25 15:46:10 2021.

 ---------------------------------------------------------------------
 #N Geom=AllCheck Guess=TCheck SCRF=Check GenChk RwB97XD/def2TZVP Freq
 ---------------------------------------------------------------------

 Structure from the checkpoint file:  "/beegfs/scratch/user/q/tla25/Gau-107061.chk"
 ------------------------
 1_iteration/TS-862-1.out
 ------------------------
 Charge =  0 Multiplicity = 1

                         Standard orientation:
 ---------------------------------------------------------------------
 Center     Atomic      Atomic             Coordinates (Angstroms)
 Number     Number       Type             X           Y           Z
 ---------------------------------------------------------------------
      1          6           0        0.098662    0.931215    0.041476
      2          6           0        1.463214    0.574598   -0.282217
      3          8           0        2.167053    1.296357   -1.007505
      4          6           0       -0.839414   -0.071474    0.217260
      5          6           0       -2.516833   -1.706702   -1.334514
      6          1           0       -2.941066   -1.896357   -2.319898
      7          1           0       -1.850157   -2.525119   -1.067550
      8          1           0       -3.317884   -1.641590   -0.602463
      9          7           0       -1.756271   -0.454863   -1.321176
     10          1           0       -1.013370   -0.465603   -2.012076
     11          1           0       -2.348583    0.344859   -1.519459
     12         17           0       -2.270603    0.234638    1.283218
     13          1           0       -0.496224   -1.080341    0.396834
     14          6           0       -0.321085    2.352085   -0.223055
     15          1           0       -1.249036    2.588636    0.300966
     16          1           0        0.441486    3.054554    0.116858
     17          1           0       -0.485649    2.558234   -1.287636
     18          7           0        2.000431   -0.604286    0.211096
     19          6           0        1.698328   -1.130324    1.527601
     20          6           0        3.270372   -1.044904   -0.321684
     21          1           0        0.981108   -0.491353    2.036824
     22          1           0        1.295324   -2.147091    1.479567
     23          1           0        2.611970   -1.162005    2.130297
     24          1           0        3.336375   -0.805500   -1.379742
     25          1           0        4.120500   -0.577490    0.190675
     26          1           0        3.350449   -2.126467   -0.196508
 ---------------------------------------------------------------------

 SCF Done:  E(RwB97XD) =  -920.701025442     A.U. after    1 cycles

 The electronic state is 1-A.
 Alpha  occ. eigenvalues -- -101.69019 -19.18980 -14.49953 -14.44109 -10.38386
 Alpha  occ. eigenvalues --  -10.36325 -10.32326 -10.30381 -10.29770 -10.26400
 Alpha  occ. eigenvalues --  -10.24897  -9.57612  -7.32210  -7.31417  -7.31386
 Alpha  occ. eigenvalues --   -1.11535  -1.05470  -1.01600  -0.95603  -0.87266
 Alpha  occ. eigenvalues --   -0.80894  -0.79875  -0.78591  -0.76221  -0.68054
 Alpha  occ. eigenvalues --   -0.64382  -0.61927  -0.59820  -0.56674  -0.55822
 Alpha  occ. eigenvalues --   -0.55353  -0.54027  -0.51576  -0.50139  -0.48954
 Alpha  occ. eigenvalues --   -0.48699  -0.47943  -0.47766  -0.46300  -0.45359
 Alpha  occ. eigenvalues --   -0.44707  -0.44520  -0.43292  -0.39562  -0.38803
 Alpha  occ. eigenvalues --   -0.33281  -0.30738  -0.25668
 Alpha virt. eigenvalues --    0.06875   0.08955   0.10553   0.12188   0.13502
 Alpha virt. eigenvalues --    0.14587   0.15697   0.16445   0.16862   0.17584
 Alpha virt. eigenvalues --    0.18546   0.18968   0.19403   0.19650   0.20702

 Mulliken charges:
               1
     1  C   -0.187149
     2  C    0.269553
     3  O   -0.551324
     4  C   -0.061533
     5  C   -0.279366
     6  H    0.160556
     7  H    0.154405
     8  H    0.152875
     9  N   -0.270437
    10  H    0.289134
    11  H    0.291502
    12  Cl  -0.170721
    13  H    0.190908
    14  C   -0.398945
    15  H    0.118666
    16  H    0.119019
    17  H    0.108781
    18  N   -0.143504
    19  C   -0.313772
    20  C   -0.293986
    21  H    0.153544
    22  H    0.141572
    23  H    0.132896
    24  H    0.132710
    25  H    0.121495
    26  H    0.133122
 Sum of Mulliken charges =  -0.00000

 Dipole moment (field-independent basis, Debye):
    X=             -6.1136    Y=             -6.7525    Z=             -2.3448  Tot=              9.4059
 Quadrupole moment (field-independent basis, Debye-Ang):
   XX=            -75.3406   YY=            -76.6908   ZZ=            -71.8996
   XY=             -5.7532   XZ=             16.8462   YZ=              4.8948

  Exact polarizability: 202.462  11.455 158.594  -3.668  -3.641 148.568
 Approx polarizability: 150.854   8.278 130.110  -6.160  -3.483 125.800

 ******    1 imaginary frequencies (negative Signs) ******

                      1                      2                      3
                      A                      A                      A
 Frequencies --   -370.9327                49.0322                69.1685
 Red. masses --      6.5885                 3.7557                 3.0093
 Frc consts  --      0.5341                 0.0053                 0.0085
 IR Inten    --    856.3043                 3.8301                 6.2795

                      4                      5                      6
                      A                      A                      A
 Frequencies --     80.5342                98.3176               120.2536
 Red. masses --      2.0729                 3.2891                 1.7308
 Frc consts  --      0.0079                 0.0187                 0.0147
 IR Inten    --      1.1679                 5.2191                 3.5862

                      7                      8                      9
                      A                      A                      A
 Frequencies --    129.5656               146.2434               164.6472
 Red. masses --      1.8223                 1.7775                 1.5093
 Frc consts  --      0.0180                 0.0224                 0.0241
 IR Inten    --      4.0262                 0.7576                 2.7228

                     10                     11                     12
                      A                      A                      A
 Frequencies --    191.0834               202.4135               222.7255
 Red. masses --      1.2688                 2.8099                 1.8622
 Frc consts  --      0.0273                 0.0678                 0.0544
 IR Inten    --      3.1535                12.3459                15.6239

                     13                     14                     15
                      A                      A                      A
 Frequencies --    250.5422               270.5984               318.4984
 Red. masses --      1.7381                 2.8960                 3.5075
 Frc consts  --      0.0643                 0.1249                 0.2096
 IR Inten    --     14.1975                13.6129                 8.6193

                     16                     17                     18
                      A                      A                      A
 Frequencies --    348.9116               362.7516               406.3570
 Red. masses --      3.3526                 3.9827                 2.7827
 Frc consts  --      0.2405                 0.3088                 0.2707
 IR Inten    --     13.9724                 7.0063                 6.0482

                     19                     20                     21
                      A                      A                      A
 Frequencies --    494.3754               531.7535               609.1859
 Red. masses --      4.4395                 4.3913                 4.6755
 Frc consts  --      0.6393                 0.7316                 1.0223
 IR Inten    --    134.9508                57.6341               113.6440

                     22                     23                     24
                      A                      A                      A
 Frequencies --    667.1576               760.6380               780.3636
 Red. masses --      2.2396                 3.9341                 2.8581
 Frc consts  --      0.5873                 1.3411                 1.0255
 IR Inten    --     40.4277               156.0805                95.7739

                     25                     26                     27
                      A                      A                      A
 Frequencies --    811.5783               939.2635              1013.3271
 Red. masses --      3.3060                 3.0529                 1.4769
 Frc consts  --      1.2830                 1.5869                 0.8935
 IR Inten    --    121.3737                72.4626               115.1826

                     28                     29                     30
                      A                      A                      A
 Frequencies --   1024.2013              1051.1693              1064.3335
 Red. masses --      1.2511                 1.9647                 1.2877
 Frc consts  --      0.7732                 1.2791                 0.8595
 IR Inten    --      3.0385                 2.3799                69.3294

                     31                     32                     33
                      A                      A                      A
 Frequencies --   1086.7363              1091.6100              1100.5258
 Red. masses --      1.7439                 1.4640                 1.9943
 Frc consts  --      1.2135                 1.0278                 1.4231
 IR Inten    --    215.0322                18.2525               202.6923

                     34                     35                     36
                      A                      A                      A
 Frequencies --   1136.4043              1167.9232              1182.4744
 Red. masses --      1.2280                 1.3881                 1.1853
 Frc consts  --      0.9343                 1.1156                 0.9765
 IR Inten    --      0.2835                18.3963                45.2276

                     37                     38                     39
                      A                      A                      A
 Frequencies --   1253.8024              1261.6398              1311.6136
 Red. masses --      1.3690                 2.3185                 3.7060
 Frc consts  --      1.2680                 2.1744                 3.7564
 IR Inten    --     65.6426                77.8436                41.9362

                     40                     41                     42
                      A                      A                      A
 Frequencies --   1345.7729              1363.3947              1398.5977
 Red. masses --      1.2946                 1.5296                 2.7612
 Frc consts  --      1.3815                 1.6753                 3.1822
 IR Inten    --      0.3111                 4.3315               795.5676

                     43                     44                     45
                      A                      A                      A
 Frequencies --   1411.9582              1446.2482              1451.0107
 Red. masses --      1.3331                 1.1688                 1.7752
 Frc consts  --      1.5659                 1.4404                 2.2022
 IR Inten    --     13.0870                19.1729               232.8439

                     46                     47                     48
                      A                      A                      A
 Frequencies --   1461.9119              1471.9674              1477.6042
 Red. masses --      1.3427                 1.0564                 1.1684
 Frc consts  --      1.6907                 1.3486                 1.5030
 IR Inten    --    115.1694                21.4528                33.9113

                     49                     50                     51
                      A                      A                      A
 Frequencies --   1485.9460              1492.6582              1498.6583
 Red. masses --      1.1653                 1.0400                 1.0521
 Frc consts  --      1.5160                 1.3652                 1.3922
 IR Inten    --      7.7201                18.7058                58.4988

                     52                     53                     54
                      A                      A                      A
 Frequencies --   1501.4107              1504.5042              1510.5876
 Red. masses --      1.0480                 1.0675                 1.2660
 Frc consts  --      1.3920                 1.4237                 1.7021
 IR Inten    --     32.4951                11.4473               184.7664

                     55                     56                     57
                      A                      A                      A
 Frequencies --   1531.9026              1613.9315              1644.2866
 Red. masses --      1.2615                 8.8718                 1.0855
 Frc consts  --      1.7443                13.6154                 1.7291
 IR Inten    --    136.5748               853.1618                47.3870

                     58                     59                     60
                      A                      A                      A
 Frequencies --   3008.7251              3009.6442              3019.3810
 Red. masses --      1.0509                 1.0515                 1.0399
 Frc consts  --      5.6049                 5.6114                 5.5857
 IR Inten    --    140.2243                94.8999               110.9658

                     61                     62                     63
                      A                      A                      A
 Frequencies --   3066.3650              3076.0335              3082.1078
 Red. masses --      1.1031                 1.0335                 1.0828
 Frc consts  --      6.1110                 5.7618                 6.0602
 IR Inten    --     75.9696                36.9786                46.9377

                     64                     65                     66
                      A                      A                      A
 Frequencies --   3090.8622              3123.5054              3156.1077
 Red. masses --      1.0890                 1.1013                 1.1059
 Frc consts  --      6.1296                 6.3307                 6.4905
 IR Inten    --     43.8163                32.2119                12.3605

                     67                     68                     69
                      A                      A                      A
 Frequencies --   3159.9191              3165.8773              3179.6908
 Red. masses --      1.0969                 1.0988                 1.1054
 Frc consts  --      6.4532                 6.4886                 6.5850
 IR Inten    --     13.9510                18.4574                 7.8612

                     70                     71                     72
                      A                      A                      A
 Frequencies --   3223.4365              3514.9082              3596.1560
 Red. masses --      1.0908                 1.0511                 1.0967
 Frc consts  --      6.6778                 7.6513                 8.3563
 IR Inten    --      3.5339                33.6766                55.7111

 - Thermochemistry -
 -------------------
 Temperature   298.150 Kelvin.  Pressure   1.00000 Atm.
 Atom     1 has atomic number  6 and mass  12.00000

 Molecular mass:   178.08729 amu.
 Principal axes and moments of inertia in atomic units:
                           1         2         3
     Eigenvalues --  1457.722393178.478333360.25931
           X            0.99892  -0.01134   0.04507
           Y            0.01108   0.99992   0.00614
           Z           -0.04514  -0.00563   0.99896
 This molecule is an asymmetric top.
 Rotational symmetry number  1.
 Warning -- assumption of classical behavior for rotation
           may cause significant error
 Rotational temperatures (Kelvin)      0.05942     0.02725     0.02578
 Rotational constants (GHZ):           1.23806     0.56780     0.53708
    1 imaginary frequencies ignored.
 Zero-point vibrational energy     585313.6 (Joules/Mol)
                                  139.89331 (Kcal/Mol)
 Warning -- explicit consideration of  20 degrees of freedom as
           vibrations may cause significant error
 Vibrational temperatures:     70.55    99.52   115.87   141.46   173.02
          (Kelvin)            186.42   210.41   236.89   274.93   291.23
                              320.45   360.47   389.33   458.25   502.01
                              521.92   584.66   711.30   765.07   876.48
                              959.89  1094.39  1122.77  1167.68  1351.39
                             1457.95  1473.60  1512.40  1531.34  1563.57
                             1570.58  1583.41  1635.03  1680.38  1701.32
                             1803.94  1815.22  1887.12  1936.27  1961.62
                             2012.27  2031.49  2080.83  2087.68  2103.37
                             2117.83  2125.94  2137.94  2147.60  2156.24
                             2160.20  2164.65  2173.40  2204.07  2322.09
                             2365.76  4328.88  4330.21  4344.22  4411.82
                             4425.73  4434.47  4447.06  4494.03  4540.94
                             4546.42  4554.99  4574.87  4637.81  5057.17
                             5174.07

 Zero-point correction=                           0.222934 (Hartree/Particle)
 Thermal correction to Energy=                    0.236975
 Thermal correction to Enthalpy=                  0.237919
 Thermal correction to Gibbs Free Energy=         0.181778
 Sum of electronic and zero-point Energies=           -920.478091
 Sum of electronic and thermal Energies=              -920.464050
 Sum of electronic and thermal Enthalpies=            -920.463106
 Sum of electronic and thermal Free Energies=         -920.519248

                     E (Thermal)             CV                S
                      KCal/Mol        Cal/Mol-Kelvin    Cal/Mol-Kelvin
 Total                  148.704             48.388            118.160
 Electronic               0.000              0.000              0.000
 Translational            0.889              2.981             41.438
 Rotational               0.889              2.981             31.121
 Vibrational            146.927             42.427             45.600
 Vibration     1          0.595              1.978              4.856
 Vibration     2          0.598              1.969              4.177
 Vibration     3          0.600              1.962              3.878
 Vibration     4          0.604              1.950              3.487
 Vibration     5          0.609              1.932              3.096
 Vibration     6          0.612              1.924              2.952
 Vibration     7          0.617              1.907              2.721
 Vibration     8          0.623              1.886              2.496
 Vibration     9          0.634              1.852              2.217
 Vibration    10          0.639              1.836              2.111
 Vibration    11          0.648              1.806              1.937
 Vibration    12          0.663              1.762              1.727
 Vibration    13          0.674              1.727              1.592
 Vibration    14          0.705              1.638              1.318
 Vibration    15          0.726              1.577              1.171
 Vibration    16          0.737              1.549              1.110
 Vibration    17          0.771              1.456              0.940
 Vibration    18          0.850              1.262              0.672
 Vibration    19          0.887              1.180              0.583
 Vibration    20          0.968              1.012              0.434

 Optimization completed.
    -- Stationary point found.
 Normal termination of Gaussian 16 at Thu Feb 25 16:12:37 2021.
