 Gaussian 16, Revision A.03,
 Gaussian 16:  ES64L-G16RevA.03 25-Dec-2016

 ----------------------------------------------------------------------
 # wB97XD def2tzvp, opt=(ts, noeigen, calcfc, maxcycles=70, maxstep=3),
  freq=noraman, scrf=(iefpcm, solvent=water)
 ----------------------------------------------------------------------

 ------------------------
 0_iteration/TS-804-0.out
 ------------------------
 Symbolic Z-matrix:
 Charge =  0 Multiplicity = 1

 SCF Done:  E(RwB97XD) =  -1324.05337840     A.U. after   14 cycles
 Optimization completed.
    -- Stationary point found.
 Normal termination of Gaussian 16 at Wed Apr 14 02:06:00 2021.

 ---------------------------------------------------------------------
 #N Geom=AllCheck Guess=TCheck SCRF=Check GenChk RwB97XD/def2TZVP Freq
 ---------------------------------------------------------------------

 Structure from the checkpoint file:  "/beegfs/scratch/user/q/tla25/Gau-243084.chk"
 ------------------------
 0_iteration/TS-804-0.out
 ------------------------
 Charge =  0 Multiplicity = 1

                         Standard orientation:
 ---------------------------------------------------------------------
 Center     Atomic      Atomic             Coordinates (Angstroms)
 Number     Number       Type             X           Y           Z
 ---------------------------------------------------------------------
      1          6           0        0.477940    0.275789    0.003402
      2          6           0        0.141100    1.655429    0.211492
      3          8           0       -0.930190    2.124909    0.571772
      4          6           0       -0.513590   -0.708481    0.133792
      5          6           0       -0.547250   -0.356421    2.907842
      6          1           0       -1.567410    0.008429    2.989532
      7          1           0        0.099200    0.468199    2.610722
      8          1           0       -0.216710   -0.747071    3.869002
      9          7           0       -0.470770   -1.387201    1.874222
     10          1           0        0.448150   -1.818361    1.872652
     11          1           0       -1.141560   -2.135361    2.017112
     12         17           0       -0.107870   -2.295511   -0.649398
     13          6           0       -1.958720   -0.406361   -0.167578
     14          6           0       -2.221490    0.167779   -1.411808
     15          6           0       -3.517280    0.430439   -1.813868
     16          6           0       -4.583620    0.120199   -0.979528
     17          6           0       -4.334060   -0.462341    0.250592
     18          6           0       -3.031350   -0.731661    0.650722
     19          1           0       -1.391790    0.414239   -2.061638
     20          1           0       -3.696040    0.880709   -2.782008
     21          1           0       -5.599630    0.327849   -1.289818
     22          1           0       -5.153840   -0.714891    0.910762
     23          1           0       -2.890920   -1.190941    1.617562
     24          6           0        1.907850   -0.099441   -0.199918
     25          6           0        2.755730   -0.327321    0.882432
     26          6           0        4.084460   -0.684071    0.693592
     27          6           0        4.592440   -0.813011   -0.590068
     28          6           0        3.763450   -0.581321   -1.680108
     29          6           0        2.437230   -0.229661   -1.483178
     30          1           0        2.376890   -0.209311    1.891582
     31          1           0        4.722900   -0.856991    1.551192
     32          1           0        5.628340   -1.089491   -0.741638
     33          1           0        4.152340   -0.676051   -2.686598
     34          1           0        1.791970   -0.053381   -2.335608
     35          8           0        1.197760    2.475969   -0.037268
     36          6           0        0.980520    3.861269    0.179112
     37          1           0        1.927590    4.348229   -0.041648
     38          1           0        0.203700    4.247799   -0.481748
     39          1           0        0.695220    4.058549    1.213272
 ---------------------------------------------------------------------

 SCF Done:  E(RwB97XD) =  -1324.05337840     A.U. after    1 cycles

 The electronic state is 1-A.
 Alpha  occ. eigenvalues -- -101.69691 -19.27693 -19.20769 -14.50264 -10.41146
 Alpha  occ. eigenvalues --  -10.39414 -10.32368 -10.32179 -10.31459 -10.29843
 Alpha  occ. eigenvalues --  -10.29719 -10.29376 -10.29336 -10.29276 -10.29218
 Alpha  occ. eigenvalues --  -10.28757 -10.28698 -10.28635 -10.28568 -10.28331
 Alpha  occ. eigenvalues --  -10.26580  -9.58293  -7.32918  -7.32087  -7.32043
 Alpha  occ. eigenvalues --   -1.19046  -1.09440  -1.05984  -0.98842  -0.96605
 Alpha  occ. eigenvalues --   -0.95359  -0.88976  -0.86822  -0.85646  -0.84698
 Alpha  occ. eigenvalues --   -0.82829  -0.80546  -0.79777  -0.73671  -0.71167
 Alpha  occ. eigenvalues --   -0.70060  -0.69026  -0.68352  -0.65505  -0.63314
 Alpha  occ. eigenvalues --   -0.61529  -0.60909  -0.59008  -0.57774  -0.57011
 Alpha  occ. eigenvalues --   -0.56094  -0.55784  -0.54573  -0.54045  -0.53486
 Alpha  occ. eigenvalues --   -0.52998  -0.51853  -0.51234  -0.50905  -0.50494
 Alpha  occ. eigenvalues --   -0.48843  -0.48515  -0.47291  -0.46964  -0.46140
 Alpha  occ. eigenvalues --   -0.46078  -0.44378  -0.43715  -0.43117  -0.42425
 Alpha  occ. eigenvalues --   -0.42132  -0.40158  -0.39595  -0.37761  -0.35928
 Alpha  occ. eigenvalues --   -0.34183  -0.33510  -0.33397  -0.31651  -0.27902
 Alpha virt. eigenvalues --    0.03067   0.04883   0.05186   0.05470   0.06185
 Alpha virt. eigenvalues --    0.09631   0.10224   0.12479   0.13182   0.13429
 Alpha virt. eigenvalues --    0.14491   0.15259   0.15735   0.16418   0.17000

 Mulliken charges:
               1
     1  C   -0.367809
     2  C    0.455111
     3  O   -0.501574
     4  C    0.234191
     5  C   -0.302966
     6  H    0.160990
     7  H    0.158746
     8  H    0.168499
     9  N   -0.301672
    10  H    0.286195
    11  H    0.290528
    12  Cl  -0.124904
    13  C    0.261483
    14  C   -0.302815
    15  C   -0.133126
    16  C   -0.148947
    17  C   -0.165858
    18  C   -0.239461
    19  H    0.161971
    20  H    0.143377
    21  H    0.145330
    22  H    0.144607
    23  H    0.138102
    24  C    0.258903
    25  C   -0.296159
    26  C   -0.170425
    27  C   -0.132780
    28  C   -0.151773
    29  C   -0.256284
    30  H    0.161162
    31  H    0.138249
    32  H    0.141673
    33  H    0.137750
    34  H    0.141685
    35  O   -0.308318
    36  C   -0.205800
    37  H    0.135359
    38  H    0.123650
    39  H    0.123107
 Sum of Mulliken charges =  -0.00000

 Dipole moment (field-independent basis, Debye):
    X=             -0.7114    Y=             -3.7384    Z=              4.9264  Tot=              6.2250
 Quadrupole moment (field-independent basis, Debye-Ang):
   XX=           -120.2344   YY=           -130.9960   ZZ=           -109.0131
   XY=              4.4530   XZ=             -0.2092   YZ=            -13.1486

  Exact polarizability: 360.673 -12.903 272.043  -9.217 -20.347 304.664
 Approx polarizability: 280.113 -11.772 223.954  -8.288 -16.198 261.905

 ******    1 imaginary frequencies (negative Signs) ******

                      1                      2                      3
                      A                      A                      A
 Frequencies --   -343.3019                31.1657                36.8405
 Red. masses --      5.5425                 3.9616                 4.7194
 Frc consts  --      0.3849                 0.0023                 0.0038
 IR Inten    --    676.6182                 0.2174                 0.8113

                      4                      5                      6
                      A                      A                      A
 Frequencies --     45.7940                52.9318                67.2147
 Red. masses --      3.9602                 4.1064                 5.0955
 Frc consts  --      0.0049                 0.0068                 0.0136
 IR Inten    --      0.1081                 2.6669                 2.4955

                      7                      8                      9
                      A                      A                      A
 Frequencies --     84.3439                99.9298               125.5479
 Red. masses --      4.7476                 4.1011                 3.2890
 Frc consts  --      0.0199                 0.0241                 0.0305
 IR Inten    --      3.5313                 0.5732                 1.8816

                     10                     11                     12
                      A                      A                      A
 Frequencies --    135.4207               160.2136               171.2583
 Red. masses --      3.2798                 4.1279                 1.5403
 Frc consts  --      0.0354                 0.0624                 0.0266
 IR Inten    --      6.3306                 4.4556                 0.7720

                     13                     14                     15
                      A                      A                      A
 Frequencies --    182.4039               204.5704               207.9510
 Red. masses --      1.5556                 2.3881                 2.7613
 Frc consts  --      0.0305                 0.0589                 0.0704
 IR Inten    --      1.7404                 6.1148                 7.7888

                     16                     17                     18
                      A                      A                      A
 Frequencies --    237.0894               257.6960               266.2770
 Red. masses --      6.0293                 4.1924                 3.9143
 Frc consts  --      0.1997                 0.1640                 0.1635
 IR Inten    --      2.6913                 0.8176                 4.3063

                     19                     20                     21
                      A                      A                      A
 Frequencies --    284.7869               306.1167               325.0457
 Red. masses --      3.3140                 4.2820                 4.2329
 Frc consts  --      0.1584                 0.2364                 0.2635
 IR Inten    --      9.5353                15.5840                28.2483

                     22                     23                     24
                      A                      A                      A
 Frequencies --    358.5413               405.5640               423.2995
 Red. masses --      6.7167                 7.2994                 2.8814
 Frc consts  --      0.5087                 0.7074                 0.3042
 IR Inten    --     21.4076                30.6813                 0.1709

                     25                     26                     27
                      A                      A                      A
 Frequencies --    423.6206               479.4215               512.5144
 Red. masses --      2.8879                 6.4998                 3.5974
 Frc consts  --      0.3053                 0.8802                 0.5567
 IR Inten    --      0.3446                56.3273                 2.1576

                     28                     29                     30
                      A                      A                      A
 Frequencies --    532.1831               591.6532               612.9643
 Red. masses --      3.5203                 3.6506                 4.9612
 Frc consts  --      0.5874                 0.7529                 1.0983
 IR Inten    --     26.0147                76.0249                58.6761

                     31                     32                     33
                      A                      A                      A
 Frequencies --    638.9684               641.4277               682.7136
 Red. masses --      6.4150                 6.3746                 3.7756
 Frc consts  --      1.5431                 1.5453                 1.0368
 IR Inten    --      6.3178                10.0955                96.9017

                     34                     35                     36
                      A                      A                      A
 Frequencies --    699.0188               718.8818               728.4573
 Red. masses --      4.0256                 1.9139                 1.4937
 Frc consts  --      1.1589                 0.5827                 0.4670
 IR Inten    --     43.2219                12.9470               226.9790

                     37                     38                     39
                      A                      A                      A
 Frequencies --    733.6121               776.7884               801.7019
 Red. masses --      2.0388                 2.3800                 2.6923
 Frc consts  --      0.6465                 0.8461                 1.0195
 IR Inten    --    134.4480                57.5551                18.1925

                     40                     41                     42
                      A                      A                      A
 Frequencies --    807.8241               837.4283               867.8704
 Red. masses --      8.6327                 3.7895                 1.2550
 Frc consts  --      3.3192                 1.5658                 0.5569
 IR Inten    --     81.0109                74.7964                 0.3939

                     43                     44                     45
                      A                      A                      A
 Frequencies --    879.2582               889.6280               951.9868
 Red. masses --      1.2515                 3.5269                 1.4856
 Frc consts  --      0.5701                 1.6446                 0.7933
 IR Inten    --      0.4995                64.8513                 0.5057

                     46                     47                     48
                      A                      A                      A
 Frequencies --    958.7430              1005.1356              1010.4737
 Red. masses --      1.5286                 1.3163                 1.3996
 Frc consts  --      0.8278                 0.7835                 0.8420
 IR Inten    --      2.2340                14.1234                 0.7325

                     49                     50                     51
                      A                      A                      A
 Frequencies --   1012.3681              1013.9262              1025.3181
 Red. masses --      2.5776                 1.5909                 4.8727
 Frc consts  --      1.5565                 0.9636                 3.0181
 IR Inten    --      9.8507                22.9744                 1.6145

                     52                     53                     54
                      A                      A                      A
 Frequencies --   1026.4552              1027.3141              1029.7298
 Red. masses --      2.8697                 1.7129                 1.3155
 Frc consts  --      1.7814                 1.0651                 0.8218
 IR Inten    --      0.3299                 0.6533                 0.5870

                     55                     56                     57
                      A                      A                      A
 Frequencies --   1060.2411              1064.5786              1068.5095
 Red. masses --      2.8466                 2.1405                 2.5568
 Frc consts  --      1.8853                 1.4293                 1.7199
 IR Inten    --     47.2973                14.7837                 9.4414

                     58                     59                     60
                      A                      A                      A
 Frequencies --   1091.6733              1098.3523              1109.2751
 Red. masses --      1.5341                 3.1787                 1.5677
 Frc consts  --      1.0772                 2.2594                 1.1365
 IR Inten    --    121.5001               187.9869                19.4612

                     61                     62                     63
                      A                      A                      A
 Frequencies --   1123.6462              1181.2973              1182.5039
 Red. masses --      1.5892                 1.1358                 1.2836
 Frc consts  --      1.1822                 0.9339                 1.0575
 IR Inten    --     19.1525                 0.0877                 2.0435

                     64                     65                     66
                      A                      A                      A
 Frequencies --   1185.3054              1196.7437              1207.0709
 Red. masses --      1.1354                 2.7371                 1.1285
 Frc consts  --      0.9399                 2.3096                 0.9688
 IR Inten    --      0.6178                28.3018                 0.9076

                     67                     68                     69
                      A                      A                      A
 Frequencies --   1214.0255              1220.0548              1246.5866
 Red. masses --      1.2076                 1.7662                 2.6519
 Frc consts  --      1.0486                 1.5490                 2.4280
 IR Inten    --     55.5018               154.5704               332.1850

                     70                     71                     72
                      A                      A                      A
 Frequencies --   1253.7186              1305.8161              1320.7798
 Red. masses --      1.7840                 4.5375                 4.3976
 Frc consts  --      1.6522                 4.5586                 4.5199
 IR Inten    --     56.1159                 3.4071               134.8609

                     73                     74                     75
                      A                      A                      A
 Frequencies --   1336.6562              1342.5146              1356.7521
 Red. masses --      5.0483                 1.3497                 1.4488
 Frc consts  --      5.3141                 1.4333                 1.5714
 IR Inten    --    619.4685                51.8885                 3.4387

                     76                     77                     78
                      A                      A                      A
 Frequencies --   1357.9316              1423.8088              1466.9815
 Red. masses --      1.4756                 4.3295                 1.2792
 Frc consts  --      1.6032                 5.1712                 1.6219
 IR Inten    --     14.3895               385.2233                17.1821

                     79                     80                     81
                      A                      A                      A
 Frequencies --   1477.8502              1483.0162              1486.2316
 Red. masses --      1.1603                 1.0712                 2.1625
 Frc consts  --      1.4930                 1.3880                 2.8143
 IR Inten    --     46.8379                20.0183                 4.0184

                     82                     83                     84
                      A                      A                      A
 Frequencies --   1490.4390              1491.0519              1497.6441
 Red. masses --      2.1942                 1.0485                 1.0650
 Frc consts  --      2.8718                 1.3734                 1.4074
 IR Inten    --     30.3423                14.4020                 3.9659

                     85                     86                     87
                      A                      A                      A
 Frequencies --   1504.7344              1542.5889              1546.0624
 Red. masses --      1.0400                 2.3330                 2.5007
 Frc consts  --      1.3874                 3.2709                 3.5219
 IR Inten    --     13.8875                34.8193                20.3135

                     88                     89                     90
                      A                      A                      A
 Frequencies --   1644.9075              1645.1433              1656.0139
 Red. masses --      5.1934                 1.3203                 3.2068
 Frc consts  --      8.2791                 2.1053                 5.1815
 IR Inten    --      6.7525                96.7786                 7.6380

                     91                     92                     93
                      A                      A                      A
 Frequencies --   1671.9672              1675.4888              1698.4993
 Red. masses --      6.0752                 5.8625                11.0556
 Frc consts  --     10.0061                 9.6964                18.7916
 IR Inten    --     64.5603                 0.2885               759.7302

                     94                     95                     96
                      A                      A                      A
 Frequencies --   3057.1443              3080.7834              3129.9951
 Red. masses --      1.0310                 1.0333                 1.1063
 Frc consts  --      5.6775                 5.7785                 6.3858
 IR Inten    --     71.3457                30.6850                43.5652

                     97                     98                     99
                      A                      A                      A
 Frequencies --   3160.3296              3164.7921              3182.5728
 Red. masses --      1.1048                 1.1048                 1.0879
 Frc consts  --      6.5014                 6.5198                 6.4921
 IR Inten    --      4.9068                30.0613                16.5245

                    100                    101                    102
                      A                      A                      A
 Frequencies --   3184.3390              3188.8382              3198.3948
 Red. masses --      1.1050                 1.0870                 1.0862
 Frc consts  --      6.6014                 6.5127                 6.5470
 IR Inten    --      9.4466                 3.3572                 0.4967

                    103                    104                    105
                      A                      A                      A
 Frequencies --   3198.7507              3206.3708              3206.7713
 Red. masses --      1.0906                 1.0948                 1.0893
 Frc consts  --      6.5749                 6.6314                 6.6001
 IR Inten    --     11.5051                43.9175                 9.8760

                    106                    107                    108
                      A                      A                      A
 Frequencies --   3215.6732              3218.2170              3223.7372
 Red. masses --      1.0934                 1.0987                 1.0975
 Frc consts  --      6.6614                 6.7045                 6.7203
 IR Inten    --     22.4878                20.8677                24.3302

                    109                    110                    111
                      A                      A                      A
 Frequencies --   3240.3419              3509.4688              3583.6534
 Red. masses --      1.0930                 1.0520                 1.0955
 Frc consts  --      6.7616                 7.6339                 8.2890
 IR Inten    --     17.4601                43.3684                64.3127

 - Thermochemistry -
 -------------------
 Temperature   298.150 Kelvin.  Pressure   1.00000 Atm.
 Atom     1 has atomic number  6 and mass  12.00000

 Molecular mass:   303.10261 amu.
 Principal axes and moments of inertia in atomic units:
                           1         2         3
     Eigenvalues --  3972.747588259.721489311.40449
           X            1.00000   0.00117  -0.00191
           Y           -0.00125   0.99901  -0.04454
           Z            0.00185   0.04454   0.99901
 This molecule is an asymmetric top.
 Rotational symmetry number  1.
 Warning -- assumption of classical behavior for rotation
           may cause significant error
 Rotational temperatures (Kelvin)      0.02180     0.01049     0.00930
 Rotational constants (GHZ):           0.45428     0.21850     0.19382
    1 imaginary frequencies ignored.
 Zero-point vibrational energy     832983.9 (Joules/Mol)
                                  199.08792 (Kcal/Mol)
 Warning -- explicit consideration of  29 degrees of freedom as
           vibrations may cause significant error
 Vibrational temperatures:     44.84    53.01    65.89    76.16    96.71
          (Kelvin)            121.35   143.78   180.64   194.84   230.51
                              246.40   262.44   294.33   299.20   341.12
                              370.77   383.11   409.74   440.43   467.67
                              515.86   583.52   609.03   609.50   689.78
                              737.39   765.69   851.26   881.92   919.33
                              922.87   982.27  1005.73  1034.31  1048.09
                             1055.50  1117.63  1153.47  1162.28  1204.87
                             1248.67  1265.06  1279.98  1369.70  1379.42
                             1446.17  1453.85  1456.57  1458.81  1475.20
                             1476.84  1478.08  1481.55  1525.45  1531.69
                             1537.35  1570.67  1580.28  1596.00  1616.68
                             1699.62  1701.36  1705.39  1721.85  1736.71
                             1746.71  1755.39  1793.56  1803.82  1878.78
                             1900.31  1923.15  1931.58  1952.06  1953.76
                             2048.54  2110.66  2126.30  2133.73  2138.36
                             2144.41  2145.29  2154.78  2164.98  2219.44
                             2224.44  2366.66  2366.99  2382.63  2405.59
                             2410.65  2443.76  4398.55  4432.56  4503.36
                             4547.01  4553.43  4579.01  4581.55  4588.03
                             4601.78  4602.29  4613.25  4613.83  4626.64
                             4630.30  4638.24  4662.13  5049.34  5156.08

 Zero-point correction=                           0.317267 (Hartree/Particle)
 Thermal correction to Energy=                    0.337100
 Thermal correction to Enthalpy=                  0.338045
 Thermal correction to Gibbs Free Energy=         0.267608
 Sum of electronic and zero-point Energies=          -1323.736112
 Sum of electronic and thermal Energies=             -1323.716278
 Sum of electronic and thermal Enthalpies=           -1323.715334
 Sum of electronic and thermal Free Energies=        -1323.785771

                     E (Thermal)             CV                S
                      KCal/Mol        Cal/Mol-Kelvin    Cal/Mol-Kelvin
 Total                  211.534             74.280            148.247
 Electronic               0.000              0.000              0.000
 Translational            0.889              2.981             43.023
 Rotational               0.889              2.981             34.079
 Vibrational            209.756             68.319             71.144
 Vibration     1          0.594              1.983              5.754
 Vibration     2          0.594              1.982              5.422
 Vibration     3          0.595              1.979              4.991
 Vibration     4          0.596              1.976              4.705
 Vibration     5          0.598              1.970              4.233
 Vibration     6          0.601              1.960              3.787
 Vibration     7          0.604              1.949              3.456
 Vibration     8          0.610              1.928              3.013
 Vibration     9          0.613              1.918              2.868
 Vibration    10          0.622              1.891              2.547
 Vibration    11          0.626              1.878              2.422
 Vibration    12          0.630              1.864              2.304
 Vibration    13          0.640              1.833              2.092
 Vibration    14          0.641              1.829              2.062
 Vibration    15          0.656              1.784              1.825
 Vibration    16          0.667              1.750              1.677
 Vibration    17          0.672              1.735              1.620
 Vibration    18          0.683              1.702              1.505
 Vibration    19          0.697              1.662              1.383
 Vibration    20          0.709              1.625              1.285
 Vibration    21          0.733              1.558              1.128
 Vibration    22          0.771              1.458              0.942
 Vibration    23          0.785              1.420              0.881
 Vibration    24          0.786              1.419              0.880
 Vibration    25          0.836              1.296              0.712
 Vibration    26          0.868              1.222              0.628
 Vibration    27          0.887              1.179              0.582
 Vibration    28          0.949              1.050              0.464
 Vibration    29          0.972              1.004              0.428

 Optimization completed.
    -- Stationary point found.
 Normal termination of Gaussian 16 at Wed Apr 14 03:20:50 2021.
