 Gaussian 16, Revision A.03,
 Gaussian 16:  ES64L-G16RevA.03 25-Dec-2016

 ----------------------------------------------------------------------
 # wB97XD def2tzvp, opt=(ts, noeigen, calcfc, maxcycles=70, maxstep=8),
  freq=noraman, scrf=(iefpcm, solvent=water)
 ----------------------------------------------------------------------

 ------------------------
 1_iteration/TS-872-1.out
 ------------------------
 Symbolic Z-matrix:
 Charge =  0 Multiplicity = 1

 SCF Done:  E(RwB97XD) =  -3552.06477091     A.U. after   15 cycles
 SCF Done:  E(RwB97XD) =  -3552.06477098     A.U. after    7 cycles
 Optimization completed.
    -- Stationary point found.
 Normal termination of Gaussian 16 at Thu Feb 25 19:38:01 2021.

 ---------------------------------------------------------------------
 #N Geom=AllCheck Guess=TCheck SCRF=Check GenChk RwB97XD/def2TZVP Freq
 ---------------------------------------------------------------------

 Structure from the checkpoint file:  "/beegfs/scratch/user/q/tla25/Gau-68510.chk"
 ------------------------
 1_iteration/TS-872-1.out
 ------------------------
 Charge =  0 Multiplicity = 1

                         Standard orientation:
 ---------------------------------------------------------------------
 Center     Atomic      Atomic             Coordinates (Angstroms)
 Number     Number       Type             X           Y           Z
 ---------------------------------------------------------------------
      1          6           0       -0.735347    0.051891   -0.394571
      2          6           0        0.387988    0.899388   -0.724111
      3          8           0        0.237812    1.956587   -1.336804
      4          6           0       -2.001206    0.510174   -0.669206
      5          6           0       -1.755314    2.223810    1.641152
      6          1           0       -2.070580    2.556224    2.630805
      7          1           0       -0.859891    1.608964    1.747258
      8          1           0       -1.509203    3.089532    1.029960
      9          7           0       -2.780495    1.438663    0.972994
     10          1           0       -3.134743    0.696860    1.564578
     11          1           0       -3.564591    2.001800    0.667661
     12         17           0       -3.338940   -0.559219   -0.967626
     13          1           0       -2.053790    1.414897   -1.256836
     14         35           0       -0.503130   -1.640635    0.437242
     15          6           0        1.784356    0.494998   -0.347095
     16          6           0        2.734409    0.350136   -1.352319
     17          6           0        4.047919    0.041558   -1.033169
     18          6           0        4.426047   -0.097614    0.294902
     19          6           0        3.484989    0.065645    1.301969
     20          6           0        2.166302    0.350104    0.982163
     21          1           0        2.440388    0.476095   -2.386997
     22          1           0        4.778560   -0.084100   -1.822111
     23          1           0        5.453355   -0.330103    0.545179
     24          1           0        3.777199   -0.032182    2.339749
     25          1           0        1.434943    0.467084    1.772128
 ---------------------------------------------------------------------

 SCF Done:  E(RwB97XD) =  -3552.06477098     A.U. after    1 cycles

 The electronic state is 1-A.
 Alpha  occ. eigenvalues -- -483.13024-101.71118 -62.67851 -56.46967 -56.46615
 Alpha  occ. eigenvalues --  -56.46608 -19.22638 -14.47541 -10.39364 -10.37849
 Alpha  occ. eigenvalues --  -10.32283 -10.31508 -10.30255 -10.29649 -10.29550
 Alpha  occ. eigenvalues --  -10.29360 -10.29311 -10.29272  -9.59688  -8.81962
 Alpha  occ. eigenvalues --   -7.34342  -7.33479  -7.33418  -6.64109  -6.62978
 Alpha  occ. eigenvalues --   -6.62961  -2.74502  -2.74168  -2.74154  -2.73240
 Alpha  occ. eigenvalues --   -2.73240  -1.13691  -1.03384  -0.98728  -0.97087
 Alpha  occ. eigenvalues --   -0.91919  -0.86583  -0.85544  -0.83348  -0.78587
 Alpha  occ. eigenvalues --   -0.75298  -0.70934  -0.69150  -0.64135  -0.62940
 Alpha  occ. eigenvalues --   -0.60498  -0.57946  -0.56863  -0.55759  -0.54379
 Alpha  occ. eigenvalues --   -0.54203  -0.53570  -0.51409  -0.51384  -0.48392
 Alpha  occ. eigenvalues --   -0.47815  -0.47372  -0.46976  -0.45907  -0.44456
 Alpha  occ. eigenvalues --   -0.43091  -0.41533  -0.40092  -0.38391  -0.37765
 Alpha  occ. eigenvalues --   -0.35156  -0.33922  -0.32692  -0.29076
 Alpha virt. eigenvalues --    0.00863   0.04927   0.05559   0.06788   0.09895
 Alpha virt. eigenvalues --    0.11442   0.12919   0.14576   0.14782   0.15234
 Alpha virt. eigenvalues --    0.16350   0.16843   0.18230   0.18685   0.19273

 Mulliken charges:
               1
     1  C   -0.225632
     2  C    0.256519
     3  O   -0.471292
     4  C    0.015051
     5  C   -0.252479
     6  H    0.156094
     7  H    0.127032
     8  H    0.151017
     9  N   -0.397488
    10  H    0.280227
    11  H    0.288421
    12  Cl  -0.068454
    13  H    0.193944
    14  Br  -0.099573
    15  C    0.207945
    16  C   -0.244471
    17  C   -0.141622
    18  C   -0.145704
    19  C   -0.130823
    20  C   -0.245802
    21  H    0.144564
    22  H    0.145153
    23  H    0.146604
    24  H    0.145244
    25  H    0.165525
 Sum of Mulliken charges =  -0.00000

 Dipole moment (field-independent basis, Debye):
    X=             -3.9659    Y=              1.9672    Z=              4.7658  Tot=              6.5047
 Quadrupole moment (field-independent basis, Debye-Ang):
   XX=            -78.3007   YY=           -106.3628   ZZ=            -95.6950
   XY=            -14.9428   XZ=             -6.6406   YZ=              8.1059

  Exact polarizability: 288.016 -13.530 188.681  -6.703  -4.391 210.746
 Approx polarizability: 213.631  -8.581 164.005  -3.404  -8.186 183.435

 ******    1 imaginary frequencies (negative Signs) ******

                      1                      2                      3
                      A                      A                      A
 Frequencies --   -341.1485                29.0513                35.2019
 Red. masses --      5.9792                 5.5513                 4.7466
 Frc consts  --      0.4100                 0.0028                 0.0035
 IR Inten    --    783.1927                 5.3119                 2.1321

                      4                      5                      6
                      A                      A                      A
 Frequencies --     53.9966                73.8246                78.8593
 Red. masses --      3.8853                 3.2620                 4.5783
 Frc consts  --      0.0067                 0.0105                 0.0168
 IR Inten    --      0.3659                 8.9400                 0.4269

                      7                      8                      9
                      A                      A                      A
 Frequencies --    115.3043               136.6036               144.3478
 Red. masses --      2.6575                 2.0881                 2.7731
 Frc consts  --      0.0208                 0.0230                 0.0340
 IR Inten    --      8.1595                 5.6254                 0.5023

                     10                     11                     12
                      A                      A                      A
 Frequencies --    176.9304               196.1966               208.0046
 Red. masses --      8.9287                 5.7549                 5.5924
 Frc consts  --      0.1647                 0.1305                 0.1426
 IR Inten    --      2.7373                 1.6699                 3.9425

                     13                     14                     15
                      A                      A                      A
 Frequencies --    249.4741               304.3200               361.8996
 Red. masses --      3.5983                 7.3678                 9.8855
 Frc consts  --      0.1319                 0.4020                 0.7628
 IR Inten    --     13.5997                33.5286                39.9481

                     16                     17                     18
                      A                      A                      A
 Frequencies --    405.7338               415.7061               456.1778
 Red. masses --      5.8341                 2.9271                 5.5438
 Frc consts  --      0.5659                 0.2980                 0.6797
 IR Inten    --      1.3007                 2.1756                80.4724

                     19                     20                     21
                      A                      A                      A
 Frequencies --    491.3838               578.1643               634.6077
 Red. masses --      2.4779                 3.2272                 6.1318
 Frc consts  --      0.3525                 0.6356                 1.4549
 IR Inten    --      6.2642                 4.4465                 1.9925

                     22                     23                     24
                      A                      A                      A
 Frequencies --    653.6294               677.2277               723.6251
 Red. masses --      2.7489                 3.9560                 1.5843
 Frc consts  --      0.6919                 1.0690                 0.4888
 IR Inten    --     80.8070                50.4633                91.7873

                     25                     26                     27
                      A                      A                      A
 Frequencies --    755.3510               782.6512               820.3348
 Red. masses --      4.3411                 6.4761                 2.8612
 Frc consts  --      1.4593                 2.3372                 1.1344
 IR Inten    --     50.4461               106.5170                25.9539

                     28                     29                     30
                      A                      A                      A
 Frequencies --    877.3440               919.1044               960.7345
 Red. masses --      1.2486                 4.2291                 1.4706
 Frc consts  --      0.5663                 2.1049                 0.7997
 IR Inten    --      0.4989                27.0254                 4.0181

                     31                     32                     33
                      A                      A                      A
 Frequencies --    977.6898              1001.5512              1010.8943
 Red. masses --      1.1194                 1.0955                 1.3854
 Frc consts  --      0.6304                 0.6475                 0.8342
 IR Inten    --     94.7422                32.4515                 0.5389

                     34                     35                     36
                      A                      A                      A
 Frequencies --   1026.1111              1031.7863              1059.8705
 Red. masses --      5.9963                 1.3146                 2.3335
 Frc consts  --      3.7198                 0.8245                 1.5444
 IR Inten    --      2.5450                 0.2105                22.4973

                     37                     38                     39
                      A                      A                      A
 Frequencies --   1079.4811              1098.2053              1113.2958
 Red. masses --      1.9032                 1.6343                 1.5836
 Frc consts  --      1.3066                 1.1613                 1.1564
 IR Inten    --     79.7230                26.3323                17.0879

                     40                     41                     42
                      A                      A                      A
 Frequencies --   1145.9877              1184.8461              1192.2995
 Red. masses --      3.3641                 1.1390                 1.4198
 Frc consts  --      2.6031                 0.9421                 1.1892
 IR Inten    --     74.0737                 0.1233                10.7128

                     43                     44                     45
                      A                      A                      A
 Frequencies --   1209.7124              1231.1726              1314.5972
 Red. masses --      1.1237                 1.4005                 4.6526
 Frc consts  --      0.9689                 1.2508                 4.7373
 IR Inten    --      4.4667                67.9604               206.2611

                     46                     47                     48
                      A                      A                      A
 Frequencies --   1330.6467              1341.2901              1362.4123
 Red. masses --      5.8058                 1.3395                 1.4247
 Frc consts  --      6.0568                 1.4198                 1.5581
 IR Inten    --    155.8186                 1.1586                 3.2716

                     49                     50                     51
                      A                      A                      A
 Frequencies --   1410.0922              1457.5384              1487.8228
 Red. masses --      4.0439                 1.2997                 1.0395
 Frc consts  --      4.7374                 1.6269                 1.3558
 IR Inten    --   1375.9802               118.9666                24.7286

                     52                     53                     54
                      A                      A                      A
 Frequencies --   1489.5998              1499.2467              1542.2743
 Red. masses --      2.2253                 1.0396                 2.3101
 Frc consts  --      2.9092                 1.3768                 3.2374
 IR Inten    --     20.0243                20.1193                 3.5772

                     55                     56                     57
                      A                      A                      A
 Frequencies --   1646.2161              1647.9651              1664.7907
 Red. masses --      1.1155                 5.6621                10.0864
 Frc consts  --      1.7811                 9.0599                16.4704
 IR Inten    --     58.1959                80.2759               293.2405

                     58                     59                     60
                      A                      A                      A
 Frequencies --   1675.5061              3060.4071              3129.7224
 Red. masses --      5.8787                 1.0340                 1.1039
 Frc consts  --      9.7234                 5.7060                 6.3708
 IR Inten    --     11.9259                34.2675                14.9575

                     61                     62                     63
                      A                      A                      A
 Frequencies --   3163.6517              3195.1758              3200.0919
 Red. masses --      1.1045                 1.0859                 1.0881
 Frc consts  --      6.5131                 6.5316                 6.5653
 IR Inten    --     13.5312                 1.8618                 0.7821

                     64                     65                     66
                      A                      A                      A
 Frequencies --   3207.2294              3215.1046              3223.7747
 Red. masses --      1.0918                 1.0954                 1.0990
 Frc consts  --      6.6167                 6.6712                 6.7291
 IR Inten    --     11.0499                35.3949                16.5275

                     67                     68                     69
                      A                      A                      A
 Frequencies --   3236.7674              3535.3067              3621.1220
 Red. masses --      1.0902                 1.0501                 1.0966
 Frc consts  --      6.7294                 7.7327                 8.4720
 IR Inten    --      7.2174                61.2445                44.9720

 - Thermochemistry -
 -------------------
 Temperature   298.150 Kelvin.  Pressure   1.00000 Atm.
 Atom     1 has atomic number  6 and mass  12.00000

 Molecular mass:   274.97125 amu.
 Principal axes and moments of inertia in atomic units:
                           1         2         3
     Eigenvalues --  2329.655016143.551616787.27465
           X            0.99950  -0.02818  -0.01412
           Y            0.02954   0.99368   0.10828
           Z            0.01098  -0.10864   0.99402
 This molecule is an asymmetric top.
 Rotational symmetry number  1.
 Warning -- assumption of classical behavior for rotation
           may cause significant error
 Rotational temperatures (Kelvin)      0.03718     0.01410     0.01276
 Rotational constants (GHZ):           0.77468     0.29376     0.26590
    1 imaginary frequencies ignored.
 Zero-point vibrational energy     504447.6 (Joules/Mol)
                                  120.56586 (Kcal/Mol)
 Warning -- explicit consideration of  19 degrees of freedom as
           vibrations may cause significant error
 Vibrational temperatures:     41.80    50.65    77.69   106.22   113.46
          (Kelvin)            165.90   196.54   207.68   254.56   282.28
                              299.27   358.94   437.85   520.69   583.76
                              598.11   656.34   706.99   831.85   913.06
                              940.43   974.38  1041.14  1086.78  1126.06
                             1180.28  1262.30  1322.39  1382.28  1406.68
                             1441.01  1454.45  1476.34  1484.51  1524.92
                             1553.13  1580.07  1601.78  1648.82  1704.73
                             1715.45  1740.51  1771.38  1891.41  1914.50
                             1929.82  1960.21  2028.81  2097.07  2140.65
                             2143.20  2157.08  2218.99  2368.54  2371.05
                             2395.26  2410.68  4403.24  4502.97  4551.79
                             4597.15  4604.22  4614.49  4625.82  4638.29
                             4656.99  5086.52  5209.99

 Zero-point correction=                           0.192134 (Hartree/Particle)
 Thermal correction to Energy=                    0.206701
 Thermal correction to Enthalpy=                  0.207645
 Thermal correction to Gibbs Free Energy=         0.147464
 Sum of electronic and zero-point Energies=          -3551.872637
 Sum of electronic and thermal Energies=             -3551.858070
 Sum of electronic and thermal Enthalpies=           -3551.857126
 Sum of electronic and thermal Free Energies=        -3551.917307

                     E (Thermal)             CV                S
                      KCal/Mol        Cal/Mol-Kelvin    Cal/Mol-Kelvin
 Total                  129.707             50.933            126.661
 Electronic               0.000              0.000              0.000
 Translational            0.889              2.981             42.733
 Rotational               0.889              2.981             32.940
 Vibrational            127.929             44.971             50.988
 Vibration     1          0.593              1.984              5.893
 Vibration     2          0.594              1.982              5.512
 Vibration     3          0.596              1.976              4.665
 Vibration     4          0.599              1.966              4.049
 Vibration     5          0.600              1.963              3.919
 Vibration     6          0.608              1.937              3.178
 Vibration     7          0.614              1.917              2.851
 Vibration     8          0.616              1.909              2.745
 Vibration     9          0.628              1.871              2.361
 Vibration    10          0.636              1.845              2.168
 Vibration    11          0.641              1.828              2.061
 Vibration    12          0.662              1.764              1.734
 Vibration    13          0.695              1.666              1.393
 Vibration    14          0.736              1.551              1.114
 Vibration    15          0.771              1.458              0.942
 Vibration    16          0.779              1.436              0.907
 Vibration    17          0.814              1.347              0.777
 Vibration    18          0.847              1.269              0.680
 Vibration    19          0.935              1.079              0.489

 Optimization completed.
    -- Stationary point found.
 Normal termination of Gaussian 16 at Thu Feb 25 20:20:23 2021.
