 Gaussian 16, Revision A.03,
 Gaussian 16:  ES64L-G16RevA.03 25-Dec-2016

 ----------------------------------------------------------------------
 # wB97XD def2tzvp, opt=(ts, noeigen, calcfc, maxcycles=70, maxstep=8),
  freq=noraman, scrf=(iefpcm, solvent=water)
 ----------------------------------------------------------------------

 ------------------------
 1_iteration/TS-853-1.out
 ------------------------
 Symbolic Z-matrix:
 Charge =  0 Multiplicity = 1

 SCF Done:  E(RwB97XD) =  -842.085422043     A.U. after   14 cycles
 SCF Done:  E(RwB97XD) =  -842.086543587     A.U. after   13 cycles
 SCF Done:  E(RwB97XD) =  -842.087458013     A.U. after   13 cycles
 SCF Done:  E(RwB97XD) =  -842.087742704     A.U. after   12 cycles
 SCF Done:  E(RwB97XD) =  -842.087747151     A.U. after   10 cycles
 SCF Done:  E(RwB97XD) =  -842.087745079     A.U. after   10 cycles
 SCF Done:  E(RwB97XD) =  -842.087750522     A.U. after   10 cycles
 SCF Done:  E(RwB97XD) =  -842.087748554     A.U. after   10 cycles
 SCF Done:  E(RwB97XD) =  -842.087750746     A.U. after   10 cycles
 Optimization completed.
    -- Stationary point found.
 Normal termination of Gaussian 16 at Thu Feb 25 08:54:37 2021.

 ---------------------------------------------------------------------
 #N Geom=AllCheck Guess=TCheck SCRF=Check GenChk RwB97XD/def2TZVP Freq
 ---------------------------------------------------------------------

 Structure from the checkpoint file:  "/beegfs/scratch/user/q/tla25/Gau-10688.chk"
 ------------------------
 1_iteration/TS-853-1.out
 ------------------------
 Charge =  0 Multiplicity = 1

                         Standard orientation:
 ---------------------------------------------------------------------
 Center     Atomic      Atomic             Coordinates (Angstroms)
 Number     Number       Type             X           Y           Z
 ---------------------------------------------------------------------
      1          6           0       -0.024266   -0.699565    0.599623
      2          6           0        1.399377   -0.530785    0.458623
      3          8           0        2.191825   -0.936515    1.325037
      4          6           0       -0.982703   -0.239718   -0.285262
      5          6           0       -0.651996    2.385046    0.363031
      6          1           0       -1.048017    3.290000    0.820613
      7          1           0        0.109194    1.950945    1.010989
      8          1           0       -0.207802    2.628407   -0.599801
      9          7           0       -1.702615    1.389009    0.170505
     10          1           0       -2.206308    1.214633    1.033998
     11          1           0       -2.377370    1.675170   -0.531487
     12         17           0       -2.522318   -1.151538   -0.359966
     13          1           0       -0.701401    0.045811   -1.292095
     14          1           0       -0.343427   -1.178944    1.515001
     15          7           0        1.900445    0.098621   -0.650829
     16          6           0        3.319407    0.133691   -0.915666
     17          1           0        1.292845    0.275536   -1.428600
     18          1           0        3.490917    0.732692   -1.808391
     19          1           0        3.853068    0.592355   -0.083448
     20          1           0        3.739379   -0.863754   -1.077482
 ---------------------------------------------------------------------

 SCF Done:  E(RwB97XD) =  -842.087750746     A.U. after    1 cycles

 The electronic state is 1-A.
 Alpha  occ. eigenvalues -- -101.69628 -19.18904 -14.49977 -14.43778 -10.39095
 Alpha  occ. eigenvalues --  -10.36786 -10.32063 -10.30264 -10.24586  -9.58220
 Alpha  occ. eigenvalues --   -7.32842  -7.32010  -7.31981  -1.11507  -1.05548
 Alpha  occ. eigenvalues --   -1.00294  -0.96284  -0.85525  -0.79649  -0.78340
 Alpha  occ. eigenvalues --   -0.71227  -0.65795  -0.64611  -0.60206  -0.57919
 Alpha  occ. eigenvalues --   -0.56010  -0.54357  -0.53057  -0.51566  -0.49509
 Alpha  occ. eigenvalues --   -0.48540  -0.47159  -0.46746  -0.45562  -0.45210
 Alpha  occ. eigenvalues --   -0.40133  -0.39247  -0.33363  -0.32603  -0.27113
 Alpha virt. eigenvalues --    0.07234   0.08482   0.10737   0.12389   0.13719
 Alpha virt. eigenvalues --    0.15618   0.16369   0.16869   0.17549   0.18844
 Alpha virt. eigenvalues --    0.19962   0.20599   0.21434   0.22076   0.22563

 Mulliken charges:
               1
     1  C   -0.451282
     2  C    0.356705
     3  O   -0.574781
     4  C   -0.015968
     5  C   -0.303486
     6  H    0.164679
     7  H    0.158070
     8  H    0.158065
     9  N   -0.268052
    10  H    0.284607
    11  H    0.293766
    12  Cl  -0.146743
    13  H    0.184272
    14  H    0.123669
    15  N   -0.325511
    16  C   -0.250589
    17  H    0.235108
    18  H    0.135370
    19  H    0.125046
    20  H    0.117057
 Sum of Mulliken charges =  -0.00000

 Dipole moment (field-independent basis, Debye):
    X=             -6.1352    Y=              8.4954    Z=             -4.7825  Tot=             11.5189
 Quadrupole moment (field-independent basis, Debye-Ang):
   XX=            -64.9690   YY=            -59.0640   ZZ=            -62.4677
   XY=             -3.4527   XZ=            -12.3390   YZ=              3.1202

  Exact polarizability: 167.943  -7.275 124.996   8.608  -7.549 110.313
 Approx polarizability: 125.133  -4.635 102.071   8.684  -7.349  98.026

 ******    1 imaginary frequencies (negative Signs) ******

                      1                      2                      3
                      A                      A                      A
 Frequencies --   -364.1694                54.9671                67.6900
 Red. masses --      5.8399                 3.7008                 3.4323
 Frc consts  --      0.4563                 0.0066                 0.0093
 IR Inten    --    803.6064                15.0489                 3.6157

                      4                      5                      6
                      A                      A                      A
 Frequencies --     92.4480               115.8217               138.1253
 Red. masses --      2.0006                 1.5645                 1.9751
 Frc consts  --      0.0101                 0.0124                 0.0222
 IR Inten    --      9.7688                20.2274                 5.6466

                      7                      8                      9
                      A                      A                      A
 Frequencies --    155.3802               205.9469               226.1438
 Red. masses --      4.6384                 1.2559                 3.1197
 Frc consts  --      0.0660                 0.0314                 0.0940
 IR Inten    --      3.5631                 2.9247                 3.2493

                     10                     11                     12
                      A                      A                      A
 Frequencies --    272.9298               293.2008               342.1066
 Red. masses --      3.6635                 3.0351                 2.9869
 Frc consts  --      0.1608                 0.1537                 0.2060
 IR Inten    --     18.2077                34.2651                72.5909

                     13                     14                     15
                      A                      A                      A
 Frequencies --    378.0359               448.5480               493.3501
 Red. masses --      1.8846                 2.0818                 5.4245
 Frc consts  --      0.1587                 0.2468                 0.7779
 IR Inten    --     14.9548               166.1527                21.3939

                     16                     17                     18
                      A                      A                      A
 Frequencies --    653.1475               677.8000               750.5797
 Red. masses --      1.5148                 2.7320                 1.9840
 Frc consts  --      0.3807                 0.7395                 0.6586
 IR Inten    --    102.9263                39.6424                97.6064

                     19                     20                     21
                      A                      A                      A
 Frequencies --    790.6271               802.4804               902.3298
 Red. masses --      3.3490                 5.1625                 2.8012
 Frc consts  --      1.2334                 1.9588                 1.3438
 IR Inten    --     89.4400               158.9019                 6.4252

                     22                     23                     24
                      A                      A                      A
 Frequencies --   1014.6213              1053.0828              1085.1295
 Red. masses --      1.0898                 1.2281                 3.6395
 Frc consts  --      0.6610                 0.8024                 2.5250
 IR Inten    --     23.3156                40.8193                62.0815

                     25                     26                     27
                      A                      A                      A
 Frequencies --   1146.6996              1156.8332              1174.7975
 Red. masses --      1.7716                 1.6540                 1.4007
 Frc consts  --      1.3725                 1.3041                 1.1390
 IR Inten    --     11.4540                31.3468               105.6475

                     28                     29                     30
                      A                      A                      A
 Frequencies --   1193.0273              1244.6263              1249.0683
 Red. masses --      1.5112                 1.3594                 1.3021
 Frc consts  --      1.2673                 1.2407                 1.1969
 IR Inten    --     23.4340                72.7447               182.4913

                     31                     32                     33
                      A                      A                      A
 Frequencies --   1280.4457              1328.1111              1345.8819
 Red. masses --      1.4636                 2.5349                 1.3291
 Frc consts  --      1.4138                 2.6344                 1.4185
 IR Inten    --     46.0589               493.8181                 9.5645

                     34                     35                     36
                      A                      A                      A
 Frequencies --   1447.5608              1456.2743              1475.5158
 Red. masses --      1.3579                 1.2009                 1.1853
 Frc consts  --      1.6765                 1.5005                 1.5204
 IR Inten    --    141.2048                25.5892               101.4369

                     37                     38                     39
                      A                      A                      A
 Frequencies --   1478.9939              1493.0629              1507.2696
 Red. masses --      1.7960                 1.0404                 1.0491
 Frc consts  --      2.3147                 1.3664                 1.4042
 IR Inten    --    232.4711                33.0137                20.6430

                     40                     41                     42
                      A                      A                      A
 Frequencies --   1507.6904              1557.0938              1640.9053
 Red. masses --      1.0915                 1.8022                 2.5317
 Frc consts  --      1.4619                 2.5744                 4.0163
 IR Inten    --     31.3861               462.7454               912.6901

                     43                     44                     45
                      A                      A                      A
 Frequencies --   1643.5059              3034.8692              3074.2038
 Red. masses --      1.3964                 1.0452                 1.0325
 Frc consts  --      2.2224                 5.6717                 5.7493
 IR Inten    --    151.5282               100.8577                27.0682

                     46                     47                     48
                      A                      A                      A
 Frequencies --   3108.5230              3152.9247              3158.0559
 Red. masses --      1.0916                 1.1031                 1.1049
 Frc consts  --      6.2145                 6.4610                 6.4927
 IR Inten    --     46.3097                26.0557                 4.8899

                     49                     50                     51
                      A                      A                      A
 Frequencies --   3171.6244              3179.5232              3211.3582
 Red. masses --      1.1065                 1.0917                 1.0880
 Frc consts  --      6.5581                 6.5025                 6.6109
 IR Inten    --     15.5242                 8.3077                 5.8549

                     52                     53                     54
                      A                      A                      A
 Frequencies --   3509.8678              3594.5756              3692.3284
 Red. masses --      1.0508                 1.0971                 1.0769
 Frc consts  --      7.6268                 8.3520                 8.6502
 IR Inten    --     50.7543                52.1975                22.0842

 - Thermochemistry -
 -------------------
 Temperature   298.150 Kelvin.  Pressure   1.00000 Atm.
 Atom     1 has atomic number  6 and mass  12.00000

 Molecular mass:   150.05599 amu.
 Principal axes and moments of inertia in atomic units:
                           1         2         3
     Eigenvalues --   949.746902465.678412901.57094
           X            0.99935  -0.02402  -0.02686
           Y            0.02413   0.99970   0.00395
           Z            0.02676  -0.00459   0.99963
 This molecule is an asymmetric top.
 Rotational symmetry number  1.
 Warning -- assumption of classical behavior for rotation
           may cause significant error
 Rotational temperatures (Kelvin)      0.09120     0.03513     0.02985
 Rotational constants (GHZ):           1.90023     0.73195     0.62199
    1 imaginary frequencies ignored.
 Zero-point vibrational energy     438010.9 (Joules/Mol)
                                  104.68713 (Kcal/Mol)
 Warning -- explicit consideration of  14 degrees of freedom as
           vibrations may cause significant error
 Vibrational temperatures:     79.09    97.39   133.01   166.64   198.73
          (Kelvin)            223.56   296.31   325.37   392.69   421.85
                              492.22   543.91   645.36   709.82   939.73
                              975.20  1079.92  1137.54  1154.59  1298.25
                             1459.81  1515.15  1561.26  1649.85  1664.42
                             1690.27  1716.50  1790.74  1797.13  1842.28
                             1910.86  1936.42  2082.72  2095.25  2122.94
                             2127.94  2148.18  2168.62  2169.23  2240.31
                             2360.90  2364.64  4366.50  4423.09  4472.47
                             4536.36  4543.74  4563.26  4574.62  4620.43
                             5049.92  5171.79  5312.44

 Zero-point correction=                           0.166830 (Hartree/Particle)
 Thermal correction to Energy=                    0.178024
 Thermal correction to Enthalpy=                  0.178968
 Thermal correction to Gibbs Free Energy=         0.128975
 Sum of electronic and zero-point Energies=           -841.920921
 Sum of electronic and thermal Energies=              -841.909727
 Sum of electronic and thermal Enthalpies=            -841.908783
 Sum of electronic and thermal Free Energies=         -841.958776

                     E (Thermal)             CV                S
                      KCal/Mol        Cal/Mol-Kelvin    Cal/Mol-Kelvin
 Total                  111.711             38.101            105.218
 Electronic               0.000              0.000              0.000
 Translational            0.889              2.981             40.928
 Rotational               0.889              2.981             30.297
 Vibrational            109.934             32.139             33.993
 Vibration     1          0.596              1.976              4.630
 Vibration     2          0.598              1.970              4.219
 Vibration     3          0.602              1.955              3.608
 Vibration     4          0.608              1.936              3.169
 Vibration     5          0.614              1.915              2.830
 Vibration     6          0.620              1.897              2.605
 Vibration     7          0.640              1.831              2.079
 Vibration     8          0.650              1.801              1.909
 Vibration     9          0.676              1.723              1.578
 Vibration    10          0.688              1.686              1.455
 Vibration    11          0.721              1.591              1.202
 Vibration    12          0.748              1.517              1.047
 Vibration    13          0.808              1.364              0.800
 Vibration    14          0.849              1.265              0.675

 Optimization completed.
    -- Stationary point found.
 Normal termination of Gaussian 16 at Thu Feb 25 09:04:23 2021.
