 Gaussian 16, Revision C.01,
 Gaussian 16:  ES64L-G16RevC.01  3-Jul-2019

 ----------------------------------------------------------------------
 # wb97xd def2tzvp opt=(ts, noeigen, calcfc, maxcycles=100, maxstep=10)
  freq=noraman scrf=(iefpcm, solvent=water)
 ----------------------------------------------------------------------

 ---------
 TS-88.out
 ---------
 Symbolic Z-matrix:
 Charge =  0 Multiplicity = 1

 SCF Done:  E(RwB97XD) =  -1020.24149894     A.U. after   16 cycles
 SCF Done:  E(RwB97XD) =  -1020.23911680     A.U. after   14 cycles
 SCF Done:  E(RwB97XD) =  -1020.23725353     A.U. after   14 cycles
 SCF Done:  E(RwB97XD) =  -1020.23737509     A.U. after   14 cycles
 SCF Done:  E(RwB97XD) =  -1020.24118115     A.U. after   14 cycles
 SCF Done:  E(RwB97XD) =  -1020.24513691     A.U. after   14 cycles
 SCF Done:  E(RwB97XD) =  -1020.24923782     A.U. after   14 cycles
 SCF Done:  E(RwB97XD) =  -1020.25191348     A.U. after   13 cycles
 SCF Done:  E(RwB97XD) =  -1020.25438185     A.U. after   13 cycles
 SCF Done:  E(RwB97XD) =  -1020.25574035     A.U. after   13 cycles
 SCF Done:  E(RwB97XD) =  -1020.25910187     A.U. after   12 cycles
 SCF Done:  E(RwB97XD) =  -1020.25910467     A.U. after   11 cycles
 SCF Done:  E(RwB97XD) =  -1020.25910770     A.U. after   10 cycles
 SCF Done:  E(RwB97XD) =  -1020.25910855     A.U. after   10 cycles
 SCF Done:  E(RwB97XD) =  -1020.25910978     A.U. after   10 cycles
 SCF Done:  E(RwB97XD) =  -1020.25910975     A.U. after   10 cycles
 SCF Done:  E(RwB97XD) =  -1020.25910991     A.U. after    8 cycles
 SCF Done:  E(RwB97XD) =  -1020.25911005     A.U. after   10 cycles
 SCF Done:  E(RwB97XD) =  -1020.25911013     A.U. after    6 cycles
 Optimization completed.
    -- Stationary point found.
 Normal termination of Gaussian 16 at Fri Jun  3 19:30:26 2022.

 ---------------------------------------------------------------------
 #N Geom=AllCheck Guess=TCheck SCRF=Check GenChk RwB97XD/def2TZVP Freq
 ---------------------------------------------------------------------

 Structure from the checkpoint file:  "/local/jobs/107291/Gau-838539.chk"
 ---------
 TS-88.out
 ---------
 Charge =  0 Multiplicity = 1

                         Standard orientation:
 ---------------------------------------------------------------------
 Center     Atomic      Atomic             Coordinates (Angstroms)
 Number     Number       Type             X           Y           Z
 ---------------------------------------------------------------------
      1          6           0       -0.182133    0.606528   -0.143300
      2          6           0       -1.378864    1.340687   -0.349047
      3          8           0       -1.392404    2.570562   -0.555334
      4          6           0       -0.053855   -0.815144   -0.034058
      5          6           0       -0.172819   -2.611531    2.315709
      6          1           0       -0.359463   -2.659712    3.388912
      7          1           0       -0.862146   -3.280401    1.805808
      8          1           0        0.847646   -2.931047    2.114360
      9          7           0       -0.358878   -1.250551    1.806448
     10          1           0       -1.324114   -0.955298    1.904929
     11          1           0        0.199567   -0.581097    2.322944
     12          6           0        1.351474   -1.347172   -0.230767
     13          6           0        2.371767   -1.171019    0.700729
     14          6           0        3.656404   -1.623782    0.451568
     15          6           0        3.956056   -2.253398   -0.747525
     16          6           0        2.953344   -2.430593   -1.686950
     17          6           0        1.664348   -1.989051   -1.426232
     18          1           0        2.184279   -0.654012    1.631447
     19          1           0        4.427289   -1.475455    1.197011
     20          1           0        4.961323   -2.602094   -0.946413
     21          1           0        3.169400   -2.917033   -2.629744
     22          1           0        0.902766   -2.134755   -2.180187
     23          6           0       -1.098005   -1.756943   -0.614293
     24          1           0       -1.224109   -1.559168   -1.677897
     25          1           0       -0.779325   -2.791115   -0.495328
     26          1           0       -2.072112   -1.641796   -0.150634
     27          6           0        1.042592    1.457125   -0.009384
     28          6           0        1.340373    2.090646    1.195366
     29          6           0        2.489705    2.853942    1.343796
     30          6           0        3.364456    3.007005    0.277449
     31          6           0        3.072719    2.399735   -0.936577
     32          6           0        1.922255    1.637779   -1.074858
     33          1           0        0.659987    1.977953    2.032588
     34          1           0        2.703874    3.327786    2.294126
     35          1           0        4.264743    3.598182    0.390109
     36          1           0        3.745414    2.518130   -1.777459
     37          1           0        1.706303    1.155467   -2.020992
     38          6           0       -2.739557    0.697283   -0.295545
     39          6           0       -3.438315    0.417075   -1.464428
     40          6           0       -4.706924   -0.138239   -1.406333
     41          6           0       -5.298133   -0.403624   -0.177544
     42          6           0       -4.619290   -0.095872    0.992320
     43          6           0       -3.346638    0.455492    0.931754
     44          1           0       -2.975587    0.614512   -2.424039
     45          1           0       -5.236588   -0.368083   -2.322482
     46          1           0       -6.287534   -0.840678   -0.133258
     47          1           0       -5.080014   -0.283263    1.954114
     48          1           0       -2.825979    0.710774    1.848520
 ---------------------------------------------------------------------

 SCF Done:  E(RwB97XD) =  -1020.25911013     A.U. after    2 cycles

 The electronic state is 1-A.
 Alpha  occ. eigenvalues --  -19.19711 -14.48918 -10.36426 -10.34696 -10.31950
 Alpha  occ. eigenvalues --  -10.30689 -10.29641 -10.29388 -10.29310 -10.29300
 Alpha  occ. eigenvalues --  -10.29240 -10.29211 -10.29208 -10.29187 -10.29097
 Alpha  occ. eigenvalues --  -10.29023 -10.29011 -10.29000 -10.28452 -10.28407
 Alpha  occ. eigenvalues --  -10.28328 -10.28162 -10.28046 -10.27929 -10.25998
 Alpha  occ. eigenvalues --   -1.10265  -1.04507  -0.97674  -0.96732  -0.95878
 Alpha  occ. eigenvalues --   -0.91969  -0.86606  -0.86107  -0.85387  -0.85314
 Alpha  occ. eigenvalues --   -0.84331  -0.83693  -0.79914  -0.78911  -0.74026
 Alpha  occ. eigenvalues --   -0.71502  -0.70770  -0.70634  -0.69574  -0.68440
 Alpha  occ. eigenvalues --   -0.66939  -0.63947  -0.63511  -0.61075  -0.60638
 Alpha  occ. eigenvalues --   -0.58924  -0.57159  -0.56559  -0.55772  -0.55140
 Alpha  occ. eigenvalues --   -0.54825  -0.54089  -0.53532  -0.53202  -0.52367
 Alpha  occ. eigenvalues --   -0.52114  -0.51230  -0.51170  -0.50202  -0.49601
 Alpha  occ. eigenvalues --   -0.49293  -0.48783  -0.48581  -0.47146  -0.46673
 Alpha  occ. eigenvalues --   -0.45718  -0.45194  -0.45043  -0.44254  -0.43675
 Alpha  occ. eigenvalues --   -0.42618  -0.42533  -0.41918  -0.41178  -0.41115
 Alpha  occ. eigenvalues --   -0.34529  -0.34104  -0.33978  -0.33761  -0.33025
 Alpha  occ. eigenvalues --   -0.32263  -0.30636  -0.27017
 Alpha virt. eigenvalues --    0.02701   0.04281   0.04950   0.05259   0.05896
 Alpha virt. eigenvalues --    0.06404   0.07009   0.09658   0.12178   0.12606
 Alpha virt. eigenvalues --    0.12753   0.13777   0.14592   0.14816   0.15461

 Mulliken charges:
               1
     1  C   -0.283631
     2  C    0.206250
     3  O   -0.527008
     4  C    0.174089
     5  C   -0.284039
     6  H    0.158015
     7  H    0.160971
     8  H    0.160543
     9  N   -0.298301
    10  H    0.258448
    11  H    0.271774
    12  C    0.315659
    13  C   -0.347638
    14  C   -0.140728
    15  C   -0.147193
    16  C   -0.139981
    17  C   -0.300238
    18  H    0.157587
    19  H    0.142509
    20  H    0.143594
    21  H    0.142471
    22  H    0.152101
    23  C   -0.425442
    24  H    0.158434
    25  H    0.176276
    26  H    0.175865
    27  C    0.330937
    28  C   -0.309905
    29  C   -0.161205
    30  C   -0.129623
    31  C   -0.177387
    32  C   -0.235351
    33  H    0.145531
    34  H    0.135283
    35  H    0.139005
    36  H    0.134396
    37  H    0.134892
    38  C    0.194847
    39  C   -0.256770
    40  C   -0.137266
    41  C   -0.154973
    42  C   -0.128498
    43  C   -0.334008
    44  H    0.145243
    45  H    0.142902
    46  H    0.144492
    47  H    0.143943
    48  H    0.173132
 Sum of Mulliken charges =  -0.00000

 Dipole moment (field-independent basis, Debye):
    X=              1.1183    Y=            -10.9684    Z=              5.5216  Tot=             12.3306
 Quadrupole moment (field-independent basis, Debye-Ang):
   XX=           -135.4927   YY=           -163.4600   ZZ=           -124.3159
   XY=             13.1978   XZ=             -3.5613   YZ=              2.9217

  Exact polarizability:     440.801       9.631     347.169       1.926       7.518     380.131
 Approx polarizability:     334.288      12.583     279.541       0.062       9.844     329.600

 ******    1 imaginary frequencies (negative Signs) ******

                      1                      2                      3
                      A                      A                      A
 Frequencies --   -343.3102                25.2432                37.0164
 Red. masses --      5.9959                 4.1621                 5.1194
 Frc consts  --      0.4164                 0.0016                 0.0041
 IR Inten    --    911.5626                 2.2916                 2.3754

                      4                      5                      6
                      A                      A                      A
 Frequencies --     43.1713                54.1929                65.4390
 Red. masses --      4.6637                 5.0309                 3.9146
 Frc consts  --      0.0051                 0.0087                 0.0099
 IR Inten    --      2.6033                 1.2048                 0.7211

                      7                      8                      9
                      A                      A                      A
 Frequencies --     66.2235                75.4835                89.2861
 Red. masses --      3.8465                 4.8479                 3.2750
 Frc consts  --      0.0099                 0.0163                 0.0154
 IR Inten    --      1.3835                 4.3357                 0.5268

                     10                     11                     12
                      A                      A                      A
 Frequencies --    106.2973               110.6285               145.6649
 Red. masses --      3.5068                 2.3041                 1.8641
 Frc consts  --      0.0233                 0.0166                 0.0233
 IR Inten    --      6.0029                 4.6162                 0.2149

                     13                     14                     15
                      A                      A                      A
 Frequencies --    196.6046               200.4948               206.8390
 Red. masses --      5.1513                 1.9799                 4.9439
 Frc consts  --      0.1173                 0.0469                 0.1246
 IR Inten    --      2.5093                 1.7467                 4.6779

                     16                     17                     18
                      A                      A                      A
 Frequencies --    236.1367               243.0229               270.3306
 Red. masses --      4.6935                 3.2437                 4.0563
 Frc consts  --      0.1542                 0.1129                 0.1747
 IR Inten    --      0.3906                 2.8819                 2.2519

                     19                     20                     21
                      A                      A                      A
 Frequencies --    283.6677               315.3253               326.1185
 Red. masses --      3.2221                 2.3087                 2.2609
 Frc consts  --      0.1528                 0.1352                 0.1417
 IR Inten    --     35.6387                 3.6312                28.4050

                     22                     23                     24
                      A                      A                      A
 Frequencies --    344.1578               360.9090               380.0952
 Red. masses --      2.5934                 2.4305                 4.5736
 Frc consts  --      0.1810                 0.1865                 0.3893
 IR Inten    --     24.0730                 4.5564                20.5516

                     25                     26                     27
                      A                      A                      A
 Frequencies --    420.0107               420.8629               424.9789
 Red. masses --      2.9206                 2.8682                 2.8850
 Frc consts  --      0.3036                 0.2993                 0.3070
 IR Inten    --      1.9157                 0.3209                 0.5034

                     28                     29                     30
                      A                      A                      A
 Frequencies --    445.6108               453.4351               526.9200
 Red. masses --      3.6404                 3.7612                 3.9097
 Frc consts  --      0.4259                 0.4556                 0.6396
 IR Inten    --     58.2600                19.6938                21.2907

                     31                     32                     33
                      A                      A                      A
 Frequencies --    539.2333               561.1785               595.6665
 Red. masses --      4.3858                 3.5221                 4.2919
 Frc consts  --      0.7514                 0.6535                 0.8972
 IR Inten    --     15.4749                 3.9512               145.0921

                     34                     35                     36
                      A                      A                      A
 Frequencies --    634.9101               638.4287               641.4523
 Red. masses --      6.3625                 6.2714                 5.7987
 Frc consts  --      1.5111                 1.5060                 1.4057
 IR Inten    --      1.5494                 1.2782                 9.3466

                     37                     38                     39
                      A                      A                      A
 Frequencies --    643.7393               656.6217               693.2528
 Red. masses --      4.3118                 4.2414                 1.4542
 Frc consts  --      1.0528                 1.0774                 0.4118
 IR Inten    --    111.4626                31.2745                46.6936

                     40                     41                     42
                      A                      A                      A
 Frequencies --    705.0686               727.4059               728.7897
 Red. masses --      5.6541                 1.4886                 1.5382
 Frc consts  --      1.6561                 0.4641                 0.4814
 IR Inten    --      9.4595               106.3790                68.4301

                     43                     44                     45
                      A                      A                      A
 Frequencies --    735.1595               776.9330               788.6472
 Red. masses --      1.5254                 2.5653                 3.9560
 Frc consts  --      0.4857                 0.9123                 1.4497
 IR Inten    --    106.5148                17.5120                42.4160

                     46                     47                     48
                      A                      A                      A
 Frequencies --    799.9623               804.5379               845.3785
 Red. masses --      2.5462                 3.3459                 2.8086
 Frc consts  --      0.9600                 1.2760                 1.1826
 IR Inten    --     14.8021                63.2269                21.8806

                     49                     50                     51
                      A                      A                      A
 Frequencies --    873.1658               874.5344               879.4723
 Red. masses --      1.4893                 2.3911                 1.2536
 Frc consts  --      0.6690                 1.0775                 0.5713
 IR Inten    --      8.9179                17.1729                 0.2843

                     52                     53                     54
                      A                      A                      A
 Frequencies --    886.5339               951.4853               956.0159
 Red. masses --      1.2846                 1.4812                 1.4264
 Frc consts  --      0.5948                 0.7901                 0.7681
 IR Inten    --      2.6956                 5.2956                 2.8857

                     55                     56                     57
                      A                      A                      A
 Frequencies --    963.2587              1009.1911              1011.9496
 Red. masses --      1.5076                 1.3735                 1.3883
 Frc consts  --      0.8242                 0.8242                 0.8377
 IR Inten    --     22.5469                 5.6043                 0.4259

                     58                     59                     60
                      A                      A                      A
 Frequencies --   1012.8347              1017.6176              1022.1158
 Red. masses --      1.4114                 1.6152                 1.4885
 Frc consts  --      0.8530                 0.9855                 0.9162
 IR Inten    --      3.7989                16.8251                46.3933

                     61                     62                     63
                      A                      A                      A
 Frequencies --   1025.3467              1025.5833              1027.5803
 Red. masses --      2.3509                 4.1731                 4.4446
 Frc consts  --      1.4562                 2.5862                 2.7651
 IR Inten    --     15.0058                 1.2820                 1.9259

                     64                     65                     66
                      A                      A                      A
 Frequencies --   1029.2475              1030.4838              1032.8001
 Red. masses --      2.1717                 1.4130                 1.3602
 Frc consts  --      1.3555                 0.8840                 0.8548
 IR Inten    --     66.1096                14.8764                 2.8287

                     67                     68                     69
                      A                      A                      A
 Frequencies --   1049.0168              1051.8470              1060.1824
 Red. masses --      2.5049                 1.4597                 2.1874
 Frc consts  --      1.6240                 0.9516                 1.4486
 IR Inten    --     83.4581                33.5310                12.4729

                     70                     71                     72
                      A                      A                      A
 Frequencies --   1062.4533              1071.8347              1077.8543
 Red. masses --      2.4590                 1.6877                 2.1741
 Frc consts  --      1.6354                 1.1424                 1.4881
 IR Inten    --     10.1153                34.4644                84.2538

                     73                     74                     75
                      A                      A                      A
 Frequencies --   1105.5582              1106.6765              1110.2901
 Red. masses --      1.5655                 1.7709                 1.5468
 Frc consts  --      1.1273                 1.2779                 1.1235
 IR Inten    --     21.8863                10.8124                 9.8211

                     76                     77                     78
                      A                      A                      A
 Frequencies --   1129.0869              1172.1072              1179.1139
 Red. masses --      1.6558                 3.2740                 1.1346
 Frc consts  --      1.2437                 2.6501                 0.9294
 IR Inten    --      9.2638                 5.2542                 0.0080

                     79                     80                     81
                      A                      A                      A
 Frequencies --   1183.0379              1186.8555              1203.2450
 Red. masses --      1.1403                 1.1293                 1.1225
 Frc consts  --      0.9403                 0.9372                 0.9575
 IR Inten    --      0.0809                 0.1930                 0.2081

                     82                     83                     84
                      A                      A                      A
 Frequencies --   1206.0780              1225.5711              1238.7775
 Red. masses --      1.1246                 1.1696                 3.2292
 Frc consts  --      0.9638                 1.0351                 2.9196
 IR Inten    --      1.1715                 7.0032                83.5068

                     85                     86                     87
                      A                      A                      A
 Frequencies --   1243.7946              1283.9359              1307.5443
 Red. masses --      1.4512                 3.6473                 4.5069
 Frc consts  --      1.3227                 3.5425                 4.5398
 IR Inten    --     31.2877                 5.7552                 0.3615

                     88                     89                     90
                      A                      A                      A
 Frequencies --   1317.5707              1322.3214              1345.1481
 Red. masses --      4.2220                 4.8602                 1.3248
 Frc consts  --      4.3183                 5.0070                 1.4123
 IR Inten    --      1.8885                30.7281                 0.5134

                     91                     92                     93
                      A                      A                      A
 Frequencies --   1354.3077              1358.4317              1371.2273
 Red. masses --      1.4603                 1.4760                 1.4591
 Frc consts  --      1.5780                 1.6047                 1.6164
 IR Inten    --      1.5268                 1.2767                39.1957

                     94                     95                     96
                      A                      A                      A
 Frequencies --   1393.6772              1421.0478              1424.5450
 Red. masses --      3.9389                 2.7154                 1.6721
 Frc consts  --      4.5076                 3.2307                 1.9992
 IR Inten    --    841.3374               528.8475                99.8530

                     97                     98                     99
                      A                      A                      A
 Frequencies --   1460.5671              1485.9648              1487.6895
 Red. masses --      1.1994                 2.1770                 2.1465
 Frc consts  --      1.5075                 2.8322                 2.7991
 IR Inten    --     23.4389                 3.2163                 8.8489

                    100                    101                    102
                      A                      A                      A
 Frequencies --   1490.2889              1494.9532              1495.8949
 Red. masses --      1.5014                 1.0429                 1.3743
 Frc consts  --      1.9647                 1.3733                 1.8119
 IR Inten    --     20.9995                12.6758                 6.2437

                    103                    104                    105
                      A                      A                      A
 Frequencies --   1504.2598              1512.7850              1540.9500
 Red. masses --      1.0670                 1.0729                 2.3933
 Frc consts  --      1.4226                 1.4466                 3.3483
 IR Inten    --     25.5387                41.1726                25.4631

                    106                    107                    108
                      A                      A                      A
 Frequencies --   1542.5953              1548.9191              1573.8119
 Red. masses --      2.4828                 2.2353                10.6955
 Frc consts  --      3.4810                 3.1597                15.6084
 IR Inten    --     31.0385                 6.2552               931.8661

                    109                    110                    111
                      A                      A                      A
 Frequencies --   1643.9719              1646.8137              1649.0543
 Red. masses --      5.7790                 2.3629                 2.0932
 Frc consts  --      9.2022                 3.7757                 3.3537
 IR Inten    --      2.5646                30.6444                13.4306

                    112                    113                    114
                      A                      A                      A
 Frequencies --   1654.9578              1671.4553              1674.7841
 Red. masses --      2.7390                 6.0067                 5.9082
 Frc consts  --      4.4199                 9.8872                 9.7640
 IR Inten    --     15.3050                27.2965                 1.6260

                    115                    116                    117
                      A                      A                      A
 Frequencies --   1677.9571              3072.6537              3085.4854
 Red. masses --      5.6993                 1.0353                 1.0389
 Frc consts  --      9.4543                 5.7587                 5.8273
 IR Inten    --      1.1754                45.8529                16.4057

                    118                    119                    120
                      A                      A                      A
 Frequencies --   3152.2358              3156.6075              3176.9386
 Red. masses --      1.1029                 1.1025                 1.1055
 Frc consts  --      6.4569                 6.4727                 6.5740
 IR Inten    --     12.1230                22.4952                13.7678

                    121                    122                    123
                      A                      A                      A
 Frequencies --   3178.9492              3179.3497              3186.1018
 Red. masses --      1.0885                 1.0877                 1.1003
 Frc consts  --      6.4810                 6.4777                 6.5808
 IR Inten    --      9.6451                19.0476                 9.7420

                    124                    125                    126
                      A                      A                      A
 Frequencies --   3186.4374              3191.7598              3196.0091
 Red. masses --      1.0868                 1.0871                 1.0907
 Frc consts  --      6.5014                 6.5253                 6.5641
 IR Inten    --      3.5239                 3.1466                12.3861

                    127                    128                    129
                      A                      A                      A
 Frequencies --   3197.3824              3201.3885              3203.9318
 Red. masses --      1.0860                 1.0902                 1.0948
 Frc consts  --      6.5413                 6.5830                 6.6212
 IR Inten    --      0.6329                 3.8733                53.7777

                    130                    131                    132
                      A                      A                      A
 Frequencies --   3205.8585              3209.8359              3216.0720
 Red. masses --      1.0895                 1.0946                 1.0986
 Frc consts  --      6.5971                 6.6448                 6.6950
 IR Inten    --      7.6813                37.2723                22.3886

                    133                    134                    135
                      A                      A                      A
 Frequencies --   3217.3378              3221.6164              3226.2329
 Red. masses --      1.0933                 1.0986                 1.0930
 Frc consts  --      6.6677                 6.7181                 6.7032
 IR Inten    --     32.2355                22.1748                30.5751

                    136                    137                    138
                      A                      A                      A
 Frequencies --   3229.9181              3521.3827              3598.1641
 Red. masses --      1.0964                 1.0524                 1.0948
 Frc consts  --      6.7389                 7.6884                 8.3511
 IR Inten    --      2.0999                24.3089                71.6221

 - Thermochemistry -
 -------------------
 Temperature   298.150 Kelvin.  Pressure   1.00000 Atm.
 Atom     1 has atomic number  6 and mass  12.00000

 Molecular mass:   329.17796 amu.
 Principal axes and moments of inertia in atomic units:
                           1         2         3
     Eigenvalues --  5159.31473********************
           X            0.99991   0.01330  -0.00110
           Y           -0.01330   0.99991  -0.00307
           Z            0.00106   0.00309   0.99999
 This molecule is an asymmetric top.
 Rotational symmetry number  1.
 Warning -- assumption of classical behavior for rotation
           may cause significant error
 Rotational temperatures (Kelvin)      0.01679     0.00832     0.00688
 Rotational constants (GHZ):           0.34980     0.17339     0.14332
    1 imaginary frequencies ignored.
 Zero-point vibrational energy    1060801.8 (Joules/Mol)
                                  253.53771 (Kcal/Mol)
 Warning -- explicit consideration of  32 degrees of freedom as
           vibrations may cause significant error
 Vibrational temperatures:     36.32    53.26    62.11    77.97    94.15
          (Kelvin)             95.28   108.60   128.46   152.94   159.17
                              209.58   282.87   288.47   297.60   339.75
                              349.66   388.95   408.13   453.68   469.21
                              495.17   519.27   546.87   604.30   605.53
                              611.45   641.13   652.39   758.12   775.84
                              807.41   857.03   913.49   918.56   922.91
                              926.20   944.73   997.44  1014.44  1046.57
                             1048.57  1057.73  1117.83  1134.69  1150.97
                             1157.55  1216.31  1256.29  1258.26  1265.36
                             1275.52  1368.98  1375.49  1385.91  1452.00
                             1455.97  1457.24  1464.12  1470.60  1475.25
                             1475.59  1478.46  1480.86  1482.64  1485.97
                             1509.30  1513.37  1525.37  1528.63  1542.13
                             1550.79  1590.65  1592.26  1597.46  1624.50
                             1686.40  1696.48  1702.13  1707.62  1731.20
                             1735.28  1763.32  1782.32  1789.54  1847.30
                             1881.26  1895.69  1902.53  1935.37  1948.55
                             1954.48  1972.89  2005.19  2044.57  2049.60
                             2101.43  2137.97  2140.45  2144.19  2150.90
                             2152.26  2164.29  2176.56  2217.08  2219.45
                             2228.55  2264.36  2365.31  2369.40  2372.62
                             2381.12  2404.85  2409.64  2414.21  4420.86
                             4439.33  4535.36  4541.65  4570.91  4573.80
                             4574.38  4584.09  4584.57  4592.23  4598.34
                             4600.32  4606.08  4609.74  4612.52  4618.24
                             4627.21  4629.03  4635.19  4641.83  4647.13
                             5066.48  5176.96

 Zero-point correction=                           0.404038 (Hartree/Particle)
 Thermal correction to Energy=                    0.426017
 Thermal correction to Enthalpy=                  0.426962
 Thermal correction to Gibbs Free Energy=         0.351802
 Sum of electronic and zero-point Energies=          -1019.855072
 Sum of electronic and thermal Energies=             -1019.833093
 Sum of electronic and thermal Enthalpies=           -1019.832148
 Sum of electronic and thermal Free Energies=        -1019.907308

                     E (Thermal)             CV                S
                      KCal/Mol        Cal/Mol-Kelvin    Cal/Mol-Kelvin
 Total                  267.330             86.001            158.186
 Electronic               0.000              0.000              0.000
 Translational            0.889              2.981             43.269
 Rotational               0.889              2.981             34.868
 Vibrational            265.553             80.039             80.048
 Vibration     1          0.593              1.985              6.172
 Vibration     2          0.594              1.982              5.413
 Vibration     3          0.595              1.980              5.108
 Vibration     4          0.596              1.976              4.658
 Vibration     5          0.597              1.971              4.286
 Vibration     6          0.598              1.970              4.263
 Vibration     7          0.599              1.965              4.005
 Vibration     8          0.602              1.957              3.676
 Vibration     9          0.605              1.944              3.335
 Vibration    10          0.606              1.941              3.258
 Vibration    11          0.617              1.907              2.728
 Vibration    12          0.636              1.845              2.165
 Vibration    13          0.638              1.839              2.129
 Vibration    14          0.641              1.830              2.071
 Vibration    15          0.655              1.785              1.832
 Vibration    16          0.659              1.774              1.781
 Vibration    17          0.674              1.728              1.594
 Vibration    18          0.682              1.704              1.511
 Vibration    19          0.703              1.644              1.334
 Vibration    20          0.710              1.623              1.279
 Vibration    21          0.723              1.587              1.193
 Vibration    22          0.735              1.553              1.118
 Vibration    23          0.750              1.513              1.039
 Vibration    24          0.783              1.427              0.892
 Vibration    25          0.783              1.425              0.889
 Vibration    26          0.787              1.416              0.875
 Vibration    27          0.805              1.371              0.809
 Vibration    28          0.812              1.353              0.785
 Vibration    29          0.882              1.190              0.594
 Vibration    30          0.894              1.163              0.567
 Vibration    31          0.917              1.115              0.521
 Vibration    32          0.953              1.041              0.457

 Optimization completed.
    -- Stationary point found.
 Normal termination of Gaussian 16 at Fri Jun  3 22:58:27 2022.
