 Gaussian 16, Revision A.03,
 Gaussian 16:  ES64L-G16RevA.03 25-Dec-2016

 ----------------------------------------------------------------------
 # wB97XD def2tzvp, opt=(ts, noeigen, calcfc, maxcycles=70, maxstep=5),
  freq=noraman, scrf=(iefpcm, solvent=water)
 ----------------------------------------------------------------------

 ------------------------
 2_iteration/TS-803-2.out
 ------------------------
 Symbolic Z-matrix:
 Charge =  0 Multiplicity = 1

 SCF Done:  E(RwB97XD) =  -1264.88034476     A.U. after   15 cycles
 SCF Done:  E(RwB97XD) =  -1264.88034449     A.U. after    7 cycles
 Optimization completed.
    -- Stationary point found.
 Normal termination of Gaussian 16 at Sun Jun 13 09:28:03 2021.

 ---------------------------------------------------------------------
 #N Geom=AllCheck Guess=TCheck SCRF=Check GenChk RwB97XD/def2TZVP Freq
 ---------------------------------------------------------------------

 Structure from the checkpoint file:  "/beegfs/scratch/user/q/tla25/Gau-156123.chk"
 ------------------------
 2_iteration/TS-803-2.out
 ------------------------
 Charge =  0 Multiplicity = 1

                         Standard orientation:
 ---------------------------------------------------------------------
 Center     Atomic      Atomic             Coordinates (Angstroms)
 Number     Number       Type             X           Y           Z
 ---------------------------------------------------------------------
      1          6           0        0.505077    0.423072    0.281398
      2          6           0        0.126819    1.501294    1.164707
      3          8           0       -0.983087    1.642593    1.698877
      4          6           0       -0.449063   -0.522033   -0.128586
      5          6           0       -0.486949   -1.666797    2.388670
      6          1           0        0.110627   -0.776125    2.576983
      7          1           0       -1.522105   -1.454497    2.640057
      8          1           0       -0.119536   -2.490969    2.997535
      9          7           0       -0.376942   -1.989365    0.965903
     10          1           0        0.555336   -2.331226    0.754567
     11          1           0       -1.023120   -2.717661    0.678142
     12         17           0        0.009037   -1.446453   -1.639119
     13          6           0       -1.904071   -0.149980   -0.262671
     14          6           0       -2.967321   -0.882391    0.246176
     15          6           0       -4.277985   -0.485645    0.010951
     16          6           0       -4.544680    0.638250   -0.750687
     17          6           0       -3.486846    1.365305   -1.282372
     18          6           0       -2.184066    0.972826   -1.042019
     19          1           0       -2.815768   -1.768391    0.844537
     20          1           0       -5.090221   -1.066692    0.428603
     21          1           0       -5.566560    0.944647   -0.934060
     22          1           0       -3.678539    2.243460   -1.885916
     23          1           0       -1.360954    1.543355   -1.452314
     24          6           0        1.946806    0.242746   -0.061982
     25          6           0        2.807987   -0.465116    0.777417
     26          6           0        4.151823   -0.623007    0.465400
     27          6           0        4.664424   -0.063354   -0.694997
     28          6           0        3.826264    0.656104   -1.536654
     29          6           0        2.484773    0.805786   -1.220452
     30          1           0        2.423556   -0.888467    1.698703
     31          1           0        4.798134   -1.180009    1.132368
     32          1           0        5.712107   -0.182567   -0.941054
     33          1           0        4.219634    1.101238   -2.442283
     34          1           0        1.832159    1.365319   -1.879999
     35          7           0        1.089384    2.459530    1.400907
     36          1           0        0.920675    3.060159    2.188978
     37          1           0        2.050586    2.273862    1.175685
 ---------------------------------------------------------------------

 SCF Done:  E(RwB97XD) =  -1264.88034449     A.U. after    1 cycles

 The electronic state is 1-A.
 Alpha  occ. eigenvalues -- -101.69353 -19.18957 -14.50676 -14.42861 -10.40922
 Alpha  occ. eigenvalues --  -10.37129 -10.32179 -10.31296 -10.29819 -10.29698
 Alpha  occ. eigenvalues --  -10.29266 -10.29171 -10.29134 -10.29085 -10.28952
 Alpha  occ. eigenvalues --  -10.28898 -10.28844 -10.28810 -10.28582 -10.25844
 Alpha  occ. eigenvalues --   -9.57958  -7.32573  -7.31755  -7.31715  -1.11549
 Alpha  occ. eigenvalues --   -1.06352  -0.98673  -0.98309  -0.96419  -0.95159
 Alpha  occ. eigenvalues --   -0.88152  -0.86600  -0.85507  -0.84899  -0.81792
 Alpha  occ. eigenvalues --   -0.79941  -0.74402  -0.71056  -0.70239  -0.69566
 Alpha  occ. eigenvalues --   -0.68976  -0.65644  -0.63531  -0.61733  -0.61089
 Alpha  occ. eigenvalues --   -0.59637  -0.58577  -0.56847  -0.56291  -0.54925
 Alpha  occ. eigenvalues --   -0.54352  -0.53395  -0.52559  -0.51548  -0.51128
 Alpha  occ. eigenvalues --   -0.50720  -0.50695  -0.49005  -0.47965  -0.47832
 Alpha  occ. eigenvalues --   -0.47168  -0.46302  -0.46124  -0.44284  -0.42986
 Alpha  occ. eigenvalues --   -0.42571  -0.42458  -0.40005  -0.39599  -0.35061
 Alpha  occ. eigenvalues --   -0.34644  -0.34063  -0.33568  -0.33246  -0.31048
 Alpha  occ. eigenvalues --   -0.27164
 Alpha virt. eigenvalues --    0.03139   0.05022   0.05089   0.05210   0.07066
 Alpha virt. eigenvalues --    0.09565   0.10339   0.12544   0.13115   0.13521
 Alpha virt. eigenvalues --    0.14162   0.15146   0.15403   0.16830   0.17511

 Mulliken charges:
               1
     1  C   -0.292897
     2  C    0.312250
     3  O   -0.537068
     4  C    0.232259
     5  C   -0.307165
     6  H    0.162181
     7  H    0.160911
     8  H    0.169246
     9  N   -0.283730
    10  H    0.287614
    11  H    0.290861
    12  Cl  -0.143444
    13  C    0.280339
    14  C   -0.246495
    15  C   -0.167548
    16  C   -0.150117
    17  C   -0.136115
    18  C   -0.305102
    19  H    0.137207
    20  H    0.143697
    21  H    0.144483
    22  H    0.142313
    23  H    0.160564
    24  C    0.083935
    25  C   -0.256195
    26  C   -0.163539
    27  C   -0.127186
    28  C   -0.147834
    29  C   -0.219084
    30  H    0.160645
    31  H    0.139542
    32  H    0.143115
    33  H    0.139066
    34  H    0.143713
    35  N   -0.477064
    36  H    0.256088
    37  H    0.270557
 Sum of Mulliken charges =  -0.00000

 Dipole moment (field-independent basis, Debye):
    X=              2.0612    Y=             -6.3136    Z=              2.1370  Tot=              6.9768
 Quadrupole moment (field-independent basis, Debye-Ang):
   XX=           -110.1227   YY=           -113.6553   ZZ=           -122.0525
   XY=              7.9101   XZ=              5.0983   YZ=            -17.0192

  Exact polarizability: 357.747  -2.089 284.414 -12.870 -26.519 267.115
 Approx polarizability: 275.439  -3.004 239.271 -11.853 -24.748 229.725

 ******    1 imaginary frequencies (negative Signs) ******

                      1                      2                      3
                      A                      A                      A
 Frequencies --   -346.5883                31.0696                35.8445
 Red. masses --      5.2918                 4.1193                 4.4712
 Frc consts  --      0.3745                 0.0023                 0.0034
 IR Inten    --    775.2974                 0.4794                 1.8567

                      4                      5                      6
                      A                      A                      A
 Frequencies --     45.5443                62.0772                78.2680
 Red. masses --      4.1985                 4.7394                 4.9816
 Frc consts  --      0.0051                 0.0108                 0.0180
 IR Inten    --      0.2279                 3.4782                 9.4509

                      7                      8                      9
                      A                      A                      A
 Frequencies --     92.9466               109.2825               141.3891
 Red. masses --      5.9027                 5.3706                 4.4225
 Frc consts  --      0.0300                 0.0378                 0.0521
 IR Inten    --      5.6138                 3.0440                10.7706

                     10                     11                     12
                      A                      A                      A
 Frequencies --    172.4829               178.9517               204.3815
 Red. masses --      5.3152                 1.5238                 2.3886
 Frc consts  --      0.0932                 0.0288                 0.0588
 IR Inten    --      8.2136                 3.7369                 5.4851

                     13                     14                     15
                      A                      A                      A
 Frequencies --    215.9382               238.3326               268.3304
 Red. masses --      3.5961                 6.1649                 4.6146
 Frc consts  --      0.0988                 0.2063                 0.1958
 IR Inten    --      6.7552                 6.7201                 8.1100

                     16                     17                     18
                      A                      A                      A
 Frequencies --    270.0091               297.9375               323.1952
 Red. masses --      2.8236                 3.3020                 3.5700
 Frc consts  --      0.1213                 0.1727                 0.2197
 IR Inten    --      5.8288                16.7290               106.7399

                     19                     20                     21
                      A                      A                      A
 Frequencies --    353.3138               362.6898               400.2618
 Red. masses --      1.6664                 3.9672                 4.7232
 Frc consts  --      0.1226                 0.3075                 0.4458
 IR Inten    --    254.4245                21.1309                60.8792

                     22                     23                     24
                      A                      A                      A
 Frequencies --    423.2311               425.1202               458.7445
 Red. masses --      2.8701                 2.8740                 1.9755
 Frc consts  --      0.3029                 0.3060                 0.2449
 IR Inten    --      0.9536                 0.8022                11.2889

                     25                     26                     27
                      A                      A                      A
 Frequencies --    503.7930               518.2603               532.1277
 Red. masses --      2.1440                 2.5105                 3.4765
 Frc consts  --      0.3206                 0.3973                 0.5800
 IR Inten    --     24.2465                25.0464                18.9447

                     28                     29                     30
                      A                      A                      A
 Frequencies --    585.9212               608.3650               626.1195
 Red. masses --      4.4284                 2.7894                 5.5670
 Frc consts  --      0.8957                 0.6083                 1.2858
 IR Inten    --    130.2850                47.9261                74.0938

                     31                     32                     33
                      A                      A                      A
 Frequencies --    639.1432               641.8019               698.2605
 Red. masses --      6.4542                 6.1645                 5.7361
 Frc consts  --      1.5534                 1.4961                 1.6478
 IR Inten    --      6.3686                12.0139                31.1580

                     34                     35                     36
                      A                      A                      A
 Frequencies --    717.6943               722.7161               731.3419
 Red. masses --      1.7743                 1.7873                 1.5219
 Frc consts  --      0.5385                 0.5500                 0.4796
 IR Inten    --     24.7444               123.6003                68.0325

                     37                     38                     39
                      A                      A                      A
 Frequencies --    763.0588               789.5734               802.0043
 Red. masses --      2.4332                 3.1901                 3.7360
 Frc consts  --      0.8347                 1.1717                 1.4158
 IR Inten    --    194.2389                35.5688                48.5215

                     40                     41                     42
                      A                      A                      A
 Frequencies --    846.3515               866.6888               881.2562
 Red. masses --      3.7930                 1.2548                 1.2599
 Frc consts  --      1.6008                 0.5553                 0.5765
 IR Inten    --     55.8321                 0.6152                 1.1589

                     43                     44                     45
                      A                      A                      A
 Frequencies --    888.3242               951.7498               959.9552
 Red. masses --      3.4056                 1.4836                 1.4959
 Frc consts  --      1.5834                 0.7918                 0.8122
 IR Inten    --     53.3460                 0.3602                 2.6097

                     46                     47                     48
                      A                      A                      A
 Frequencies --   1005.9958              1013.7972              1016.2782
 Red. masses --      1.3424                 1.3850                 1.3457
 Frc consts  --      0.8004                 0.8387                 0.8189
 IR Inten    --      4.8485                 2.6726                13.4879

                     49                     50                     51
                      A                      A                      A
 Frequencies --   1024.9394              1026.5781              1027.2074
 Red. masses --      4.6856                 4.7465                 1.3453
 Frc consts  --      2.9001                 2.9472                 0.8364
 IR Inten    --      2.0258                 0.7449                 0.3747

                     52                     53                     54
                      A                      A                      A
 Frequencies --   1029.2507              1045.7846              1066.0442
 Red. masses --      1.3269                 3.6339                 2.1266
 Frc consts  --      0.8282                 2.3416                 1.4239
 IR Inten    --      0.2805                17.8547                17.9838

                     55                     56                     57
                      A                      A                      A
 Frequencies --   1068.2242              1078.0566              1094.8648
 Red. masses --      2.4913                 2.5054                 1.6948
 Frc consts  --      1.6750                 1.7156                 1.1970
 IR Inten    --      3.5933                21.8172                19.1534

                     58                     59                     60
                      A                      A                      A
 Frequencies --   1101.7038              1108.9996              1128.5678
 Red. masses --      1.4144                 1.5506                 1.5848
 Frc consts  --      1.0114                 1.1236                 1.1893
 IR Inten    --    101.0006                 8.5799                10.8108

                     61                     62                     63
                      A                      A                      A
 Frequencies --   1182.2244              1185.3664              1206.3993
 Red. masses --      1.1338                 1.1409                 1.2714
 Frc consts  --      0.9336                 0.9445                 1.0902
 IR Inten    --      0.0950                 1.2958                26.3458

                     64                     65                     66
                      A                      A                      A
 Frequencies --   1208.9696              1226.2316              1261.7150
 Red. masses --      2.6114                 1.1507                 1.4057
 Frc consts  --      2.2489                 1.0194                 1.3185
 IR Inten    --    120.9071                 2.4247                39.6011

                     67                     68                     69
                      A                      A                      A
 Frequencies --   1269.4351              1303.4058              1323.7392
 Red. masses --      4.0322                 4.5786                 4.8814
 Frc consts  --      3.8284                 4.5829                 5.0396
 IR Inten    --      7.3641                 2.7434                 6.0902

                     70                     71                     72
                      A                      A                      A
 Frequencies --   1342.7663              1355.8889              1369.6071
 Red. masses --      1.3125                 1.4624                 1.5410
 Frc consts  --      1.3942                 1.5840                 1.7031
 IR Inten    --      2.9652                11.3125               133.3077

                     73                     74                     75
                      A                      A                      A
 Frequencies --   1372.8295              1414.7968              1470.5723
 Red. masses --      3.6509                 4.8166                 1.2342
 Frc consts  --      4.0540                 5.6804                 1.5726
 IR Inten    --    759.1324               420.3631                 8.4511

                     76                     77                     78
                      A                      A                      A
 Frequencies --   1485.2956              1491.1514              1491.2339
 Red. masses --      2.1761                 1.5598                 1.2922
 Frc consts  --      2.8286                 2.0435                 1.6931
 IR Inten    --      4.9471                44.3033                 0.4761

                     79                     80                     81
                      A                      A                      A
 Frequencies --   1507.8745              1542.6173              1546.6903
 Red. masses --      1.0454                 2.3954                 2.2937
 Frc consts  --      1.4005                 3.3585                 3.2329
 IR Inten    --     12.4536                36.4223                19.9274

                     82                     83                     84
                      A                      A                      A
 Frequencies --   1606.6651              1642.6028              1644.9661
 Red. masses --      1.3003                 4.9490                 1.4383
 Frc consts  --      1.9776                 7.8674                 2.2931
 IR Inten    --    312.8213                24.7716               163.8276

                     85                     86                     87
                      A                      A                      A
 Frequencies --   1654.2866              1658.3171              1671.4020
 Red. masses --      2.9331                 4.9483                 5.8920
 Frc consts  --      4.7294                 8.0175                 9.6978
 IR Inten    --    435.1362               255.3435                 3.7558

                     88                     89                     90
                      A                      A                      A
 Frequencies --   1676.0790              3084.0663              3165.1867
 Red. masses --      5.6305                 1.0333                 1.1050
 Frc consts  --      9.3194                 5.7907                 6.5226
 IR Inten    --      0.4158                32.6228                 3.2796

                     91                     92                     93
                      A                      A                      A
 Frequencies --   3184.2983              3189.0794              3190.5002
 Red. masses --      1.0878                 1.1049                 1.0871
 Frc consts  --      6.4985                 6.6206                 6.5199
 IR Inten    --     11.5178                13.2963                 1.7533

                     94                     95                     96
                      A                      A                      A
 Frequencies --   3197.1795              3200.2936              3205.7572
 Red. masses --      1.0861                 1.0908                 1.0892
 Frc consts  --      6.5409                 6.5825                 6.5952
 IR Inten    --      0.6474                10.8733                 4.8602

                     97                     98                     99
                      A                      A                      A
 Frequencies --   3208.0057              3215.1012              3219.3950
 Red. masses --      1.0949                 1.0933                 1.0988
 Frc consts  --      6.6391                 6.6587                 6.7098
 IR Inten    --     44.8297                23.1950                20.1012

                    100                    101                    102
                      A                      A                      A
 Frequencies --   3222.9398              3242.3409              3507.5890
 Red. masses --      1.0976                 1.0920                 1.0520
 Frc consts  --      6.7173                 6.7639                 7.6255
 IR Inten    --     24.5973                19.6868                41.9656

                    103                    104                    105
                      A                      A                      A
 Frequencies --   3580.3367              3615.3127              3735.0167
 Red. masses --      1.0954                 1.0461                 1.1026
 Frc consts  --      8.2734                 8.0559                 9.0630
 IR Inten    --     63.4758                52.8352                71.1386

 - Thermochemistry -
 -------------------
 Temperature   298.150 Kelvin.  Pressure   1.00000 Atm.
 Atom     1 has atomic number  6 and mass  12.00000

 Molecular mass:   288.10294 amu.
 Principal axes and moments of inertia in atomic units:
                           1         2         3
     Eigenvalues --  3107.790138206.720638422.24551
           X            1.00000   0.00268  -0.00151
           Y           -0.00307   0.85251  -0.52270
           Z           -0.00011   0.52270   0.85252
 This molecule is an asymmetric top.
 Rotational symmetry number  1.
 Warning -- assumption of classical behavior for rotation
           may cause significant error
 Rotational temperatures (Kelvin)      0.02787     0.01055     0.01028
 Rotational constants (GHZ):           0.58072     0.21991     0.21428
    1 imaginary frequencies ignored.
 Zero-point vibrational energy     791782.3 (Joules/Mol)
                                  189.24052 (Kcal/Mol)
 Warning -- explicit consideration of  28 degrees of freedom as
           vibrations may cause significant error
 Vibrational temperatures:     44.70    51.57    65.53    89.32   112.61
          (Kelvin)            133.73   157.23   203.43   248.16   257.47
                              294.06   310.69   342.91   386.07   388.48
                              428.67   465.01   508.34   521.83   575.89
                              608.94   611.65   660.03   724.85   745.66
                              765.61   843.01   875.30   900.85   919.58
                              923.41  1004.64  1032.60  1039.83  1052.24
                             1097.87  1136.02  1153.91  1217.71  1246.97
                             1267.93  1278.10  1369.36  1381.16  1447.40
                             1458.63  1462.20  1474.66  1477.02  1477.92
                             1480.86  1504.65  1533.80  1536.94  1551.08
                             1575.27  1585.11  1595.60  1623.76  1700.96
                             1705.48  1735.74  1739.44  1764.27  1815.33
                             1826.43  1875.31  1904.57  1931.94  1950.82
                             1970.56  1975.20  2035.58  2115.83  2137.01
                             2145.43  2145.55  2169.50  2219.48  2225.34
                             2311.63  2363.34  2366.74  2380.15  2385.95
                             2404.77  2411.50  4437.28  4554.00  4581.50
                             4588.37  4590.42  4600.03  4604.51  4612.37
                             4615.60  4625.81  4631.99  4637.09  4665.01
                             5046.64  5151.31  5201.63  5373.86

 Zero-point correction=                           0.301574 (Hartree/Particle)
 Thermal correction to Energy=                    0.320130
 Thermal correction to Enthalpy=                  0.321074
 Thermal correction to Gibbs Free Energy=         0.253880
 Sum of electronic and zero-point Energies=          -1264.578771
 Sum of electronic and thermal Energies=             -1264.560215
 Sum of electronic and thermal Enthalpies=           -1264.559271
 Sum of electronic and thermal Free Energies=        -1264.626464

                     E (Thermal)             CV                S
                      KCal/Mol        Cal/Mol-Kelvin    Cal/Mol-Kelvin
 Total                  200.884             71.045            141.421
 Electronic               0.000              0.000              0.000
 Translational            0.889              2.981             42.872
 Rotational               0.889              2.981             33.729
 Vibrational            199.107             65.083             64.820
 Vibration     1          0.594              1.983              5.760
 Vibration     2          0.594              1.982              5.476
 Vibration     3          0.595              1.979              5.002
 Vibration     4          0.597              1.972              4.390
 Vibration     5          0.600              1.964              3.934
 Vibration     6          0.602              1.954              3.597
 Vibration     7          0.606              1.942              3.282
 Vibration     8          0.615              1.912              2.785
 Vibration     9          0.626              1.876              2.408
 Vibration    10          0.629              1.868              2.339
 Vibration    11          0.640              1.834              2.093
 Vibration    12          0.645              1.817              1.993
 Vibration    13          0.656              1.782              1.815
 Vibration    14          0.673              1.731              1.607
 Vibration    15          0.674              1.728              1.596
 Vibration    16          0.691              1.678              1.428
 Vibration    17          0.708              1.629              1.294
 Vibration    18          0.730              1.568              1.151
 Vibration    19          0.737              1.549              1.111
 Vibration    20          0.766              1.470              0.962
 Vibration    21          0.785              1.420              0.881
 Vibration    22          0.787              1.416              0.875
 Vibration    23          0.817              1.342              0.770
 Vibration    24          0.859              1.242              0.649
 Vibration    25          0.873              1.210              0.614
 Vibration    26          0.887              1.179              0.582
 Vibration    27          0.943              1.062              0.475
 Vibration    28          0.967              1.014              0.435

 Optimization completed.
    -- Stationary point found.
 Normal termination of Gaussian 16 at Sun Jun 13 10:32:37 2021.
