 Gaussian 16, Revision A.03,
 Gaussian 16:  ES64L-G16RevA.03 25-Dec-2016

 ----------------------------------------------------------------------
 # wB97XD def2tzvp, opt=(ts, noeigen, calcfc, maxcycles=70, maxstep=8),
  freq=noraman, scrf=(iefpcm, solvent=water)
 ----------------------------------------------------------------------

 ------------------------
 1_iteration/TS-835-1.out
 ------------------------
 Symbolic Z-matrix:
 Charge =  0 Multiplicity = 1

 SCF Done:  E(RwB97XD) =  -1493.42849673     A.U. after   16 cycles
 SCF Done:  E(RwB97XD) =  -1493.43141084     A.U. after   14 cycles
 SCF Done:  E(RwB97XD) =  -1493.43345768     A.U. after   13 cycles
 SCF Done:  E(RwB97XD) =  -1493.43473854     A.U. after   13 cycles
 SCF Done:  E(RwB97XD) =  -1493.43479676     A.U. after   13 cycles
 SCF Done:  E(RwB97XD) =  -1493.43511946     A.U. after   12 cycles
 SCF Done:  E(RwB97XD) =  -1493.43553142     A.U. after   13 cycles
 SCF Done:  E(RwB97XD) =  -1493.43580316     A.U. after   13 cycles
 SCF Done:  E(RwB97XD) =  -1493.43591693     A.U. after   12 cycles
 SCF Done:  E(RwB97XD) =  -1493.43585563     A.U. after   12 cycles
 SCF Done:  E(RwB97XD) =  -1493.43596345     A.U. after   12 cycles
 SCF Done:  E(RwB97XD) =  -1493.43601269     A.U. after   12 cycles
 SCF Done:  E(RwB97XD) =  -1493.43599843     A.U. after   12 cycles
 SCF Done:  E(RwB97XD) =  -1493.43601088     A.U. after   12 cycles
 SCF Done:  E(RwB97XD) =  -1493.43607794     A.U. after   12 cycles
 SCF Done:  E(RwB97XD) =  -1493.43608693     A.U. after    9 cycles
 SCF Done:  E(RwB97XD) =  -1493.43608869     A.U. after   10 cycles
 SCF Done:  E(RwB97XD) =  -1493.43608859     A.U. after    8 cycles
 SCF Done:  E(RwB97XD) =  -1493.43608869     A.U. after    7 cycles
 Optimization completed.
    -- Stationary point found.
 Normal termination of Gaussian 16 at Thu Feb 25 23:08:43 2021.

 ---------------------------------------------------------------------
 #N Geom=AllCheck Guess=TCheck SCRF=Check GenChk RwB97XD/def2TZVP Freq
 ---------------------------------------------------------------------

 Structure from the checkpoint file:  "/beegfs/scratch/user/q/tla25/Gau-64467.chk"
 ------------------------
 1_iteration/TS-835-1.out
 ------------------------
 Charge =  0 Multiplicity = 1

                         Standard orientation:
 ---------------------------------------------------------------------
 Center     Atomic      Atomic             Coordinates (Angstroms)
 Number     Number       Type             X           Y           Z
 ---------------------------------------------------------------------
      1          6           0        1.261362    0.376999   -0.233773
      2          6           0        1.113943    1.727558    0.276629
      3          8           0        0.095591    2.129603    0.848905
      4          6           0        0.266238   -0.596142   -0.158499
      5          6           0        0.844845   -0.883224    2.564865
      6          1           0        1.522350   -0.072504    2.299586
      7          1           0       -0.081061   -0.458459    2.942897
      8          1           0        1.306609   -1.501285    3.333317
      9          7           0        0.579362   -1.665222    1.359472
     10          1           0       -0.146152   -2.362212    1.491119
     11          1           0        1.415079   -2.163161    1.071581
     12         17           0        0.412307   -1.964673   -1.335834
     13          6           0       -1.180000   -0.177430   -0.110933
     14          6           0       -2.085102   -0.559162    0.868378
     15          6           0       -3.415164   -0.165554    0.791931
     16          6           0       -3.859955    0.601563   -0.270132
     17          6           0       -2.963044    0.973188   -1.263904
     18          6           0       -1.639475    0.584811   -1.185361
     19          1           0       -1.787039   -1.153093    1.718609
     20          1           0       -4.101806   -0.466567    1.572639
     21          1           0       -4.897173    0.905530   -0.328035
     22          1           0       -3.296595    1.568997   -2.103939
     23          1           0       -0.942693    0.878177   -1.959795
     24         17           0        2.878240   -0.137077   -0.707723
     25          7           0        2.175678    2.570639    0.122405
     26          1           0        2.940528    2.348255   -0.487634
     27          1           0        2.016753    3.535693    0.350525
 ---------------------------------------------------------------------

 SCF Done:  E(RwB97XD) =  -1493.43608869     A.U. after    1 cycles

 The electronic state is 1-A.
 Alpha  occ. eigenvalues -- -101.69994-101.69372 -19.19988 -14.50170 -14.43793
 Alpha  occ. eigenvalues --  -10.41549 -10.38627 -10.32190 -10.31736 -10.31411
 Alpha  occ. eigenvalues --  -10.29897 -10.29436 -10.29414 -10.29322 -10.29267
 Alpha  occ. eigenvalues --   -9.58590  -9.57908  -7.33228  -7.32529  -7.32377
 Alpha  occ. eigenvalues --   -7.32335  -7.31711  -7.31677  -1.12873  -1.05954
 Alpha  occ. eigenvalues --   -1.00076  -0.99166  -0.96525  -0.93871  -0.87611
 Alpha  occ. eigenvalues --   -0.85736  -0.82343  -0.79803  -0.74353  -0.71251
 Alpha  occ. eigenvalues --   -0.70065  -0.65553  -0.64420  -0.62322  -0.59951
 Alpha  occ. eigenvalues --   -0.58704  -0.57426  -0.56637  -0.54599  -0.53495
 Alpha  occ. eigenvalues --   -0.52864  -0.51475  -0.51290  -0.50413  -0.48572
 Alpha  occ. eigenvalues --   -0.48197  -0.47209  -0.46529  -0.44454  -0.43450
 Alpha  occ. eigenvalues --   -0.42506  -0.41444  -0.39775  -0.39164  -0.35718
 Alpha  occ. eigenvalues --   -0.34963  -0.33929  -0.32113  -0.27793
 Alpha virt. eigenvalues --    0.02713   0.04904   0.05460   0.08568   0.10496
 Alpha virt. eigenvalues --    0.12750   0.13014   0.14029   0.14731   0.15508
 Alpha virt. eigenvalues --    0.16315   0.17098   0.17593   0.18661   0.18995

 Mulliken charges:
               1
     1  C   -0.251588
     2  C    0.324008
     3  O   -0.521850
     4  C    0.207564
     5  C   -0.291298
     6  H    0.162420
     7  H    0.156110
     8  H    0.166036
     9  N   -0.314136
    10  H    0.293780
    11  H    0.286990
    12  Cl  -0.122883
    13  C    0.271028
    14  C   -0.231911
    15  C   -0.162728
    16  C   -0.155537
    17  C   -0.115767
    18  C   -0.317870
    19  H    0.139953
    20  H    0.145217
    21  H    0.145795
    22  H    0.145142
    23  H    0.154401
    24  Cl  -0.166869
    25  N   -0.477620
    26  H    0.264947
    27  H    0.266666
 Sum of Mulliken charges =  -0.00000

 Dipole moment (field-independent basis, Debye):
    X=              0.2023    Y=             -4.2267    Z=              3.4024  Tot=              5.4298
 Quadrupole moment (field-independent basis, Debye-Ang):
   XX=            -93.5217   YY=            -95.3059   ZZ=            -94.4519
   XY=              3.6821   XZ=              2.4828   YZ=            -17.3189

  Exact polarizability: 256.333  -2.239 219.269 -16.772 -15.914 203.494
 Approx polarizability: 204.154  -4.727 181.662 -15.104 -12.807 177.350

 ******    1 imaginary frequencies (negative Signs) ******

                      1                      2                      3
                      A                      A                      A
 Frequencies --   -344.8307                44.1362                62.2831
 Red. masses --      5.2738                 4.0937                 4.7810
 Frc consts  --      0.3695                 0.0047                 0.0109
 IR Inten    --    609.1935                 2.0806                 6.4093

                      4                      5                      6
                      A                      A                      A
 Frequencies --     62.7614                88.0735               124.8523
 Red. masses --      7.3323                 5.7706                 3.9149
 Frc consts  --      0.0170                 0.0264                 0.0360
 IR Inten    --      1.8292                 6.6465                11.6217

                      7                      8                      9
                      A                      A                      A
 Frequencies --    135.7268               157.4591               193.0971
 Red. masses --      4.0429                 1.3270                 5.9305
 Frc consts  --      0.0439                 0.0194                 0.1303
 IR Inten    --      6.0212                 3.7940                11.6595

                     10                     11                     12
                      A                      A                      A
 Frequencies --    209.8348               227.2873               242.2145
 Red. masses --      6.0751                 3.1340                 1.3854
 Frc consts  --      0.1576                 0.0954                 0.0479
 IR Inten    --      1.2771                43.5221               263.7341

                     13                     14                     15
                      A                      A                      A
 Frequencies --    248.2825               280.1933               296.4673
 Red. masses --      3.6629                 5.2587                 4.3057
 Frc consts  --      0.1330                 0.2432                 0.2230
 IR Inten    --     57.7427                24.7062                 2.4511

                     16                     17                     18
                      A                      A                      A
 Frequencies --    333.5348               357.8916               382.5507
 Red. masses --      4.0893                 4.7230                 7.9627
 Frc consts  --      0.2680                 0.3564                 0.6866
 IR Inten    --     27.9183                41.9228                19.2455

                     19                     20                     21
                      A                      A                      A
 Frequencies --    424.0364               458.6997               515.6315
 Red. masses --      2.8960                 8.7367                 1.2665
 Frc consts  --      0.3068                 1.0831                 0.1984
 IR Inten    --      0.3583                13.8038                35.4947

                     22                     23                     24
                      A                      A                      A
 Frequencies --    525.2225               568.6051               586.9860
 Red. masses --      3.1360                 3.4508                 2.5941
 Frc consts  --      0.5097                 0.6573                 0.5266
 IR Inten    --      8.2447               169.5554                43.4418

                     25                     26                     27
                      A                      A                      A
 Frequencies --    636.2181               651.4902               702.7961
 Red. masses --      5.8508                 5.7299                 1.9067
 Frc consts  --      1.3953                 1.4329                 0.5549
 IR Inten    --     18.0013                75.3684                28.6543

                     28                     29                     30
                      A                      A                      A
 Frequencies --    722.5293               763.0023               778.7843
 Red. masses --      1.7462                 2.3141                 7.6893
 Frc consts  --      0.5371                 0.7937                 2.7477
 IR Inten    --     57.2816               186.5051                61.2615

                     31                     32                     33
                      A                      A                      A
 Frequencies --    843.3571               869.0453               877.2843
 Red. masses --      3.6081                 1.2750                 4.4673
 Frc consts  --      1.5120                 0.5673                 2.0257
 IR Inten    --     44.8041                 2.2043                97.3758

                     34                     35                     36
                      A                      A                      A
 Frequencies --    955.7558              1005.1819              1012.3378
 Red. masses --      1.4803                 1.2282                 1.2776
 Frc consts  --      0.7967                 0.7312                 0.7714
 IR Inten    --      0.1918                15.5615                 8.9172

                     37                     38                     39
                      A                      A                      A
 Frequencies --   1026.1185              1029.7404              1054.8885
 Red. masses --      5.4682                 1.3124                 2.8741
 Frc consts  --      3.3922                 0.8199                 1.8844
 IR Inten    --      0.7492                 0.1441                11.8030

                     40                     41                     42
                      A                      A                      A
 Frequencies --   1068.2276              1075.0419              1083.1374
 Red. masses --      1.8466                 2.9893                 1.7270
 Frc consts  --      1.2415                 2.0355                 1.1938
 IR Inten    --      4.7663                19.8031                69.3592

                     43                     44                     45
                      A                      A                      A
 Frequencies --   1092.2951              1130.0137              1186.8972
 Red. masses --      2.1085                 1.5859                 1.1383
 Frc consts  --      1.4822                 1.1932                 0.9448
 IR Inten    --     54.7615                 8.8659                 0.6149

                     46                     47                     48
                      A                      A                      A
 Frequencies --   1214.6593              1227.1901              1245.3347
 Red. masses --      3.3798                 1.1495                 1.4438
 Frc consts  --      2.9380                 1.0200                 1.3192
 IR Inten    --    141.3185                 5.3608                26.4517

                     49                     50                     51
                      A                      A                      A
 Frequencies --   1319.8467              1341.8930              1370.2296
 Red. masses --      4.8377                 1.3276                 1.3997
 Frc consts  --      4.9652                 1.4085                 1.5484
 IR Inten    --      9.9795                 1.6254                 4.7287

                     52                     53                     54
                      A                      A                      A
 Frequencies --   1379.0765              1417.0856              1469.9703
 Red. masses --      4.2901                 5.3268                 1.2466
 Frc consts  --      4.8072                 6.3025                 1.5870
 IR Inten    --    458.9749               911.1575                23.6088

                     55                     56                     57
                      A                      A                      A
 Frequencies --   1491.3193              1491.8097              1507.3469
 Red. masses --      1.0720                 2.0628                 1.0442
 Frc consts  --      1.4047                 2.7047                 1.3979
 IR Inten    --      5.1796                46.3810                16.6913

                     58                     59                     60
                      A                      A                      A
 Frequencies --   1547.0699              1591.7502              1643.9535
 Red. masses --      2.2972                 1.3295                 1.2332
 Frc consts  --      3.2394                 1.9846                 1.9636
 IR Inten    --     28.4882               311.9873                86.5164

                     61                     62                     63
                      A                      A                      A
 Frequencies --   1657.1846              1665.5887              1676.8987
 Red. masses --      3.5761                 6.0984                 5.6326
 Frc consts  --      5.7864                 9.9679                 9.3320
 IR Inten    --     32.5069               591.3515                 0.5879

                     64                     65                     66
                      A                      A                      A
 Frequencies --   3081.1741              3159.9250              3184.7544
 Red. masses --      1.0333                 1.1048                 1.1052
 Frc consts  --      5.7800                 6.4998                 6.6046
 IR Inten    --     28.3339                 5.0750                11.9985

                     67                     68                     69
                      A                      A                      A
 Frequencies --   3198.8545              3206.8705              3215.9206
 Red. masses --      1.0861                 1.0894                 1.0938
 Frc consts  --      6.5483                 6.6007                 6.6648
 IR Inten    --      0.4993                 4.9084                22.0918

                     70                     71                     72
                      A                      A                      A
 Frequencies --   3224.6009              3252.2728              3518.7315
 Red. masses --      1.0981                 1.0913                 1.0516
 Frc consts  --      6.7274                 6.8012                 7.6715
 IR Inten    --     21.1340                17.5542                56.2828

                     73                     74                     75
                      A                      A                      A
 Frequencies --   3593.0477              3626.2108              3751.9755
 Red. masses --      1.0953                 1.0456                 1.1045
 Frc consts  --      8.3315                 8.1008                 9.1612
 IR Inten    --     57.8751                83.8975                84.3185

 - Thermochemistry -
 -------------------
 Temperature   298.150 Kelvin.  Pressure   1.00000 Atm.
 Atom     1 has atomic number  6 and mass  12.00000

 Molecular mass:   246.03267 amu.
 Principal axes and moments of inertia in atomic units:
                           1         2         3
     Eigenvalues --  2662.877584647.291315231.81084
           X            0.99985   0.00961   0.01447
           Y           -0.00751   0.99025  -0.13913
           Z           -0.01567   0.13900   0.99017
 This molecule is an asymmetric top.
 Rotational symmetry number  1.
 Warning -- assumption of classical behavior for rotation
           may cause significant error
 Rotational temperatures (Kelvin)      0.03253     0.01864     0.01656
 Rotational constants (GHZ):           0.67774     0.38834     0.34496
    1 imaginary frequencies ignored.
 Zero-point vibrational energy     552450.5 (Joules/Mol)
                                  132.03885 (Kcal/Mol)
 Warning -- explicit consideration of  23 degrees of freedom as
           vibrations may cause significant error
 Vibrational temperatures:     63.50    89.61    90.30   126.72   179.63
          (Kelvin)            195.28   226.55   277.82   301.91   327.02
                              348.49   357.22   403.14   426.55   479.88
                              514.93   550.41   610.09   659.97   741.88
                              755.68   818.10   844.54   915.38   937.35
                             1011.17  1039.56  1097.79  1120.50  1213.40
                             1250.36  1262.22  1375.12  1446.23  1456.53
                             1476.36  1481.57  1517.75  1536.94  1546.75
                             1558.39  1571.57  1625.84  1707.68  1747.62
                             1765.65  1791.76  1898.97  1930.68  1971.45
                             1984.18  2038.87  2114.96  2145.68  2146.38
                             2168.74  2225.89  2290.17  2365.28  2384.32
                             2396.41  2412.68  4433.12  4546.43  4582.15
                             4602.44  4613.97  4626.99  4639.48  4679.30
                             5062.67  5169.59  5217.31  5398.26

 Zero-point correction=                           0.210417 (Hartree/Particle)
 Thermal correction to Energy=                    0.225655
 Thermal correction to Enthalpy=                  0.226599
 Thermal correction to Gibbs Free Energy=         0.167531
 Sum of electronic and zero-point Energies=          -1493.225671
 Sum of electronic and thermal Energies=             -1493.210434
 Sum of electronic and thermal Enthalpies=           -1493.209490
 Sum of electronic and thermal Free Energies=        -1493.268558

                     E (Thermal)             CV                S
                      KCal/Mol        Cal/Mol-Kelvin    Cal/Mol-Kelvin
 Total                  141.601             56.138            124.320
 Electronic               0.000              0.000              0.000
 Translational            0.889              2.981             42.402
 Rotational               0.889              2.981             32.537
 Vibrational            139.823             50.176             49.381
 Vibration     1          0.595              1.980              5.064
 Vibration     2          0.597              1.972              4.384
 Vibration     3          0.597              1.972              4.368
 Vibration     4          0.601              1.958              3.702
 Vibration     5          0.610              1.928              3.024
 Vibration     6          0.614              1.918              2.863
 Vibration     7          0.621              1.894              2.580
 Vibration     8          0.635              1.849              2.198
 Vibration     9          0.642              1.826              2.045
 Vibration    10          0.651              1.799              1.900
 Vibration    11          0.658              1.776              1.787
 Vibration    12          0.662              1.766              1.743
 Vibration    13          0.680              1.710              1.532
 Vibration    14          0.690              1.680              1.437
 Vibration    15          0.715              1.609              1.243
 Vibration    16          0.733              1.559              1.131
 Vibration    17          0.752              1.507              1.029
 Vibration    18          0.786              1.418              0.878
 Vibration    19          0.817              1.342              0.770
 Vibration    20          0.871              1.215              0.620
 Vibration    21          0.880              1.194              0.598
 Vibration    22          0.925              1.099              0.507
 Vibration    23          0.944              1.060              0.473

 Optimization completed.
    -- Stationary point found.
 Normal termination of Gaussian 16 at Fri Feb 26 00:05:53 2021.
