 Gaussian 16, Revision A.03,
 Gaussian 16:  ES64L-G16RevA.03 25-Dec-2016

 ----------------------------------------------------------------------
 # wB97XD def2tzvp, opt=(ts, noeigen, calcfc, maxcycles=70, maxstep=3),
  freq=noraman, scrf=(iefpcm, solvent=water)
 ----------------------------------------------------------------------

 -----------------------
 3_iteration/TS-87-3.out
 -----------------------
 Symbolic Z-matrix:
 Charge =  0 Multiplicity = 1

 SCF Done:  E(RwB97XD) =  -1075.62929633     A.U. after   15 cycles
 Optimization completed.
    -- Stationary point found.
 Normal termination of Gaussian 16 at Sun Jun 13 22:57:30 2021.

 ---------------------------------------------------------------------
 #N Geom=AllCheck Guess=TCheck SCRF=Check GenChk RwB97XD/def2TZVP Freq
 ---------------------------------------------------------------------

 Structure from the checkpoint file:  "/beegfs/scratch/user/q/tla25/Gau-389258.chk"
 -----------------------
 3_iteration/TS-87-3.out
 -----------------------
 Charge =  0 Multiplicity = 1

                         Standard orientation:
 ---------------------------------------------------------------------
 Center     Atomic      Atomic             Coordinates (Angstroms)
 Number     Number       Type             X           Y           Z
 ---------------------------------------------------------------------
      1          6           0        0.111529    0.224940   -0.103299
      2          6           0       -1.263071    0.611480   -0.167159
      3          8           0       -1.627931    1.797400   -0.167679
      4          6           0        0.659899   -1.079780    0.180821
      5          6           0        1.132709   -2.461900    2.648531
      6          1           0        1.098479   -2.340140    3.730391
      7          1           0        0.521989   -3.314920    2.365471
      8          1           0        2.159909   -2.633220    2.335071
      9          7           0        0.622159   -1.257260    1.978601
     10          1           0       -0.366991   -1.126690    2.167371
     11          1           0        1.081909   -0.423910    2.328641
     12          6           0        2.138259   -1.213410   -0.157959
     13          6           0        3.164849   -0.731461    0.648281
     14          6           0        4.490949   -0.825971    0.255861
     15          6           0        4.821349   -1.396981   -0.962829
     16          6           0        3.809419   -1.876771   -1.779959
     17          6           0        2.486019   -1.790231   -1.377489
     18          1           0        2.953849   -0.244431    1.590131
     19          1           0        5.266279   -0.441721    0.906381
     20          1           0        5.856059   -1.466141   -1.272969
     21          1           0        4.047219   -2.322201   -2.737679
     22          1           0        1.716189   -2.161810   -2.040349
     23          6           0       -0.087371   -2.361390   -0.183439
     24          1           0       -0.354171   -2.359530   -1.240469
     25          1           0        0.544849   -3.230700   -0.012289
     26          1           0       -0.995101   -2.493370    0.401961
     27          6           0        1.056689    1.387500   -0.088229
     28          6           0        1.253659    2.151460    1.062381
     29          6           0        2.166749    3.195680    1.092821
     30          6           0        2.904029    3.507429   -0.041109
     31          6           0        2.708559    2.772969   -1.202479
     32          6           0        1.793439    1.730300   -1.221199
     33          1           0        0.673459    1.926580    1.950901
     34          1           0        2.303809    3.766349    2.003471
     35          1           0        3.620929    4.318879   -0.021009
     36          1           0        3.272929    3.011109   -2.096139
     37          1           0        1.655699    1.152260   -2.127439
     38          7           0       -2.251361   -0.386400   -0.252229
     39          6           0       -3.631121   -0.179080   -0.255409
     40          6           0       -4.252601    0.808660    0.512541
     41          6           0       -5.633821    0.921900    0.512941
     42          6           0       -6.425661    0.058220   -0.232029
     43          6           0       -5.811911   -0.931580   -0.986059
     44          6           0       -4.431641   -1.046970   -1.002859
     45          1           0       -1.972391   -1.236320   -0.704129
     46          1           0       -3.649931    1.483240    1.100331
     47          1           0       -6.096881    1.695740    1.113351
     48          1           0       -7.503641    0.154060   -0.222889
     49          1           0       -6.408891   -1.618150   -1.573739
     50          1           0       -3.963161   -1.818610   -1.603539
 ---------------------------------------------------------------------

 SCF Done:  E(RwB97XD) =  -1075.62929633     A.U. after    1 cycles

 The electronic state is 1-A.
 Alpha  occ. eigenvalues --  -19.18664 -14.50576 -14.44634 -10.36838 -10.36604
 Alpha  occ. eigenvalues --  -10.33033 -10.32492 -10.30762 -10.29455 -10.29265
 Alpha  occ. eigenvalues --  -10.29222 -10.29187 -10.29062 -10.28991 -10.28809
 Alpha  occ. eigenvalues --  -10.28729 -10.28611 -10.28383 -10.28330 -10.28277
 Alpha  occ. eigenvalues --  -10.28209 -10.27944 -10.27932 -10.27883 -10.27702
 Alpha  occ. eigenvalues --  -10.25078  -1.11566  -1.06103  -1.02371  -0.97610
 Alpha  occ. eigenvalues --   -0.95700  -0.94879  -0.91722  -0.86242  -0.85524
 Alpha  occ. eigenvalues --   -0.84741  -0.84548  -0.84164  -0.83375  -0.80704
 Alpha  occ. eigenvalues --   -0.78732  -0.73935  -0.71471  -0.70857  -0.70448
 Alpha  occ. eigenvalues --   -0.69408  -0.68256  -0.66814  -0.65052  -0.64316
 Alpha  occ. eigenvalues --   -0.62015  -0.60892  -0.59872  -0.59766  -0.57284
 Alpha  occ. eigenvalues --   -0.57068  -0.55955  -0.55112  -0.53851  -0.53799
 Alpha  occ. eigenvalues --   -0.53299  -0.52474  -0.52335  -0.51786  -0.51317
 Alpha  occ. eigenvalues --   -0.50736  -0.50049  -0.49987  -0.49801  -0.49298
 Alpha  occ. eigenvalues --   -0.48926  -0.47249  -0.46868  -0.46562  -0.45809
 Alpha  occ. eigenvalues --   -0.45285  -0.44649  -0.44224  -0.42896  -0.42350
 Alpha  occ. eigenvalues --   -0.42288  -0.41687  -0.40937  -0.38211  -0.34420
 Alpha  occ. eigenvalues --   -0.34108  -0.33751  -0.32997  -0.32541  -0.31334
 Alpha  occ. eigenvalues --   -0.29532  -0.25477
 Alpha virt. eigenvalues --    0.03947   0.04622   0.05711   0.05744   0.06053
 Alpha virt. eigenvalues --    0.06483   0.09204   0.09657   0.11945   0.12661
 Alpha virt. eigenvalues --    0.12785   0.13707   0.13862   0.14449   0.15354

 Mulliken charges:
               1
     1  C   -0.305215
     2  C    0.274278
     3  O   -0.546988
     4  C    0.199115
     5  C   -0.295642
     6  H    0.165221
     7  H    0.167938
     8  H    0.167884
     9  N   -0.259662
    10  H    0.293414
    11  H    0.268701
    12  C    0.330460
    13  C   -0.340668
    14  C   -0.144108
    15  C   -0.154637
    16  C   -0.129411
    17  C   -0.331166
    18  H    0.153157
    19  H    0.142852
    20  H    0.143351
    21  H    0.142733
    22  H    0.144146
    23  C   -0.534917
    24  H    0.176976
    25  H    0.185189
    26  H    0.179585
    27  C    0.337781
    28  C   -0.339865
    29  C   -0.159742
    30  C   -0.133195
    31  C   -0.179387
    32  C   -0.229862
    33  H    0.146421
    34  H    0.134687
    35  H    0.138223
    36  H    0.133237
    37  H    0.132700
    38  N   -0.290091
    39  C    0.287665
    40  C   -0.308599
    41  C   -0.093557
    42  C   -0.200410
    43  C   -0.106091
    44  C   -0.300898
    45  H    0.241781
    46  H    0.138182
    47  H    0.139272
    48  H    0.138442
    49  H    0.140192
    50  H    0.140528
 Sum of Mulliken charges =  -0.00000

 Dipole moment (field-independent basis, Debye):
    X=              5.7561    Y=            -10.3810    Z=              5.6810  Tot=             13.1595
 Quadrupole moment (field-independent basis, Debye-Ang):
   XX=           -153.3879   YY=           -153.1771   ZZ=           -132.2690
   XY=              8.2644   XZ=              1.9486   YZ=              3.0039

  Exact polarizability: 494.826   5.781 365.046  -1.930  37.126 356.318
 Approx polarizability: 361.233   8.366 299.738  -3.824  34.863 308.842

 ******    1 imaginary frequencies (negative Signs) ******

                      1                      2                      3
                      A                      A                      A
 Frequencies --   -330.7021                17.0261                28.8803
 Red. masses --      5.9117                 4.5495                 4.7059
 Frc consts  --      0.3809                 0.0008                 0.0023
 IR Inten    --    900.6531                 1.6485                 0.6278

                      4                      5                      6
                      A                      A                      A
 Frequencies --     32.9696                40.3875                50.8194
 Red. masses --      3.8646                 4.0926                 4.8054
 Frc consts  --      0.0025                 0.0039                 0.0073
 IR Inten    --      1.6785                 1.2067                 5.1636

                      7                      8                      9
                      A                      A                      A
 Frequencies --     58.2437                61.0598                83.3176
 Red. masses --      4.6039                 4.3986                 4.5984
 Frc consts  --      0.0092                 0.0097                 0.0188
 IR Inten    --      1.4751                 1.6830                 2.4775

                     10                     11                     12
                      A                      A                      A
 Frequencies --    100.4665               106.2254               130.2674
 Red. masses --      3.5180                 5.0353                 1.9325
 Frc consts  --      0.0209                 0.0335                 0.0193
 IR Inten    --      6.5632                 4.3507                 2.6963

                     13                     14                     15
                      A                      A                      A
 Frequencies --    160.9253               168.1147               219.0877
 Red. masses --      2.3255                 3.7144                 2.4055
 Frc consts  --      0.0355                 0.0619                 0.0680
 IR Inten    --      5.8974                 5.8437                 4.5102

                     16                     17                     18
                      A                      A                      A
 Frequencies --    224.5173               255.3178               265.0223
 Red. masses --      5.1790                 3.6872                 3.6005
 Frc consts  --      0.1538                 0.1416                 0.1490
 IR Inten    --      3.4980                 0.8424                 6.7612

                     19                     20                     21
                      A                      A                      A
 Frequencies --    266.4329               293.4044               333.6986
 Red. masses --      4.0676                 3.5919                 2.5485
 Frc consts  --      0.1701                 0.1822                 0.1672
 IR Inten    --      3.9454                35.3585                 7.8671

                     22                     23                     24
                      A                      A                      A
 Frequencies --    348.3010               361.3487               381.2739
 Red. masses --      2.4919                 3.5011                 3.8443
 Frc consts  --      0.1781                 0.2693                 0.3293
 IR Inten    --     20.9112                32.4495                29.5394

                     25                     26                     27
                      A                      A                      A
 Frequencies --    395.1180               418.3469               425.9577
 Red. masses --      1.7997                 2.8493                 2.9707
 Frc consts  --      0.1655                 0.2938                 0.3176
 IR Inten    --     30.7264                 1.0756                 1.7807

                     28                     29                     30
                      A                      A                      A
 Frequencies --    428.2924               449.0908               466.3500
 Red. masses --      2.8869                 3.5473                 3.2345
 Frc consts  --      0.3120                 0.4215                 0.4145
 IR Inten    --      0.5254                42.4619                 9.4284

                     31                     32                     33
                      A                      A                      A
 Frequencies --    509.6945               526.4616               536.6646
 Red. masses --      1.6794                 3.8855                 2.1426
 Frc consts  --      0.2571                 0.6345                 0.3636
 IR Inten    --    119.0013                13.1763                 3.9613

                     34                     35                     36
                      A                      A                      A
 Frequencies --    544.8623               583.1682               597.8243
 Red. masses --      3.5445                 4.1236                 3.9418
 Frc consts  --      0.6200                 0.8263                 0.8300
 IR Inten    --     10.2085                33.0543               172.6367

                     37                     38                     39
                      A                      A                      A
 Frequencies --    635.4979               639.0082               641.2672
 Red. masses --      5.9875                 6.3488                 6.3931
 Frc consts  --      1.4247                 1.5274                 1.5489
 IR Inten    --      2.4210                 3.0448                 6.3101

                     40                     41                     42
                      A                      A                      A
 Frequencies --    653.9409               676.4388               718.1768
 Red. masses --      4.4722                 5.3648                 1.8633
 Frc consts  --      1.1268                 1.4463                 0.5662
 IR Inten    --     63.2113                22.4124                55.7310

                     43                     44                     45
                      A                      A                      A
 Frequencies --    722.4714               729.9059               747.5591
 Red. masses --      1.5096                 1.5213                 1.5333
 Frc consts  --      0.4643                 0.4775                 0.5049
 IR Inten    --     92.3910               114.4209                19.1608

                     46                     47                     48
                      A                      A                      A
 Frequencies --    762.8551               773.7950               783.6738
 Red. masses --      2.4175                 4.7454                 2.2584
 Frc consts  --      0.8289                 1.6741                 0.8172
 IR Inten    --     37.0848                15.4048               129.8731

                     49                     50                     51
                      A                      A                      A
 Frequencies --    798.4417               824.3167               843.4269
 Red. masses --      2.3330                 3.4800                 3.0173
 Frc consts  --      0.8763                 1.3932                 1.2646
 IR Inten    --     14.2253                 7.7320                18.6880

                     52                     53                     54
                      A                      A                      A
 Frequencies --    857.3435               869.9952               879.2107
 Red. masses --      1.2653                 1.2554                 1.2490
 Frc consts  --      0.5480                 0.5599                 0.5689
 IR Inten    --      2.8676                 0.4560                 1.1663

                     55                     56                     57
                      A                      A                      A
 Frequencies --    901.8676               931.7047               950.3439
 Red. masses --      2.9890                 1.7229                 1.4977
 Frc consts  --      1.4324                 0.8812                 0.7970
 IR Inten    --     30.6142                 5.3956                 3.6284

                     58                     59                     60
                      A                      A                      A
 Frequencies --    951.9690               965.9785               997.8681
 Red. masses --      1.4983                 3.8018                 1.3457
 Frc consts  --      0.8000                 2.0902                 0.7895
 IR Inten    --      9.5864                86.6134                 0.2846

                     61                     62                     63
                      A                      A                      A
 Frequencies --   1009.2442              1011.1008              1012.4809
 Red. masses --      1.3842                 1.4048                 1.2875
 Frc consts  --      0.8307                 0.8462                 0.7776
 IR Inten    --      0.8690                 2.3360                 0.5260

                     64                     65                     66
                      A                      A                      A
 Frequencies --   1020.4830              1022.6757              1025.6973
 Red. masses --      5.4931                 1.3522                 3.4829
 Frc consts  --      3.3704                 0.8332                 2.1589
 IR Inten    --     12.0069                 1.8348                 6.8715

                     67                     68                     69
                      A                      A                      A
 Frequencies --   1027.0814              1028.8337              1033.3019
 Red. masses --      5.1742                 1.4349                 1.4577
 Frc consts  --      3.2159                 0.8949                 0.9170
 IR Inten    --      5.1752                 7.4431                60.1062

                     70                     71                     72
                      A                      A                      A
 Frequencies --   1036.9293              1054.9774              1060.5815
 Red. masses --      2.3138                 1.7241                 2.2202
 Frc consts  --      1.4658                 1.1306                 1.4714
 IR Inten    --     36.8515                79.2478                 4.6983

                     73                     74                     75
                      A                      A                      A
 Frequencies --   1064.0889              1069.2562              1078.2982
 Red. masses --      2.2280                 2.0210                 1.6921
 Frc consts  --      1.4864                 1.3614                 1.1592
 IR Inten    --     21.9662                20.7232                 5.5297

                     76                     77                     78
                      A                      A                      A
 Frequencies --   1105.3226              1108.4461              1116.9638
 Red. masses --      1.5773                 1.7632                 1.8124
 Frc consts  --      1.1354                 1.2764                 1.3322
 IR Inten    --     32.1061               203.3007                13.1699

                     79                     80                     81
                      A                      A                      A
 Frequencies --   1121.2122              1139.3937              1178.8722
 Red. masses --      1.5682                 1.7532                 1.1300
 Frc consts  --      1.1615                 1.3410                 0.9252
 IR Inten    --     22.7506                54.0539                 0.2911

                     82                     83                     84
                      A                      A                      A
 Frequencies --   1181.3992              1187.3303              1203.4941
 Red. masses --      1.1190                 1.1305                 1.1250
 Frc consts  --      0.9201                 0.9390                 0.9600
 IR Inten    --      3.5792                 1.4380                 0.2074

                     85                     86                     87
                      A                      A                      A
 Frequencies --   1210.1709              1223.1889              1230.9035
 Red. masses --      1.1424                 3.1928                 1.2242
 Frc consts  --      0.9858                 2.8146                 1.0928
 IR Inten    --     32.8574                79.5402                42.2441

                     88                     89                     90
                      A                      A                      A
 Frequencies --   1242.8504              1281.6489              1288.6582
 Red. masses --      2.5273                 2.2313                 1.6661
 Frc consts  --      2.3001                 2.1595                 1.6301
 IR Inten    --    333.6852               213.8020                39.8359

                     91                     92                     93
                      A                      A                      A
 Frequencies --   1303.9826              1322.7926              1337.6566
 Red. masses --      4.4472                 4.8792                 4.0705
 Frc consts  --      4.4553                 5.0302                 4.2913
 IR Inten    --      4.0385                21.4836               386.1514

                     94                     95                     96
                      A                      A                      A
 Frequencies --   1345.2049              1353.9035              1360.1058
 Red. masses --      1.4475                 1.4637                 1.9009
 Frc consts  --      1.5433                 1.5808                 2.0718
 IR Inten    --     66.4171                 3.2264               125.9348

                     97                     98                     99
                      A                      A                      A
 Frequencies --   1370.7376              1376.2098              1384.2102
 Red. masses --      3.1364                 1.5343                 3.3260
 Frc consts  --      3.4721                 1.7121                 3.7547
 IR Inten    --    492.3006               165.1454               254.8494

                    100                    101                    102
                      A                      A                      A
 Frequencies --   1418.4233              1461.0470              1464.5765
 Red. masses --      1.2484                 1.1754                 1.9902
 Frc consts  --      1.4799                 1.4784                 2.5152
 IR Inten    --     22.0071                 3.4955               353.8330

                    103                    104                    105
                      A                      A                      A
 Frequencies --   1485.1994              1491.3065              1496.2588
 Red. masses --      2.2023                 1.9794                 1.0977
 Frc consts  --      2.8621                 2.5937                 1.4480
 IR Inten    --      6.8639                24.5257                 9.2358

                    106                    107                    108
                      A                      A                      A
 Frequencies --   1499.9785              1520.0132              1530.7155
 Red. masses --      1.0492                 1.0484                 1.2563
 Frc consts  --      1.3908                 1.4272                 1.7344
 IR Inten    --      7.5482                12.6037                93.1693

                    109                    110                    111
                      A                      A                      A
 Frequencies --   1540.2400              1545.4282              1550.3181
 Red. masses --      2.4110                 2.1452                 2.1427
 Frc consts  --      3.3700                 3.0187                 3.0343
 IR Inten    --     73.3155               248.4827                17.3625

                    112                    113                    114
                      A                      A                      A
 Frequencies --   1551.7657              1624.7703              1642.1213
 Red. masses --      1.8268                 5.3688                 5.6366
 Frc consts  --      2.5918                 8.3504                 8.9552
 IR Inten    --     28.9843              1157.7262                15.6926

                    115                    116                    117
                      A                      A                      A
 Frequencies --   1650.1979              1659.2303              1659.6298
 Red. masses --      2.0838                 2.2304                 2.7610
 Frc consts  --      3.3432                 3.6178                 4.4807
 IR Inten    --     15.2083                61.9294                71.3444

                    118                    119                    120
                      A                      A                      A
 Frequencies --   1669.7663              1674.8355              1678.9127
 Red. masses --      5.7015                 5.9977                 5.4284
 Frc consts  --      9.3660                 9.9124                 9.0152
 IR Inten    --     35.6961               220.0559                 2.4129

                    121                    122                    123
                      A                      A                      A
 Frequencies --   3073.2666              3083.1372              3149.1686
 Red. masses --      1.0374                 1.0342                 1.1023
 Frc consts  --      5.7730                 5.7924                 6.4408
 IR Inten    --     12.0144                34.5674                21.6942

                    124                    125                    126
                      A                      A                      A
 Frequencies --   3157.4370              3166.6140              3176.8269
 Red. masses --      1.1034                 1.1045                 1.0875
 Frc consts  --      6.4810                 6.5256                 6.4665
 IR Inten    --     22.6120                10.9094                19.7891

                    127                    128                    129
                      A                      A                      A
 Frequencies --   3184.5103              3185.1510              3188.4614
 Red. masses --      1.0876                 1.0865                 1.1062
 Frc consts  --      6.4984                 6.4947                 6.6258
 IR Inten    --     16.5081                 3.0338                 6.9814

                    130                    131                    132
                      A                      A                      A
 Frequencies --   3194.3696              3195.1803              3197.1674
 Red. masses --      1.0880                 1.0907                 1.0859
 Frc consts  --      6.5413                 6.5604                 6.5396
 IR Inten    --      2.0385                13.8592                 1.2776

                    133                    134                    135
                      A                      A                      A
 Frequencies --   3202.4799              3203.5883              3204.7976
 Red. masses --      1.0947                 1.0931                 1.0891
 Frc consts  --      6.6149                 6.6095                 6.5907
 IR Inten    --     56.5589                34.4241                 5.0883

                    136                    137                    138
                      A                      A                      A
 Frequencies --   3215.0873              3216.3739              3219.2244
 Red. masses --      1.0986                 1.0924                 1.0977
 Frc consts  --      6.6907                 6.6585                 6.7023
 IR Inten    --     22.7084                31.4056                26.9439

                    139                    140                    141
                      A                      A                      A
 Frequencies --   3223.4224              3228.5738              3255.0846
 Red. masses --      1.0937                 1.0968                 1.0924
 Frc consts  --      6.6953                 6.7362                 6.8199
 IR Inten    --     36.3226                 4.1208                 3.3848

                    142                    143                    144
                      A                      A                      A
 Frequencies --   3514.2258              3583.5396              3696.1141
 Red. masses --      1.0531                 1.0948                 1.0752
 Frc consts  --      7.6627                 8.2831                 8.6541
 IR Inten    --     17.7338                62.1373                63.5800

 - Thermochemistry -
 -------------------
 Temperature   298.150 Kelvin.  Pressure   1.00000 Atm.
 Atom     1 has atomic number  6 and mass  12.00000

 Molecular mass:   344.18886 amu.
 Principal axes and moments of inertia in atomic units:
                           1         2         3
     Eigenvalues --  5009.15628********************
           X            1.00000   0.00269   0.00118
           Y           -0.00269   1.00000  -0.00043
           Z           -0.00118   0.00043   1.00000
 This molecule is an asymmetric top.
 Rotational symmetry number  1.
 Warning -- assumption of classical behavior for rotation
           may cause significant error
 Rotational temperatures (Kelvin)      0.01729     0.00605     0.00525
 Rotational constants (GHZ):           0.36029     0.12615     0.10932
    1 imaginary frequencies ignored.
 Zero-point vibrational energy    1107647.6 (Joules/Mol)
                                  264.73413 (Kcal/Mol)
 Warning -- explicit consideration of  35 degrees of freedom as
           vibrations may cause significant error
 Vibrational temperatures:     24.50    41.55    47.44    58.11    73.12
          (Kelvin)             83.80    87.85   119.88   144.55   152.83
                              187.43   231.54   241.88   315.22   323.03
                              367.35   381.31   383.34   422.14   480.12
                              501.13   519.90   548.57   568.49   601.91
                              612.86   616.22   646.14   670.97   733.34
                              757.46   772.14   783.94   839.05   860.14
                              914.34   919.39   922.64   940.88   973.24
                             1033.30  1039.48  1050.17  1075.57  1097.58
                             1113.32  1127.53  1148.78  1186.01  1213.50
                             1233.53  1251.73  1264.99  1297.59  1340.52
                             1367.33  1369.67  1389.83  1435.71  1452.08
                             1454.75  1456.73  1468.25  1471.40  1475.75
                             1477.74  1480.26  1486.69  1491.91  1517.88
                             1525.94  1530.99  1538.42  1551.43  1590.31
                             1594.81  1607.06  1613.17  1639.33  1696.13
                             1699.77  1708.30  1731.56  1741.17  1759.90
                             1771.00  1788.18  1844.01  1854.09  1876.14
                             1903.20  1924.59  1935.45  1947.97  1956.89
                             1972.19  1980.06  1991.57  2040.79  2102.12
                             2107.20  2136.87  2145.66  2152.78  2158.13
                             2186.96  2202.36  2216.06  2223.53  2230.56
                             2232.64  2337.68  2362.65  2374.27  2387.26
                             2387.84  2402.42  2409.71  2415.58  4421.75
                             4435.95  4530.95  4542.85  4556.05  4570.75
                             4581.80  4582.72  4587.48  4595.99  4597.15
                             4600.01  4607.65  4609.25  4610.99  4625.79
                             4627.64  4631.75  4637.79  4645.20  4683.34
                             5056.19  5155.91  5317.88

 Zero-point correction=                           0.421881 (Hartree/Particle)
 Thermal correction to Energy=                    0.444898
 Thermal correction to Enthalpy=                  0.445842
 Thermal correction to Gibbs Free Energy=         0.367069
 Sum of electronic and zero-point Energies=          -1075.207416
 Sum of electronic and thermal Energies=             -1075.184399
 Sum of electronic and thermal Enthalpies=           -1075.183454
 Sum of electronic and thermal Free Energies=        -1075.262227

                     E (Thermal)             CV                S
                      KCal/Mol        Cal/Mol-Kelvin    Cal/Mol-Kelvin
 Total                  279.178             90.106            165.792
 Electronic               0.000              0.000              0.000
 Translational            0.889              2.981             43.402
 Rotational               0.889              2.981             35.424
 Vibrational            277.400             84.144             86.965
 Vibration     1          0.593              1.986              6.954
 Vibration     2          0.593              1.984              5.905
 Vibration     3          0.594              1.983              5.642
 Vibration     4          0.594              1.981              5.240
 Vibration     5          0.595              1.977              4.785
 Vibration     6          0.596              1.974              4.516
 Vibration     7          0.597              1.973              4.423
 Vibration     8          0.600              1.961              3.811
 Vibration     9          0.604              1.949              3.445
 Vibration    10          0.605              1.944              3.337
 Vibration    11          0.612              1.923              2.942
 Vibration    12          0.622              1.890              2.539
 Vibration    13          0.625              1.882              2.456
 Vibration    14          0.647              1.812              1.967
 Vibration    15          0.649              1.804              1.922
 Vibration    16          0.666              1.754              1.694
 Vibration    17          0.671              1.737              1.628
 Vibration    18          0.672              1.735              1.619
 Vibration    19          0.688              1.686              1.454
 Vibration    20          0.715              1.608              1.242
 Vibration    21          0.726              1.579              1.174
 Vibration    22          0.736              1.552              1.116
 Vibration    23          0.751              1.510              1.034
 Vibration    24          0.762              1.481              0.981
 Vibration    25          0.781              1.430              0.898
 Vibration    26          0.788              1.414              0.872
 Vibration    27          0.790              1.409              0.864
 Vibration    28          0.808              1.363              0.799
 Vibration    29          0.824              1.325              0.748
 Vibration    30          0.865              1.229              0.634
 Vibration    31          0.881              1.191              0.595
 Vibration    32          0.892              1.169              0.573
 Vibration    33          0.900              1.151              0.555
 Vibration    34          0.940              1.068              0.480
 Vibration    35          0.956              1.036              0.453

 Optimization completed.
    -- Stationary point found.
 Normal termination of Gaussian 16 at Mon Jun 14 01:45:47 2021.
