 Gaussian 16, Revision A.03,
 Gaussian 16:  ES64L-G16RevA.03 25-Dec-2016

 ----------------------------------------------------------------------
 # wB97XD def2tzvp, opt=(ts, noeigen, calcfc, maxcycles=70, maxstep=3),
  freq=noraman, scrf=(iefpcm, solvent=water)
 ----------------------------------------------------------------------

 ------------------------
 0_iteration/TS-823-0.out
 ------------------------
 Symbolic Z-matrix:
 Charge =  0 Multiplicity = 1

 SCF Done:  E(RwB97XD) =  -1304.18492011     A.U. after   15 cycles
 SCF Done:  E(RwB97XD) =  -1304.18490688     A.U. after   10 cycles
 SCF Done:  E(RwB97XD) =  -1304.18493539     A.U. after   10 cycles
 SCF Done:  E(RwB97XD) =  -1304.18502481     A.U. after   11 cycles
 SCF Done:  E(RwB97XD) =  -1304.18516574     A.U. after   11 cycles
 SCF Done:  E(RwB97XD) =  -1304.18535659     A.U. after   11 cycles
 SCF Done:  E(RwB97XD) =  -1304.18560327     A.U. after   11 cycles
 SCF Done:  E(RwB97XD) =  -1304.18585717     A.U. after   11 cycles
 SCF Done:  E(RwB97XD) =  -1304.18611714     A.U. after   11 cycles
 SCF Done:  E(RwB97XD) =  -1304.18635384     A.U. after   11 cycles
 SCF Done:  E(RwB97XD) =  -1304.18654440     A.U. after   12 cycles
 SCF Done:  E(RwB97XD) =  -1304.18668671     A.U. after   12 cycles
 SCF Done:  E(RwB97XD) =  -1304.18676003     A.U. after   12 cycles
 SCF Done:  E(RwB97XD) =  -1304.18677641     A.U. after   11 cycles
 SCF Done:  E(RwB97XD) =  -1304.18677791     A.U. after    9 cycles
 SCF Done:  E(RwB97XD) =  -1304.18677808     A.U. after    7 cycles
 SCF Done:  E(RwB97XD) =  -1304.18677801     A.U. after    7 cycles
 SCF Done:  E(RwB97XD) =  -1304.18677799     A.U. after    6 cycles
 Optimization completed on the basis of negligible forces.
    -- Stationary point found.
 Normal termination of Gaussian 16 at Thu Apr 15 01:36:54 2021.

 ---------------------------------------------------------------------
 #N Geom=AllCheck Guess=TCheck SCRF=Check GenChk RwB97XD/def2TZVP Freq
 ---------------------------------------------------------------------

 Structure from the checkpoint file:  "/beegfs/scratch/user/q/tla25/Gau-386341.chk"
 ------------------------
 0_iteration/TS-823-0.out
 ------------------------
 Charge =  0 Multiplicity = 1

                         Standard orientation:
 ---------------------------------------------------------------------
 Center     Atomic      Atomic             Coordinates (Angstroms)
 Number     Number       Type             X           Y           Z
 ---------------------------------------------------------------------
      1          6           0       -0.451960   -1.276210   -0.226207
      2          6           0        0.608625   -0.353636    0.092488
      3          8           0        0.484799    0.714549    0.701042
      4          6           0       -1.782561   -0.859228   -0.089144
      5          6           0       -1.638575   -1.272113    2.625387
      6          1           0       -1.904623   -1.939474    3.442905
      7          1           0       -0.606174   -1.449965    2.325842
      8          1           0       -1.742073   -0.238808    2.943779
      9          7           0       -2.486960   -1.522870    1.460309
     10          1           0       -2.520064   -2.516613    1.259728
     11          1           0       -3.447666   -1.224942    1.597792
     12         17           0       -2.970883   -1.752788   -1.181753
     13          6           0       -2.158640    0.599129   -0.153811
     14          6           0       -2.908083    1.274574    0.798964
     15          6           0       -3.239405    2.612415    0.622747
     16          6           0       -2.839580    3.290179   -0.515090
     17          6           0       -2.105610    2.616874   -1.483884
     18          6           0       -1.774211    1.287568   -1.305269
     19          1           0       -3.240129    0.796102    1.708142
     20          1           0       -3.814761    3.120257    1.386202
     21          1           0       -3.099479    4.332153   -0.650854
     22          1           0       -1.790199    3.130825   -2.383052
     23          1           0       -1.199945    0.767143   -2.060836
     24          6           0       -0.122053   -2.706794   -0.588911
     25          1           0       -0.972253   -3.367815   -0.424780
     26          1           0        0.161382   -2.835240   -1.641078
     27          1           0        0.694399   -3.097980    0.022659
     28          7           0        1.864884   -0.760325   -0.351297
     29          6           0        3.111173   -0.173995   -0.139779
     30          6           0        3.356514    0.835635    0.794682
     31          6           0        4.641669    1.335446    0.951576
     32          6           0        5.701324    0.853926    0.198394
     33          6           0        5.459739   -0.151607   -0.728543
     34          6           0        4.184209   -0.658324   -0.897536
     35          1           0        1.876699   -1.541396   -0.983364
     36          1           0        2.541076    1.222408    1.382978
     37          1           0        4.810778    2.117853    1.681701
     38          1           0        6.698367    1.253668    0.329836
     39          1           0        6.270160   -0.545903   -1.329156
     40          1           0        4.010206   -1.441931   -1.626430
 ---------------------------------------------------------------------

 SCF Done:  E(RwB97XD) =  -1304.18677799     A.U. after    1 cycles

 The electronic state is 1-A.
 Alpha  occ. eigenvalues -- -101.69096 -19.19443 -14.50728 -14.45466 -10.40645
 Alpha  occ. eigenvalues --  -10.37556 -10.33462 -10.32138 -10.31310 -10.29667
 Alpha  occ. eigenvalues --  -10.29255 -10.29175 -10.29127 -10.29085 -10.28829
 Alpha  occ. eigenvalues --  -10.28669 -10.28514 -10.27962 -10.27853 -10.27581
 Alpha  occ. eigenvalues --  -10.25907  -9.57705  -7.32306  -7.31506  -7.31472
 Alpha  occ. eigenvalues --   -1.12437  -1.06356  -1.03133  -0.98227  -0.95400
 Alpha  occ. eigenvalues --   -0.94969  -0.88220  -0.86427  -0.85491  -0.84808
 Alpha  occ. eigenvalues --   -0.83457  -0.79940  -0.78148  -0.74178  -0.71266
 Alpha  occ. eigenvalues --   -0.71019  -0.70444  -0.67264  -0.65614  -0.63702
 Alpha  occ. eigenvalues --   -0.62299  -0.60634  -0.59093  -0.58077  -0.56852
 Alpha  occ. eigenvalues --   -0.56682  -0.54278  -0.53795  -0.52763  -0.52597
 Alpha  occ. eigenvalues --   -0.52050  -0.51139  -0.51073  -0.50517  -0.49804
 Alpha  occ. eigenvalues --   -0.48956  -0.48666  -0.47464  -0.46574  -0.46093
 Alpha  occ. eigenvalues --   -0.46017  -0.45546  -0.44412  -0.43308  -0.42945
 Alpha  occ. eigenvalues --   -0.42493  -0.39846  -0.39520  -0.38960  -0.34667
 Alpha  occ. eigenvalues --   -0.33931  -0.33485  -0.31637  -0.29715  -0.26093
 Alpha virt. eigenvalues --    0.03101   0.04902   0.05118   0.05625   0.08574
 Alpha virt. eigenvalues --    0.09353   0.10180   0.12031   0.13147   0.13832
 Alpha virt. eigenvalues --    0.14178   0.15179   0.16006   0.16593   0.16852

 Mulliken charges:
               1
     1  C   -0.326771
     2  C    0.412361
     3  O   -0.545707
     4  C    0.234078
     5  C   -0.292840
     6  H    0.166565
     7  H    0.163270
     8  H    0.155271
     9  N   -0.269271
    10  H    0.285869
    11  H    0.292576
    12  Cl  -0.163619
    13  C    0.274367
    14  C   -0.237393
    15  C   -0.167965
    16  C   -0.154233
    17  C   -0.127297
    18  C   -0.320251
    19  H    0.136984
    20  H    0.143629
    21  H    0.144386
    22  H    0.143243
    23  H    0.151394
    24  C   -0.475290
    25  H    0.133916
    26  H    0.140380
    27  H    0.143368
    28  N   -0.277186
    29  C    0.299546
    30  C   -0.297592
    31  C   -0.112056
    32  C   -0.202383
    33  C   -0.099381
    34  C   -0.315538
    35  H    0.251267
    36  H    0.154183
    37  H    0.139152
    38  H    0.138589
    39  H    0.141238
    40  H    0.139142
 Sum of Mulliken charges =   0.00000

 Dipole moment (field-independent basis, Debye):
    X=             -5.0244    Y=             -4.8610    Z=              3.3561  Tot=              7.7548
 Quadrupole moment (field-independent basis, Debye-Ang):
   XX=           -121.3598   YY=           -119.1512   ZZ=           -119.6708
   XY=             -0.0923   XZ=            -20.9958   YZ=             -6.3640

  Exact polarizability: 393.072  13.441 319.380 -26.883  27.016 283.653
 Approx polarizability: 287.670   7.667 262.344 -21.936  23.789 246.183

 ******    1 imaginary frequencies (negative Signs) ******

                      1                      2                      3
                      A                      A                      A
 Frequencies --   -353.1813                14.4852                28.0479
 Red. masses --      5.5722                 3.7279                 5.2272
 Frc consts  --      0.4095                 0.0005                 0.0024
 IR Inten    --    876.2179                 0.4329                 1.1541

                      4                      5                      6
                      A                      A                      A
 Frequencies --     46.0494                55.3624                64.6960
 Red. masses --      3.7969                 4.8085                 4.5969
 Frc consts  --      0.0047                 0.0087                 0.0113
 IR Inten    --      1.0289                 1.1112                 1.5358

                      7                      8                      9
                      A                      A                      A
 Frequencies --     86.3143               121.4701               129.5739
 Red. masses --      5.0740                 3.6981                 2.8440
 Frc consts  --      0.0223                 0.0321                 0.0281
 IR Inten    --      8.5487                 0.5271                 5.1346

                     10                     11                     12
                      A                      A                      A
 Frequencies --    147.7592               151.6228               160.7489
 Red. masses --      1.4682                 1.9722                 1.6456
 Frc consts  --      0.0189                 0.0267                 0.0251
 IR Inten    --      4.2264                 2.1997                 3.8806

                     13                     14                     15
                      A                      A                      A
 Frequencies --    190.1086               205.7528               231.9730
 Red. masses --      6.2119                 3.8091                 4.0994
 Frc consts  --      0.1323                 0.0950                 0.1300
 IR Inten    --      9.3802                22.7398                 3.3724

                     16                     17                     18
                      A                      A                      A
 Frequencies --    242.6800               269.4476               297.5417
 Red. masses --      4.1270                 2.9927                 5.2776
 Frc consts  --      0.1432                 0.1280                 0.2753
 IR Inten    --      1.0103                15.0734                 8.2763

                     19                     20                     21
                      A                      A                      A
 Frequencies --    307.5333               347.6162               353.8712
 Red. masses --      4.3413                 4.0882                 3.2846
 Frc consts  --      0.2419                 0.2911                 0.2423
 IR Inten    --     22.8161                24.7543                10.8125

                     22                     23                     24
                      A                      A                      A
 Frequencies --    364.0832               379.0539               423.0949
 Red. masses --      5.5655                 5.7780                 2.9793
 Frc consts  --      0.4347                 0.4891                 0.3142
 IR Inten    --      2.3592                 6.2533                 0.1258

                     25                     26                     27
                      A                      A                      A
 Frequencies --    424.5002               488.0316               526.3058
 Red. masses --      2.8998                 4.1133                 2.7620
 Frc consts  --      0.3079                 0.5772                 0.4508
 IR Inten    --      0.6635               150.8556                29.5501

                     28                     29                     30
                      A                      A                      A
 Frequencies --    538.1598               555.8176               580.2023
 Red. masses --      3.0422                 1.3242                 4.4871
 Frc consts  --      0.5191                 0.2410                 0.8900
 IR Inten    --      5.9948                92.4099               169.7370

                     31                     32                     33
                      A                      A                      A
 Frequencies --    590.4919               635.6696               638.0211
 Red. masses --      4.5749                 6.2493                 6.2658
 Frc consts  --      0.9399                 1.4878                 1.5028
 IR Inten    --     88.7267                 6.3208                 1.8254

                     34                     35                     36
                      A                      A                      A
 Frequencies --    667.1504               690.9839               717.4733
 Red. masses --      3.9425                 4.9182                 1.8861
 Frc consts  --      1.0339                 1.3835                 0.5721
 IR Inten    --     89.5146               121.9768                61.1053

                     37                     38                     39
                      A                      A                      A
 Frequencies --    718.9206               743.3324               778.2363
 Red. masses --      1.8114                 1.6376                 3.9824
 Frc consts  --      0.5516                 0.5331                 1.4211
 IR Inten    --     20.0735               240.5453                17.0151

                     40                     41                     42
                      A                      A                      A
 Frequencies --    782.7072               793.2462               857.8622
 Red. masses --      2.1268                 2.4261                 1.2691
 Frc consts  --      0.7677                 0.8994                 0.5503
 IR Inten    --    134.6371                53.5969                 2.7564

                     43                     44                     45
                      A                      A                      A
 Frequencies --    868.3026               871.3827               881.4926
 Red. masses --      1.5413                 2.7306                 3.5781
 Frc consts  --      0.6847                 1.2216                 1.6381
 IR Inten    --     40.5314                69.2086               108.8691

                     46                     47                     48
                      A                      A                      A
 Frequencies --    925.8999               931.7889               955.1478
 Red. masses --      1.7052                 2.5200                 1.5810
 Frc consts  --      0.8613                 1.2891                 0.8498
 IR Inten    --      6.2856                19.6989                 1.5320

                     49                     50                     51
                      A                      A                      A
 Frequencies --    998.4099              1006.8908              1010.4648
 Red. masses --      1.3442                 1.2618                 1.2941
 Frc consts  --      0.7895                 0.7537                 0.7785
 IR Inten    --      0.0684                28.3117                36.4428

                     52                     53                     54
                      A                      A                      A
 Frequencies --   1012.8438              1018.5262              1023.7027
 Red. masses --      1.2861                 5.2740                 4.6313
 Frc consts  --      0.7773                 3.2235                 2.8596
 IR Inten    --      1.1775                20.4143                52.4636

                     55                     56                     57
                      A                      A                      A
 Frequencies --   1028.0122              1031.6759              1061.4453
 Red. masses --      1.3112                 2.1185                 1.4258
 Frc consts  --      0.8164                 1.3285                 0.9465
 IR Inten    --      1.1275               220.9260                11.5498

                     58                     59                     60
                      A                      A                      A
 Frequencies --   1061.8652              1068.3173              1075.8997
 Red. masses --      2.1047                 2.3837                 2.2574
 Frc consts  --      1.3983                 1.6029                 1.5396
 IR Inten    --      9.6253                 1.8734                30.5336

                     61                     62                     63
                      A                      A                      A
 Frequencies --   1096.6593              1117.0988              1130.4783
 Red. masses --      1.3773                 1.5769                 1.6029
 Frc consts  --      0.9760                 1.1594                 1.2069
 IR Inten    --    124.3674                10.7400                14.7864

                     64                     65                     66
                      A                      A                      A
 Frequencies --   1156.2810              1181.6402              1184.9755
 Red. masses --      3.4406                 1.1218                 1.1379
 Frc consts  --      2.7102                 0.9229                 0.9414
 IR Inten    --    155.7573                 8.0665                 0.4387

                     67                     68                     69
                      A                      A                      A
 Frequencies --   1209.1036              1219.4906              1230.6787
 Red. masses --      1.1488                 3.0967                 1.1950
 Frc consts  --      0.9895                 2.7134                 1.0664
 IR Inten    --     19.7394                68.3752                 6.3144

                     70                     71                     72
                      A                      A                      A
 Frequencies --   1257.7992              1271.6047              1319.5607
 Red. masses --      1.4054                 2.5326                 5.1001
 Frc consts  --      1.3100                 2.4128                 5.2322
 IR Inten    --     40.8968               518.9011                26.7808

                     73                     74                     75
                      A                      A                      A
 Frequencies --   1325.4215              1341.6182              1342.9146
 Red. masses --      3.9726                 3.8164                 1.4024
 Frc consts  --      4.1118                 4.0473                 1.4902
 IR Inten    --    169.7936               779.0244                51.1171

                     76                     77                     78
                      A                      A                      A
 Frequencies --   1360.8325              1374.1432              1421.0868
 Red. masses --      1.7204                 1.3730                 2.2411
 Frc consts  --      1.8771                 1.5275                 2.6666
 IR Inten    --      3.5986                 5.5989               377.4657

                     79                     80                     81
                      A                      A                      A
 Frequencies --   1429.5814              1455.5911              1473.1655
 Red. masses --      1.4166                 1.3597                 2.0031
 Frc consts  --      1.7057                 1.6974                 2.5613
 IR Inten    --     63.1598                48.1028               415.0073

                     82                     83                     84
                      A                      A                      A
 Frequencies --   1489.7642              1491.0209              1491.8291
 Red. masses --      1.0935                 1.6842                 1.1376
 Frc consts  --      1.4299                 2.2061                 1.4917
 IR Inten    --      3.6229                25.2332                32.7713

                     85                     86                     87
                      A                      A                      A
 Frequencies --   1499.6185              1510.4631              1545.3933
 Red. masses --      1.0754                 1.1003                 2.4024
 Frc consts  --      1.4248                 1.4791                 3.3804
 IR Inten    --     19.6558               265.8817               241.2593

                     88                     89                     90
                      A                      A                      A
 Frequencies --   1548.7357              1561.2996              1651.3231
 Red. masses --      2.3382                 1.9401                 2.6151
 Frc consts  --      3.3043                 2.7864                 4.2015
 IR Inten    --     30.4876               398.8327                96.4597

                     91                     92                     93
                      A                      A                      A
 Frequencies --   1656.5596              1663.7192              1669.8957
 Red. masses --      5.6064                 1.5179                 4.5947
 Frc consts  --      9.0647                 2.4754                 7.5490
 IR Inten    --    112.5199                62.2625                63.9513

                     94                     95                     96
                      A                      A                      A
 Frequencies --   1677.8481              1683.5492              3007.2381
 Red. masses --      4.6970                 6.0382                 1.0531
 Frc consts  --      7.7907                10.0835                 5.6112
 IR Inten    --      1.0317               579.3160                99.2973

                     97                     98                     99
                      A                      A                      A
 Frequencies --   3078.1643              3081.1393              3133.3503
 Red. masses --      1.0881                 1.0338                 1.0956
 Frc consts  --      6.0745                 5.7824                 6.3373
 IR Inten    --     40.2589                33.8128                27.2507

                    100                    101                    102
                      A                      A                      A
 Frequencies --   3161.4823              3184.9947              3189.2001
 Red. masses --      1.1044                 1.0876                 1.1054
 Frc consts  --      6.5036                 6.5003                 6.6242
 IR Inten    --      2.3458                15.7371                11.5528

                    103                    104                    105
                      A                      A                      A
 Frequencies --   3194.5468              3197.2665              3204.0112
 Red. masses --      1.0883                 1.0860                 1.0932
 Frc consts  --      6.5434                 6.5410                 6.6120
 IR Inten    --      2.6557                 0.5768                34.1864

                    106                    107                    108
                      A                      A                      A
 Frequencies --   3205.4014              3214.4551              3219.9349
 Red. masses --      1.0892                 1.0936                 1.0978
 Frc consts  --      6.5938                 6.6576                 6.7062
 IR Inten    --      5.1559                23.8169                24.7008

                    109                    110                    111
                      A                      A                      A
 Frequencies --   3222.9976              3245.2172              3269.7663
 Red. masses --      1.0978                 1.0918                 1.0924
 Frc consts  --      6.7191                 6.7745                 6.8809
 IR Inten    --     23.5740                19.7779                 3.5506

                    112                    113                    114
                      A                      A                      A
 Frequencies --   3518.8274              3591.0825              3661.1101
 Red. masses --      1.0517                 1.0952                 1.0764
 Frc consts  --      7.6724                 8.3214                 8.5004
 IR Inten    --     53.3488                53.4909                49.8786

 - Thermochemistry -
 -------------------
 Temperature   298.150 Kelvin.  Pressure   1.00000 Atm.
 Atom     1 has atomic number  6 and mass  12.00000

 Molecular mass:   302.11859 amu.
 Principal axes and moments of inertia in atomic units:
                           1         2         3
     Eigenvalues --  3937.76798********************
           X            0.99989  -0.00747  -0.01258
           Y            0.00725   0.99982  -0.01736
           Z            0.01271   0.01726   0.99977
 This molecule is an asymmetric top.
 Rotational symmetry number  1.
 Warning -- assumption of classical behavior for rotation
           may cause significant error
 Rotational temperatures (Kelvin)      0.02200     0.00809     0.00706
 Rotational constants (GHZ):           0.45832     0.16862     0.14708
    1 imaginary frequencies ignored.
 Zero-point vibrational energy     866090.3 (Joules/Mol)
                                  207.00056 (Kcal/Mol)
 Warning -- explicit consideration of  30 degrees of freedom as
           vibrations may cause significant error
 Vibrational temperatures:     20.84    40.35    66.25    79.65    93.08
          (Kelvin)            124.19   174.77   186.43   212.59   218.15
                              231.28   273.52   296.03   333.76   349.16
                              387.68   428.10   442.47   500.14   509.14
                              523.83   545.37   608.74   610.76   702.17
                              757.24   774.29   799.70   834.78   849.59
                              914.59   917.97   959.88   994.17  1032.28
                             1034.37  1069.49  1119.71  1126.14  1141.30
                             1234.27  1249.29  1253.73  1268.27  1332.16
                             1340.64  1374.24  1436.49  1448.69  1453.83
                             1457.26  1465.43  1472.88  1479.08  1484.35
                             1527.18  1527.79  1537.07  1547.98  1577.85
                             1607.26  1626.51  1663.63  1700.12  1704.92
                             1739.63  1754.57  1770.67  1809.69  1829.56
                             1898.55  1906.99  1930.29  1932.15  1957.93
                             1977.09  2044.63  2056.85  2094.27  2119.56
                             2143.44  2145.25  2146.41  2157.62  2173.22
                             2223.48  2228.29  2246.36  2375.89  2383.42
                             2393.72  2402.61  2414.05  2422.25  4326.74
                             4428.79  4433.07  4508.19  4548.67  4582.50
                             4588.55  4596.24  4600.15  4609.86  4611.86
                             4624.88  4632.77  4637.17  4669.14  4704.46
                             5062.81  5166.77  5267.52

 Zero-point correction=                           0.329876 (Hartree/Particle)
 Thermal correction to Energy=                    0.349767
 Thermal correction to Enthalpy=                  0.350711
 Thermal correction to Gibbs Free Energy=         0.279405
 Sum of electronic and zero-point Energies=          -1303.856902
 Sum of electronic and thermal Energies=             -1303.837011
 Sum of electronic and thermal Enthalpies=           -1303.836067
 Sum of electronic and thermal Free Energies=        -1303.907373

                     E (Thermal)             CV                S
                      KCal/Mol        Cal/Mol-Kelvin    Cal/Mol-Kelvin
 Total                  219.482             75.605            150.077
 Electronic               0.000              0.000              0.000
 Translational            0.889              2.981             43.014
 Rotational               0.889              2.981             34.602
 Vibrational            217.705             69.644             72.461
 Vibration     1          0.593              1.986              7.275
 Vibration     2          0.593              1.984              5.963
 Vibration     3          0.595              1.979              4.980
 Vibration     4          0.596              1.975              4.616
 Vibration     5          0.597              1.971              4.309
 Vibration     6          0.601              1.959              3.742
 Vibration     7          0.609              1.931              3.077
 Vibration     8          0.612              1.924              2.952
 Vibration     9          0.617              1.905              2.701
 Vibration    10          0.619              1.901              2.652
 Vibration    11          0.622              1.890              2.541
 Vibration    12          0.633              1.854              2.227
 Vibration    13          0.640              1.832              2.081
 Vibration    14          0.653              1.792              1.864
 Vibration    15          0.659              1.775              1.783
 Vibration    16          0.674              1.729              1.600
 Vibration    17          0.691              1.678              1.431
 Vibration    18          0.697              1.659              1.376
 Vibration    19          0.725              1.580              1.177
 Vibration    20          0.730              1.567              1.149
 Vibration    21          0.738              1.546              1.105
 Vibration    22          0.749              1.515              1.043
 Vibration    23          0.785              1.420              0.882
 Vibration    24          0.786              1.417              0.877
 Vibration    25          0.844              1.277              0.689
 Vibration    26          0.881              1.192              0.596
 Vibration    27          0.893              1.166              0.569
 Vibration    28          0.911              1.127              0.532
 Vibration    29          0.937              1.074              0.485
 Vibration    30          0.948              1.052              0.466

 Optimization completed on the basis of negligible forces.
    -- Stationary point found.
 Normal termination of Gaussian 16 at Thu Apr 15 02:43:56 2021.
