 Gaussian 16, Revision A.03,
 Gaussian 16:  ES64L-G16RevA.03 25-Dec-2016

 ----------------------------------------------------------------------
 # wB97XD def2tzvp, opt=(ts, noeigen, calcfc, maxcycles=70, maxstep=3),
  freq=noraman, scrf=(iefpcm, solvent=water)
 ----------------------------------------------------------------------

 ------------------------
 3_iteration/TS-840-3.out
 ------------------------
 Symbolic Z-matrix:
 Charge =  0 Multiplicity = 1

 SCF Done:  E(RwB97XD) =  -1669.10289617     A.U. after   15 cycles
 Optimization completed.
    -- Stationary point found.
 Normal termination of Gaussian 16 at Sat Feb 27 05:26:43 2021.

 ---------------------------------------------------------------------
 #N Geom=AllCheck Guess=TCheck SCRF=Check GenChk RwB97XD/def2TZVP Freq
 ---------------------------------------------------------------------

 Structure from the checkpoint file:  "/beegfs/scratch/user/q/tla25/Gau-37751.chk"
 ------------------------
 3_iteration/TS-840-3.out
 ------------------------
 Charge =  0 Multiplicity = 1

                         Standard orientation:
 ---------------------------------------------------------------------
 Center     Atomic      Atomic             Coordinates (Angstroms)
 Number     Number       Type             X           Y           Z
 ---------------------------------------------------------------------
      1          6           0        0.172671   -0.756541   -0.165700
      2          6           0        0.878371    0.313619    0.496760
      3          8           0        0.328041    1.118749    1.245700
      4          6           0       -1.215849   -0.816661   -0.243590
      5          6           0       -1.246779   -1.569201    2.540380
      6          1           0       -1.367969   -2.359021    3.281830
      7          1           0       -0.184529   -1.376091    2.396690
      8          1           0       -1.721039   -0.658401    2.896960
      9          7           0       -1.821429   -1.954551    1.255810
     10          1           0       -1.441559   -2.843111    0.948330
     11          1           0       -2.828829   -2.061881    1.290950
     12         17           0       -1.902249   -1.878251   -1.506080
     13          6           0       -2.022429    0.449139   -0.168030
     14          6           0       -1.707289    1.441519   -1.096890
     15          6           0       -2.425769    2.621929   -1.141990
     16          6           0       -3.480179    2.830709   -0.263400
     17          6           0       -3.808909    1.843459    0.649940
     18          6           0       -3.089969    0.656839    0.693810
     19          1           0       -0.885529    1.282869   -1.783340
     20          1           0       -2.160769    3.381349   -1.866410
     21          1           0       -4.043049    3.754669   -0.294740
     22          1           0       -4.631369    1.989869    1.338150
     23          1           0       -3.380759   -0.084921    1.421270
     24         17           0        1.093261   -2.169040   -0.652790
     25          6           0        2.348961    0.482710    0.237730
     26          6           0        3.201661    0.702920    1.313750
     27          6           0        4.552081    0.933570    1.100670
     28          6           0        5.053661    0.973300   -0.192980
     29          6           0        4.202481    0.774260   -1.271640
     30          6           0        2.857301    0.518410   -1.056720
     31          1           0        2.801101    0.689400    2.319740
     32          1           0        5.212741    1.088630    1.944260
     33          1           0        6.106431    1.162210   -0.361010
     34          1           0        4.588191    0.815500   -2.282390
     35          1           0        2.195301    0.354860   -1.898330
 ---------------------------------------------------------------------

 SCF Done:  E(RwB97XD) =  -1669.10289617     A.U. after    1 cycles

 The electronic state is 1-A.
 Alpha  occ. eigenvalues -- -101.70578-101.69502 -19.22334 -14.48889 -10.41642
 Alpha  occ. eigenvalues --  -10.37383 -10.32396 -10.31904 -10.31777 -10.29991
 Alpha  occ. eigenvalues --  -10.29967 -10.29669 -10.29525 -10.29472 -10.29460
 Alpha  occ. eigenvalues --  -10.29402 -10.29394 -10.29324 -10.29212 -10.29193
 Alpha  occ. eigenvalues --   -9.59164  -9.58036  -7.33815  -7.32950  -7.32898
 Alpha  occ. eigenvalues --   -7.32677  -7.31820  -7.31803  -1.13406  -1.04837
 Alpha  occ. eigenvalues --   -1.00096  -0.97323  -0.96705  -0.94664  -0.87910
 Alpha  occ. eigenvalues --   -0.86626  -0.85872  -0.85419  -0.82612  -0.79151
 Alpha  occ. eigenvalues --   -0.75723  -0.71709  -0.71215  -0.70754  -0.68226
 Alpha  occ. eigenvalues --   -0.65052  -0.63322  -0.61633  -0.59137  -0.58079
 Alpha  occ. eigenvalues --   -0.57366  -0.56639  -0.55458  -0.54855  -0.54333
 Alpha  occ. eigenvalues --   -0.53741  -0.52669  -0.51485  -0.51407  -0.51303
 Alpha  occ. eigenvalues --   -0.49450  -0.48697  -0.47881  -0.47394  -0.46918
 Alpha  occ. eigenvalues --   -0.45574  -0.44704  -0.44396  -0.43578  -0.43019
 Alpha  occ. eigenvalues --   -0.42449  -0.41444  -0.39599  -0.39156  -0.35527
 Alpha  occ. eigenvalues --   -0.34360  -0.33936  -0.33600  -0.32066  -0.28682
 Alpha virt. eigenvalues --    0.00987   0.02935   0.04694   0.05071   0.05335
 Alpha virt. eigenvalues --    0.08456   0.10304   0.12547   0.12924   0.13482
 Alpha virt. eigenvalues --    0.14566   0.14628   0.15127   0.15805   0.16888

 Mulliken charges:
               1
     1  C   -0.239517
     2  C    0.289985
     3  O   -0.452202
     4  C    0.232643
     5  C   -0.275361
     6  H    0.159094
     7  H    0.154702
     8  H    0.152253
     9  N   -0.368545
    10  H    0.281050
    11  H    0.288573
    12  Cl  -0.092033
    13  C    0.220618
    14  C   -0.292791
    15  C   -0.126431
    16  C   -0.149226
    17  C   -0.158999
    18  C   -0.211369
    19  H    0.159732
    20  H    0.145525
    21  H    0.146390
    22  H    0.145844
    23  H    0.139788
    24  Cl  -0.137553
    25  C    0.159584
    26  C   -0.239276
    27  C   -0.145236
    28  C   -0.133199
    29  C   -0.138391
    30  C   -0.257416
    31  H    0.142605
    32  H    0.143883
    33  H    0.146657
    34  H    0.144275
    35  H    0.164346
 Sum of Mulliken charges =  -0.00000

 Dipole moment (field-independent basis, Debye):
    X=             -3.8839    Y=             -3.0550    Z=              2.5063  Tot=              5.5407
 Quadrupole moment (field-independent basis, Debye-Ang):
   XX=           -109.5232   YY=           -125.0520   ZZ=           -121.1054
   XY=              6.1413   XZ=            -11.1235   YZ=            -15.1832

  Exact polarizability: 362.411   8.174 286.734 -25.467   0.735 290.653
 Approx polarizability: 275.459   3.315 239.437 -21.502   2.924 253.857

 ******    1 imaginary frequencies (negative Signs) ******

                      1                      2                      3
                      A                      A                      A
 Frequencies --   -349.3162                26.3045                30.9870
 Red. masses --      5.4144                 5.7456                 3.3615
 Frc consts  --      0.3893                 0.0023                 0.0019
 IR Inten    --    763.8900                 2.0227                 0.1404

                      4                      5                      6
                      A                      A                      A
 Frequencies --     44.3024                51.2792                78.0068
 Red. masses --      4.0980                 7.6647                 6.3270
 Frc consts  --      0.0047                 0.0119                 0.0227
 IR Inten    --      0.7361                 2.4661                 1.9031

                      7                      8                      9
                      A                      A                      A
 Frequencies --    101.4215               112.4978               127.8647
 Red. masses --      7.2125                 3.0205                 3.4456
 Frc consts  --      0.0437                 0.0225                 0.0332
 IR Inten    --      0.5358                 2.9485                 6.4629

                     10                     11                     12
                      A                      A                      A
 Frequencies --    165.5143               180.3441               182.8304
 Red. masses --      1.5087                 7.4068                 5.4174
 Frc consts  --      0.0244                 0.1419                 0.1067
 IR Inten    --      4.8817                 6.0726                 3.5343

                     13                     14                     15
                      A                      A                      A
 Frequencies --    211.9415               221.0799               229.8690
 Red. masses --      4.9432                 4.0166                 4.4847
 Frc consts  --      0.1308                 0.1157                 0.1396
 IR Inten    --      1.7667                 2.1781                 4.7391

                     16                     17                     18
                      A                      A                      A
 Frequencies --    245.2981               277.3275               297.4189
 Red. masses --      4.0194                 5.4830                 4.7351
 Frc consts  --      0.1425                 0.2485                 0.2468
 IR Inten    --      6.7237                 9.2200                10.5539

                     19                     20                     21
                      A                      A                      A
 Frequencies --    324.6547               366.5029               399.7906
 Red. masses --      6.0319                 8.4348                 6.6224
 Frc consts  --      0.3746                 0.6675                 0.6236
 IR Inten    --     11.1073                28.1312                29.1502

                     22                     23                     24
                      A                      A                      A
 Frequencies --    419.9738               421.6612               445.6591
 Red. masses --      2.8895                 2.9205                 5.6891
 Frc consts  --      0.3003                 0.3059                 0.6657
 IR Inten    --      0.3837                 0.4645                11.2763

                     25                     26                     27
                      A                      A                      A
 Frequencies --    522.4469               554.0917               569.5097
 Red. masses --      3.9972                 3.4594                 4.7004
 Frc consts  --      0.6428                 0.6258                 0.8982
 IR Inten    --      4.2578               111.0526                88.9105

                     28                     29                     30
                      A                      A                      A
 Frequencies --    596.7068               635.2955               638.7119
 Red. masses --      3.1956                 6.4363                 6.4286
 Frc consts  --      0.6704                 1.5305                 1.5452
 IR Inten    --     66.6562                 0.2367                15.0076

                     31                     32                     33
                      A                      A                      A
 Frequencies --    662.3317               675.8734               720.3558
 Red. masses --      5.3286                 2.4809                 1.7179
 Frc consts  --      1.3772                 0.6677                 0.5252
 IR Inten    --    112.3619                43.2510                55.4922

                     34                     35                     36
                      A                      A                      A
 Frequencies --    724.3362               745.1393               753.9284
 Red. masses --      1.6391                 3.5953                 3.4935
 Frc consts  --      0.5067                 1.1761                 1.1699
 IR Inten    --     81.3718               155.2416                89.9819

                     37                     38                     39
                      A                      A                      A
 Frequencies --    800.7626               823.3219               868.6211
 Red. masses --      2.5007                 2.8986                 1.2571
 Frc consts  --      0.9447                 1.1576                 0.5588
 IR Inten    --      7.2426                27.2773                 0.7952

                     40                     41                     42
                      A                      A                      A
 Frequencies --    879.3641               880.0171               943.6020
 Red. masses --      3.7973                 1.4007                 1.9120
 Frc consts  --      1.7301                 0.6391                 1.0030
 IR Inten    --     95.1215                15.9872                 2.6550

                     43                     44                     45
                      A                      A                      A
 Frequencies --    965.8606               973.4012               991.8938
 Red. masses --      1.4871                 2.9084                 1.0970
 Frc consts  --      0.8174                 1.6236                 0.6359
 IR Inten    --      5.2264                 2.3201                37.9706

                     46                     47                     48
                      A                      A                      A
 Frequencies --   1011.1646              1013.9690              1024.7818
 Red. masses --      1.3629                 1.3836                 5.4338
 Frc consts  --      0.8210                 0.8381                 3.3621
 IR Inten    --      0.6436                 1.0025                 2.5669

                     49                     50                     51
                      A                      A                      A
 Frequencies --   1026.2370              1031.3329              1032.3450
 Red. masses --      5.9592                 1.3133                 1.3202
 Frc consts  --      3.6977                 0.8230                 0.8290
 IR Inten    --      1.7682                 0.4680                 0.3317

                     52                     53                     54
                      A                      A                      A
 Frequencies --   1052.5111              1060.0155              1067.2580
 Red. masses --      1.2126                 2.1553                 2.1911
 Frc consts  --      0.7914                 1.4269                 1.4704
 IR Inten    --     87.2770                13.0565                11.0479

                     55                     56                     57
                      A                      A                      A
 Frequencies --   1077.2524              1111.2737              1126.6575
 Red. masses --      5.0229                 1.5540                 1.5972
 Frc consts  --      3.4343                 1.1307                 1.1946
 IR Inten    --     39.1213                16.2423                 9.0844

                     58                     59                     60
                      A                      A                      A
 Frequencies --   1148.4316              1184.9904              1186.7288
 Red. masses --      4.0417                 1.1407                 1.1336
 Frc consts  --      3.1407                 0.9438                 0.9406
 IR Inten    --     11.3967                 0.4556                 0.0937

                     61                     62                     63
                      A                      A                      A
 Frequencies --   1205.4745              1214.0137              1220.7746
 Red. masses --      1.1265                 3.3297                 1.1995
 Frc consts  --      0.9645                 2.8914                 1.0532
 IR Inten    --      5.1349               185.1277                 7.0287

                     64                     65                     66
                      A                      A                      A
 Frequencies --   1225.5677              1310.0407              1320.1939
 Red. masses --      1.4086                 4.7520                 4.4357
 Frc consts  --      1.2465                 4.8050                 4.5550
 IR Inten    --     17.0151               153.2094               154.2598

                     67                     68                     69
                      A                      A                      A
 Frequencies --   1334.6121              1342.5442              1358.3320
 Red. masses --      4.3680                 1.4398                 1.4600
 Frc consts  --      4.5840                 1.5290                 1.5871
 IR Inten    --    155.2116                62.9156                 5.7241

                     70                     71                     72
                      A                      A                      A
 Frequencies --   1365.3370              1403.4363              1467.5760
 Red. masses --      1.4224                 5.8428                 1.2295
 Frc consts  --      1.5622                 6.7804                 1.5602
 IR Inten    --      5.3398              1125.1254                18.2766

                     73                     74                     75
                      A                      A                      A
 Frequencies --   1485.9504              1490.4746              1491.1847
 Red. masses --      1.0406                 2.2056                 2.2306
 Frc consts  --      1.3538                 2.8869                 2.9224
 IR Inten    --     23.5535                30.9859                28.0929

                     76                     77                     78
                      A                      A                      A
 Frequencies --   1505.0056              1540.2663              1544.6799
 Red. masses --      1.0396                 2.3149                 2.3141
 Frc consts  --      1.3874                 3.2358                 3.2532
 IR Inten    --     13.7579                 1.9597                28.7963

                     79                     80                     81
                      A                      A                      A
 Frequencies --   1647.7191              1650.1071              1656.8284
 Red. masses --      2.9250                 2.5406                 1.9762
 Frc consts  --      4.6790                 4.0758                 3.1961
 IR Inten    --    120.6943                30.9238                21.7406

                     82                     83                     84
                      A                      A                      A
 Frequencies --   1671.3112              1674.7818              1675.4397
 Red. masses --      9.0474                 6.3470                 5.7958
 Frc consts  --     14.8898                10.4891                 9.5856
 IR Inten    --    276.7178                60.7169                 9.4063

                     85                     86                     87
                      A                      A                      A
 Frequencies --   3073.7017              3150.5113              3178.3217
 Red. masses --      1.0345                 1.1035                 1.1049
 Frc consts  --      5.7585                 6.4535                 6.5760
 IR Inten    --     34.9807                 9.0070                13.7354

                     88                     89                     90
                      A                      A                      A
 Frequencies --   3194.3745              3199.5836              3199.7493
 Red. masses --      1.0860                 1.0864                 1.0880
 Frc consts  --      6.5288                 6.5527                 6.5630
 IR Inten    --      1.6034                 0.3742                 0.6502

                     91                     92                     93
                      A                      A                      A
 Frequencies --   3206.9481              3207.4673              3214.4030
 Red. masses --      1.0917                 1.0894                 1.0953
 Frc consts  --      6.6150                 6.6034                 6.6679
 IR Inten    --     10.0273                 3.5945                35.2605

                     94                     95                     96
                      A                      A                      A
 Frequencies --   3215.9650              3223.0004              3225.1006
 Red. masses --      1.0939                 1.0989                 1.0982
 Frc consts  --      6.6655                 6.7257                 6.7299
 IR Inten    --     21.3502                19.9953                20.4144

                     97                     98                     99
                      A                      A                      A
 Frequencies --   3255.1442              3521.6747              3598.5457
 Red. masses --      1.0916                 1.0514                 1.0954
 Frc consts  --      6.8145                 7.6829                 8.3579
 IR Inten    --     15.7492                51.5070                48.4306

 - Thermochemistry -
 -------------------
 Temperature   298.150 Kelvin.  Pressure   1.00000 Atm.
 Atom     1 has atomic number  6 and mass  12.00000

 Molecular mass:   307.05307 amu.
 Principal axes and moments of inertia in atomic units:
                           1         2         3
     Eigenvalues --  4088.907488793.39250**********
           X            0.99992  -0.00123  -0.01259
           Y            0.00027   0.99706  -0.07667
           Z            0.01265   0.07666   0.99698
 This molecule is an asymmetric top.
 Rotational symmetry number  1.
 Warning -- assumption of classical behavior for rotation
           may cause significant error
 Rotational temperatures (Kelvin)      0.02118     0.00985     0.00856
 Rotational constants (GHZ):           0.44137     0.20524     0.17844
    1 imaginary frequencies ignored.
 Zero-point vibrational energy     720805.0 (Joules/Mol)
                                  172.27654 (Kcal/Mol)
 Warning -- explicit consideration of  27 degrees of freedom as
           vibrations may cause significant error
 Vibrational temperatures:     37.85    44.58    63.74    73.78   112.23
          (Kelvin)            145.92   161.86   183.97   238.14   259.47
                              263.05   304.94   318.08   330.73   352.93
                              399.01   427.92   467.11   527.32   575.21
                              604.25   606.68   641.20   751.68   797.21
                              819.40   858.53   914.05   918.96   952.95
                              972.43  1036.43  1042.16  1072.09  1084.73
                             1152.12  1184.58  1249.75  1265.21  1266.15
                             1357.63  1389.66  1400.51  1427.11  1454.84
                             1458.88  1474.43  1476.53  1483.86  1485.31
                             1514.33  1525.13  1535.55  1549.93  1598.88
                             1621.01  1652.34  1704.94  1707.44  1734.41
                             1746.69  1756.42  1763.32  1884.86  1899.46
                             1920.21  1931.62  1954.34  1964.42  2019.23
                             2111.51  2137.95  2144.46  2145.48  2165.37
                             2216.10  2222.45  2370.70  2374.14  2383.81
                             2404.64  2409.64  2410.58  4422.37  4532.88
                             4572.90  4595.99  4603.49  4603.73  4614.08
                             4614.83  4624.81  4627.06  4637.18  4640.20
                             4683.43  5066.90  5177.50

 Zero-point correction=                           0.274540 (Hartree/Particle)
 Thermal correction to Energy=                    0.293109
 Thermal correction to Enthalpy=                  0.294053
 Thermal correction to Gibbs Free Energy=         0.225818
 Sum of electronic and zero-point Energies=          -1668.828356
 Sum of electronic and thermal Energies=             -1668.809788
 Sum of electronic and thermal Enthalpies=           -1668.808843
 Sum of electronic and thermal Free Energies=        -1668.877078

                     E (Thermal)             CV                S
                      KCal/Mol        Cal/Mol-Kelvin    Cal/Mol-Kelvin
 Total                  183.928             69.447            143.612
 Electronic               0.000              0.000              0.000
 Translational            0.889              2.981             43.062
 Rotational               0.889              2.981             34.252
 Vibrational            182.151             63.485             66.298
 Vibration     1          0.593              1.985              6.090
 Vibration     2          0.594              1.984              5.765
 Vibration     3          0.595              1.980              5.057
 Vibration     4          0.596              1.977              4.767
 Vibration     5          0.599              1.964              3.940
 Vibration     6          0.604              1.948              3.427
 Vibration     7          0.607              1.939              3.225
 Vibration     8          0.611              1.925              2.978
 Vibration     9          0.624              1.885              2.486
 Vibration    10          0.629              1.866              2.325
 Vibration    11          0.630              1.863              2.299
 Vibration    12          0.643              1.823              2.027
 Vibration    13          0.648              1.809              1.950
 Vibration    14          0.652              1.795              1.880
 Vibration    15          0.660              1.771              1.764
 Vibration    16          0.678              1.715              1.550
 Vibration    17          0.691              1.679              1.431
 Vibration    18          0.709              1.626              1.287
 Vibration    19          0.739              1.541              1.094
 Vibration    20          0.766              1.471              0.963
 Vibration    21          0.783              1.427              0.892
 Vibration    22          0.784              1.423              0.886
 Vibration    23          0.805              1.370              0.809
 Vibration    24          0.877              1.200              0.604
 Vibration    25          0.909              1.131              0.536
 Vibration    26          0.926              1.097              0.505
 Vibration    27          0.955              1.039              0.455

 Optimization completed.
    -- Stationary point found.
 Normal termination of Gaussian 16 at Sat Feb 27 07:39:22 2021.
