 Gaussian 16, Revision A.03,
 Gaussian 16:  ES64L-G16RevA.03 25-Dec-2016

 ----------------------------------------------------------------------
 # wB97XD def2tzvp, opt=(ts, noeigen, calcfc, maxcycles=70, maxstep=5),
  freq=noraman, scrf=(iefpcm, solvent=water)
 ----------------------------------------------------------------------

 ------------------------
 2_iteration/TS-814-2.out
 ------------------------
 Symbolic Z-matrix:
 Charge =  0 Multiplicity = 1

 SCF Done:  E(RwB97XD) =  -1112.44571973     A.U. after   14 cycles
 SCF Done:  E(RwB97XD) =  -1112.44572126     A.U. after    8 cycles
 SCF Done:  E(RwB97XD) =  -1112.44572131     A.U. after    6 cycles
 Optimization completed.
    -- Stationary point found.
 Normal termination of Gaussian 16 at Fri Feb 26 11:46:45 2021.

 ---------------------------------------------------------------------
 #N Geom=AllCheck Guess=TCheck SCRF=Check GenChk RwB97XD/def2TZVP Freq
 ---------------------------------------------------------------------

 Structure from the checkpoint file:  "/beegfs/scratch/user/q/tla25/Gau-84391.chk"
 ------------------------
 2_iteration/TS-814-2.out
 ------------------------
 Charge =  0 Multiplicity = 1

                         Standard orientation:
 ---------------------------------------------------------------------
 Center     Atomic      Atomic             Coordinates (Angstroms)
 Number     Number       Type             X           Y           Z
 ---------------------------------------------------------------------
      1          6           0       -1.008804    0.444125   -0.644598
      2          6           0       -1.721416   -0.440959    0.231173
      3          8           0       -1.267382   -0.779058    1.350980
      4          6           0        0.317775    0.796153   -0.355542
      5          6           0       -0.592436    2.690571    1.489037
      6          1           0       -0.948649    2.818748    2.511100
      7          1           0       -0.085673    3.596390    1.164604
      8          1           0       -1.451119    2.502212    0.839358
      9          7           0        0.306093    1.553921    1.380560
     10          1           0        1.224237    1.741304    1.761692
     11          1           0       -0.097263    0.718140    1.814395
     12         17           0        0.886047    2.160943   -1.354774
     13          6           0        1.419284   -0.215829   -0.160716
     14          6           0        1.191672   -1.549933   -0.478458
     15          6           0        2.197719   -2.493058   -0.333642
     16          6           0        3.451680   -2.113423    0.119336
     17          6           0        3.695431   -0.780427    0.419047
     18          6           0        2.688270    0.159023    0.276391
     19          1           0        0.220313   -1.846178   -0.848858
     20          1           0        1.999681   -3.527769   -0.583020
     21          1           0        4.238494   -2.848881    0.228587
     22          1           0        4.674509   -0.468378    0.759179
     23          1           0        2.907783    1.198421    0.487098
     24          1           0       -1.550508    1.054611   -1.347731
     25          7           0       -2.947678   -0.897698   -0.169703
     26          6           0       -3.511795   -0.568492   -1.458486
     27          6           0       -3.847050   -1.514721    0.778642
     28          1           0       -2.744812   -0.594416   -2.230907
     29          1           0       -4.270864   -1.309820   -1.708864
     30          1           0       -3.986410    0.419836   -1.467509
     31          1           0       -3.320373   -1.685865    1.711919
     32          1           0       -4.713912   -0.872721    0.969514
     33          1           0       -4.210080   -2.470940    0.393662
 ---------------------------------------------------------------------

 SCF Done:  E(RwB97XD) =  -1112.44572131     A.U. after    1 cycles

 The electronic state is 1-A.
 Alpha  occ. eigenvalues -- -101.69754 -19.19472 -14.47850 -14.44830 -10.40217
 Alpha  occ. eigenvalues --  -10.36911 -10.31231 -10.30984 -10.30475 -10.29970
 Alpha  occ. eigenvalues --  -10.29712 -10.29412 -10.29378 -10.29346 -10.29217
 Alpha  occ. eigenvalues --  -10.24649  -9.58348  -7.32978  -7.32140  -7.32101
 Alpha  occ. eigenvalues --   -1.11962  -1.04085  -1.02247  -0.98410  -0.95767
 Alpha  occ. eigenvalues --   -0.87446  -0.85698  -0.84239  -0.80953  -0.78977
 Alpha  occ. eigenvalues --   -0.77825  -0.72584  -0.70760  -0.66982  -0.63912
 Alpha  occ. eigenvalues --   -0.62394  -0.60878  -0.58354  -0.57164  -0.56661
 Alpha  occ. eigenvalues --   -0.55681  -0.55132  -0.54177  -0.53635  -0.51508
 Alpha  occ. eigenvalues --   -0.50989  -0.50150  -0.48289  -0.48162  -0.47616
 Alpha  occ. eigenvalues --   -0.47479  -0.47186  -0.45691  -0.45181  -0.44629
 Alpha  occ. eigenvalues --   -0.43808  -0.42857  -0.40112  -0.38832  -0.34477
 Alpha  occ. eigenvalues --   -0.33878  -0.33054  -0.31397  -0.26985
 Alpha virt. eigenvalues --    0.02168   0.05106   0.07078   0.10123   0.11021
 Alpha virt. eigenvalues --    0.12161   0.13715   0.14854   0.15259   0.15807
 Alpha virt. eigenvalues --    0.16690   0.16942   0.17556   0.17881   0.18664

 Mulliken charges:
               1
     1  C   -0.688391
     2  C    0.336249
     3  O   -0.613227
     4  C    0.431121
     5  C   -0.294173
     6  H    0.153450
     7  H    0.152148
     8  H    0.145045
     9  N   -0.295249
    10  H    0.270818
    11  H    0.277936
    12  Cl  -0.129094
    13  C    0.111121
    14  C   -0.183138
    15  C   -0.147948
    16  C   -0.137793
    17  C   -0.156634
    18  C   -0.291646
    19  H    0.163010
    20  H    0.143924
    21  H    0.146471
    22  H    0.145620
    23  H    0.165267
    24  H    0.158282
    25  N   -0.100034
    26  C   -0.304501
    27  C   -0.279321
    28  H    0.148243
    29  H    0.141247
    30  H    0.133411
    31  H    0.143330
    32  H    0.124007
    33  H    0.130450
 Sum of Mulliken charges =   0.00000

 Dipole moment (field-independent basis, Debye):
    X=              0.1657    Y=              2.4106    Z=              1.4580  Tot=              2.8221
 Quadrupole moment (field-independent basis, Debye-Ang):
   XX=            -85.4314   YY=            -94.0636   ZZ=           -104.8992
   XY=             -0.4119   XZ=              9.1541   YZ=             11.6394

  Exact polarizability: 286.487  13.581 257.560  19.964   6.339 199.201
 Approx polarizability: 216.769  10.410 208.950  17.249   3.743 173.585

 ******    1 imaginary frequencies (negative Signs) ******

                      1                      2                      3
                      A                      A                      A
 Frequencies --   -406.0317                39.6260                50.3474
 Red. masses --      5.2096                 3.0324                 3.5095
 Frc consts  --      0.5060                 0.0028                 0.0052
 IR Inten    --    724.1104                 4.5319                 1.5201

                      4                      5                      6
                      A                      A                      A
 Frequencies --     61.9601                88.2698               100.0840
 Red. masses --      2.7179                 3.3393                 1.4794
 Frc consts  --      0.0061                 0.0153                 0.0087
 IR Inten    --      0.5695                 2.3965                 1.3305

                      7                      8                      9
                      A                      A                      A
 Frequencies --    106.9252               131.9666               138.6311
 Red. masses --      3.3275                 2.2233                 2.3334
 Frc consts  --      0.0224                 0.0228                 0.0264
 IR Inten    --      1.2612                 6.2384                11.7954

                     10                     11                     12
                      A                      A                      A
 Frequencies --    152.1584               178.4885               185.6737
 Red. masses --      1.7215                 3.0104                 1.6033
 Frc consts  --      0.0235                 0.0565                 0.0326
 IR Inten    --     43.5435                 3.2914                 2.0824

                     13                     14                     15
                      A                      A                      A
 Frequencies --    216.3637               236.1676               251.4901
 Red. masses --      2.6547                 4.7443                 2.5357
 Frc consts  --      0.0732                 0.1559                 0.0945
 IR Inten    --      0.1772                 2.8160                21.7898

                     16                     17                     18
                      A                      A                      A
 Frequencies --    266.2666               313.8433               332.1505
 Red. masses --      4.5675                 3.5690                 5.4465
 Frc consts  --      0.1908                 0.2071                 0.3540
 IR Inten    --      0.2376                21.9375                 7.9560

                     19                     20                     21
                      A                      A                      A
 Frequencies --    354.7038               396.9133               424.8922
 Red. masses --      5.6191                 4.0403                 2.9240
 Frc consts  --      0.4165                 0.3750                 0.3110
 IR Inten    --      2.7760                39.4455                 0.1416

                     22                     23                     24
                      A                      A                      A
 Frequencies --    445.4888               493.8498               557.5644
 Red. masses --      3.0942                 3.8641                 3.0536
 Frc consts  --      0.3618                 0.5553                 0.5593
 IR Inten    --      8.0732                12.6589                65.5504

                     25                     26                     27
                      A                      A                      A
 Frequencies --    606.7899               631.0190               631.9426
 Red. masses --      2.5785                 4.6717                 1.7730
 Frc consts  --      0.5594                 1.0960                 0.4172
 IR Inten    --     27.9224                60.6970               131.4006

                     28                     29                     30
                      A                      A                      A
 Frequencies --    639.7329               694.7672               726.3106
 Red. masses --      5.3312                 2.3532                 1.6330
 Frc consts  --      1.2855                 0.6692                 0.5076
 IR Inten    --     37.0222                29.9355               105.7934

                     31                     32                     33
                      A                      A                      A
 Frequencies --    777.6581               789.7058               810.0839
 Red. masses --      3.0625                 3.6812                 2.2652
 Frc consts  --      1.0912                 1.3526                 0.8758
 IR Inten    --    148.5859                67.6235                 9.4499

                     34                     35                     36
                      A                      A                      A
 Frequencies --    842.8976               879.2322               942.0791
 Red. masses --      5.7680                 1.2438                 3.2710
 Frc consts  --      2.4145                 0.5665                 1.7104
 IR Inten    --     66.6679                 1.9828               101.1470

                     37                     38                     39
                      A                      A                      A
 Frequencies --    972.7051              1009.7560              1023.2764
 Red. masses --      1.5160                 1.2148                 1.5308
 Frc consts  --      0.8451                 0.7298                 0.9444
 IR Inten    --      8.6342                52.9997                20.9635

                     40                     41                     42
                      A                      A                      A
 Frequencies --   1027.9436              1029.2793              1035.6436
 Red. masses --      2.9833                 2.7005                 1.3223
 Frc consts  --      1.8573                 1.6856                 0.8356
 IR Inten    --     17.2896                68.1592                 8.4265

                     43                     44                     45
                      A                      A                      A
 Frequencies --   1063.8493              1082.7360              1088.8624
 Red. masses --      2.1244                 1.3838                 2.6785
 Frc consts  --      1.4166                 0.9558                 1.8710
 IR Inten    --      5.8762                24.1606                12.9437

                     46                     47                     48
                      A                      A                      A
 Frequencies --   1107.3440              1117.9014              1131.4093
 Red. masses --      1.5073                 1.5676                 1.2346
 Frc consts  --      1.0890                 1.1542                 0.9311
 IR Inten    --    193.3421                 5.1198                 3.9458

                     49                     50                     51
                      A                      A                      A
 Frequencies --   1163.6493              1169.1730              1184.7511
 Red. masses --      1.7550                 2.0369                 1.1302
 Frc consts  --      1.4001                 1.6405                 0.9347
 IR Inten    --    232.0451                30.4913                 0.2446

                     52                     53                     54
                      A                      A                      A
 Frequencies --   1192.5958              1210.3840              1229.7679
 Red. masses --      1.7679                 1.1489                 1.3558
 Frc consts  --      1.4815                 0.9917                 1.2081
 IR Inten    --    183.9255                 9.4877                66.1537

                     55                     56                     57
                      A                      A                      A
 Frequencies --   1312.1714              1326.6252              1334.9129
 Red. masses --      5.4451                 4.1538                 2.2875
 Frc consts  --      5.5238                 4.3072                 2.4017
 IR Inten    --     28.5707                 0.2088               161.0350

                     58                     59                     60
                      A                      A                      A
 Frequencies --   1354.1378              1362.3734              1419.2169
 Red. masses --      1.4089                 1.3675                 2.7722
 Frc consts  --      1.5222                 1.4955                 3.2898
 IR Inten    --     14.2096                 7.7921                18.7309

                     61                     62                     63
                      A                      A                      A
 Frequencies --   1431.1463              1445.3595              1458.0189
 Red. masses --      1.2519                 1.5251                 1.3064
 Frc consts  --      1.5107                 1.8771                 1.6363
 IR Inten    --    183.5833               564.7607                83.5873

                     64                     65                     66
                      A                      A                      A
 Frequencies --   1472.1475              1487.9470              1488.0905
 Red. masses --      1.2999                 1.0405                 1.1394
 Frc consts  --      1.6599                 1.3572                 1.4866
 IR Inten    --    295.1669                19.5433                61.0393

                     67                     68                     69
                      A                      A                      A
 Frequencies --   1492.2797              1494.0588              1502.0658
 Red. masses --      1.0485                 2.1918                 1.0401
 Frc consts  --      1.3757                 2.8826                 1.3826
 IR Inten    --     17.8822               117.7504                10.5095

                     70                     71                     72
                      A                      A                      A
 Frequencies --   1503.8615              1534.3112              1541.6491
 Red. masses --      1.0949                 1.5175                 2.2810
 Frc consts  --      1.4589                 2.1047                 3.1940
 IR Inten    --      3.7509               257.6399                12.3848

                     73                     74                     75
                      A                      A                      A
 Frequencies --   1588.7306              1645.7869              1654.3962
 Red. masses --      3.5516                 1.2373                 5.5544
 Frc consts  --      5.2818                 1.9746                 8.9571
 IR Inten    --    711.8707                10.7788                 2.9322

                     76                     77                     78
                      A                      A                      A
 Frequencies --   1673.7765              3015.5888              3022.6590
 Red. masses --      5.9194                 1.0483                 1.0459
 Frc consts  --      9.7706                 5.6166                 5.6303
 IR Inten    --      0.2758                77.1252               157.2391

                     79                     80                     81
                      A                      A                      A
 Frequencies --   3052.5408              3080.1517              3103.8594
 Red. masses --      1.0367                 1.0981                 1.0867
 Frc consts  --      5.6912                 6.1382                 6.1681
 IR Inten    --     49.3027                70.1618                40.6994

                     82                     83                     84
                      A                      A                      A
 Frequencies --   3125.9729              3147.7565              3166.5540
 Red. masses --      1.1004                 1.1034                 1.1047
 Frc consts  --      6.3354                 6.4412                 6.5261
 IR Inten    --     11.7832                18.3616                16.8534

                     85                     86                     87
                      A                      A                      A
 Frequencies --   3188.4998              3195.4174              3201.5867
 Red. masses --      1.0957                 1.0863                 1.0888
 Frc consts  --      6.5632                 6.5349                 6.5757
 IR Inten    --      4.3508                 2.5878                 3.9133

                     88                     89                     90
                      A                      A                      A
 Frequencies --   3211.1022              3221.6659              3230.8195
 Red. masses --      1.0929                 1.0968                 1.0948
 Frc consts  --      6.6394                 6.7074                 6.7329
 IR Inten    --     22.8274                20.5392                 9.2707

                     91                     92                     93
                      A                      A                      A
 Frequencies --   3250.4789              3361.2128              3595.7859
 Red. masses --      1.0895                 1.0675                 1.0831
 Frc consts  --      6.7820                 7.1057                 8.2510
 IR Inten    --      0.8137               174.1830                86.6927

 - Thermochemistry -
 -------------------
 Temperature   298.150 Kelvin.  Pressure   1.00000 Atm.
 Atom     1 has atomic number  6 and mass  12.00000

 Molecular mass:   240.10294 amu.
 Principal axes and moments of inertia in atomic units:
                           1         2         3
     Eigenvalues --  2895.653595092.976656374.69313
           X            0.99991  -0.00191   0.01336
           Y            0.00115   0.99839   0.05679
           Z           -0.01345  -0.05677   0.99830
 This molecule is an asymmetric top.
 Rotational symmetry number  1.
 Warning -- assumption of classical behavior for rotation
           may cause significant error
 Rotational temperatures (Kelvin)      0.02991     0.01701     0.01359
 Rotational constants (GHZ):           0.62326     0.35436     0.28311
    1 imaginary frequencies ignored.
 Zero-point vibrational energy     723930.9 (Joules/Mol)
                                  173.02363 (Kcal/Mol)
 Warning -- explicit consideration of  24 degrees of freedom as
           vibrations may cause significant error
 Vibrational temperatures:     57.01    72.44    89.15   127.00   144.00
          (Kelvin)            153.84   189.87   199.46   218.92   256.81
                              267.14   311.30   339.79   361.84   383.10
                              451.55   477.89   510.34   571.07   611.33
                              640.96   710.54   802.21   873.04   907.90
                              909.22   920.43   999.62  1045.00  1118.88
                             1136.21  1165.53  1212.74  1265.02  1355.44
                             1399.51  1452.81  1472.27  1478.98  1480.90
                             1490.06  1530.64  1557.82  1566.63  1593.22
                             1608.41  1627.85  1674.23  1682.18  1704.59
                             1715.88  1741.47  1769.36  1887.92  1908.72
                             1920.64  1948.30  1960.15  2041.94  2059.10
                             2079.55  2097.76  2118.09  2140.82  2141.03
                             2147.06  2149.62  2161.14  2163.72  2207.53
                             2218.09  2285.83  2367.92  2380.31  2408.19
                             4338.76  4348.93  4391.93  4431.65  4465.76
                             4497.58  4528.92  4555.96  4587.54  4597.49
                             4606.37  4620.06  4635.26  4648.43  4676.71
                             4836.04  5173.53

 Zero-point correction=                           0.275731 (Hartree/Particle)
 Thermal correction to Energy=                    0.292650
 Thermal correction to Enthalpy=                  0.293594
 Thermal correction to Gibbs Free Energy=         0.230537
 Sum of electronic and zero-point Energies=          -1112.169991
 Sum of electronic and thermal Energies=             -1112.153071
 Sum of electronic and thermal Enthalpies=           -1112.152127
 Sum of electronic and thermal Free Energies=        -1112.215184

                     E (Thermal)             CV                S
                      KCal/Mol        Cal/Mol-Kelvin    Cal/Mol-Kelvin
 Total                  183.641             61.840            132.715
 Electronic               0.000              0.000              0.000
 Translational            0.889              2.981             42.329
 Rotational               0.889              2.981             32.908
 Vibrational            181.863             55.878             57.478
 Vibration     1          0.594              1.981              5.278
 Vibration     2          0.595              1.977              4.804
 Vibration     3          0.597              1.972              4.394
 Vibration     4          0.601              1.957              3.698
 Vibration     5          0.604              1.949              3.453
 Vibration     6          0.606              1.944              3.324
 Vibration     7          0.612              1.921              2.917
 Vibration     8          0.614              1.915              2.823
 Vibration     9          0.619              1.900              2.645
 Vibration    10          0.629              1.869              2.344
 Vibration    11          0.632              1.859              2.271
 Vibration    12          0.645              1.816              1.989
 Vibration    13          0.655              1.785              1.832
 Vibration    14          0.663              1.760              1.720
 Vibration    15          0.672              1.735              1.620
 Vibration    16          0.702              1.647              1.342
 Vibration    17          0.714              1.611              1.250
 Vibration    18          0.731              1.566              1.145
 Vibration    19          0.763              1.477              0.974
 Vibration    20          0.787              1.416              0.876
 Vibration    21          0.805              1.371              0.810
 Vibration    22          0.850              1.264              0.674
 Vibration    23          0.913              1.123              0.529
 Vibration    24          0.966              1.017              0.438

 Optimization completed.
    -- Stationary point found.
 Normal termination of Gaussian 16 at Fri Feb 26 13:04:48 2021.
