 Gaussian 16, Revision A.03,
 Gaussian 16:  ES64L-G16RevA.03 25-Dec-2016

 ----------------------------------------------------------------------
 # wB97XD def2tzvp, opt=(ts, noeigen, calcfc, maxcycles=70, maxstep=8),
  freq=noraman, scrf=(iefpcm, solvent=water)
 ----------------------------------------------------------------------

 ------------------------
 1_iteration/TS-846-1.out
 ------------------------
 Symbolic Z-matrix:
 Charge =  0 Multiplicity = 1

 SCF Done:  E(RwB97XD) =  -1112.44540190     A.U. after   14 cycles
 SCF Done:  E(RwB97XD) =  -1112.44609069     A.U. after   12 cycles
 SCF Done:  E(RwB97XD) =  -1112.44646139     A.U. after   12 cycles
 SCF Done:  E(RwB97XD) =  -1112.44652065     A.U. after   12 cycles
 SCF Done:  E(RwB97XD) =  -1112.44653387     A.U. after   10 cycles
 SCF Done:  E(RwB97XD) =  -1112.44647222     A.U. after   11 cycles
 SCF Done:  E(RwB97XD) =  -1112.44641893     A.U. after   11 cycles
 SCF Done:  E(RwB97XD) =  -1112.44651757     A.U. after   11 cycles
 SCF Done:  E(RwB97XD) =  -1112.44654226     A.U. after   10 cycles
 SCF Done:  E(RwB97XD) =  -1112.44654330     A.U. after   10 cycles
 SCF Done:  E(RwB97XD) =  -1112.44654262     A.U. after    8 cycles
 Optimization completed.
    -- Stationary point found.
 Normal termination of Gaussian 16 at Fri Feb 26 04:00:05 2021.

 ---------------------------------------------------------------------
 #N Geom=AllCheck Guess=TCheck SCRF=Check GenChk RwB97XD/def2TZVP Freq
 ---------------------------------------------------------------------

 Structure from the checkpoint file:  "/beegfs/scratch/user/q/tla25/Gau-75746.chk"
 ------------------------
 1_iteration/TS-846-1.out
 ------------------------
 Charge =  0 Multiplicity = 1

                         Standard orientation:
 ---------------------------------------------------------------------
 Center     Atomic      Atomic             Coordinates (Angstroms)
 Number     Number       Type             X           Y           Z
 ---------------------------------------------------------------------
      1          6           0       -0.407542   -0.202726   -0.346569
      2          6           0       -1.486194    0.771217   -0.553082
      3          8           0       -2.475857    0.522122   -1.261301
      4          6           0       -0.811382   -1.521044   -0.523134
      5          6           0       -2.013039   -1.606881    1.928221
      6          1           0       -2.152093   -2.073342    2.902010
      7          1           0       -1.510893   -0.647756    2.050938
      8          1           0       -2.981107   -1.439532    1.460567
      9          7           0       -1.198349   -2.440748    1.051257
     10          1           0       -0.321601   -2.699766    1.489636
     11          1           0       -1.673734   -3.298118    0.790997
     12         17           0        0.298692   -2.721322   -1.233783
     13          1           0       -1.797647   -1.640369   -0.949223
     14          6           0        0.992216    0.183510   -0.107917
     15          6           0        1.831785   -0.529698    0.754113
     16          6           0        3.159820   -0.173421    0.936785
     17          6           0        3.690758    0.922030    0.272797
     18          6           0        2.873343    1.649595   -0.582849
     19          6           0        1.552600    1.281420   -0.774161
     20          1           0        1.444861   -1.374776    1.308481
     21          1           0        3.778647   -0.751513    1.612424
     22          1           0        4.725015    1.206151    0.419662
     23          1           0        3.271064    2.505659   -1.114657
     24          1           0        0.934013    1.855912   -1.452867
     25          7           0       -1.392213    2.003024    0.039018
     26          6           0       -0.663323    2.281093    1.257983
     27          6           0       -2.334144    3.030852   -0.346300
     28          1           0       -0.238604    1.373098    1.673686
     29          1           0        0.148301    2.994432    1.088695
     30          1           0       -1.348702    2.706577    1.996551
     31          1           0       -2.608254    2.913683   -1.391049
     32          1           0       -3.248212    2.996271    0.257257
     33          1           0       -1.867424    4.007292   -0.205635
 ---------------------------------------------------------------------

 SCF Done:  E(RwB97XD) =  -1112.44654262     A.U. after    1 cycles

 The electronic state is 1-A.
 Alpha  occ. eigenvalues -- -101.69509 -19.19335 -14.49704 -14.44918 -10.38200
 Alpha  occ. eigenvalues --  -10.37214 -10.32051 -10.30451 -10.30042 -10.29739
 Alpha  occ. eigenvalues --  -10.28485 -10.28418 -10.28180 -10.28064 -10.27911
 Alpha  occ. eigenvalues --  -10.25971  -9.58097  -7.32718  -7.31894  -7.31856
 Alpha  occ. eigenvalues --   -1.12238  -1.05248  -1.02255  -0.96990  -0.95354
 Alpha  occ. eigenvalues --   -0.88191  -0.84417  -0.82484  -0.81054  -0.79533
 Alpha  occ. eigenvalues --   -0.78486  -0.71451  -0.69859  -0.67226  -0.64569
 Alpha  occ. eigenvalues --   -0.62312  -0.60995  -0.58296  -0.57870  -0.56173
 Alpha  occ. eigenvalues --   -0.55569  -0.54488  -0.53943  -0.52951  -0.51777
 Alpha  occ. eigenvalues --   -0.50374  -0.50143  -0.48704  -0.48400  -0.47782
 Alpha  occ. eigenvalues --   -0.47234  -0.46917  -0.46308  -0.44902  -0.44644
 Alpha  occ. eigenvalues --   -0.42914  -0.42034  -0.39642  -0.38877  -0.34839
 Alpha  occ. eigenvalues --   -0.33156  -0.32971  -0.31211  -0.25760
 Alpha virt. eigenvalues --    0.05127   0.05758   0.06895   0.09543   0.10606
 Alpha virt. eigenvalues --    0.11750   0.13512   0.14454   0.15285   0.15515
 Alpha virt. eigenvalues --    0.16180   0.16709   0.17736   0.18011   0.18655

 Mulliken charges:
               1
     1  C   -0.198679
     2  C    0.250215
     3  O   -0.552060
     4  C   -0.046710
     5  C   -0.274410
     6  H    0.167575
     7  H    0.142678
     8  H    0.156627
     9  N   -0.287550
    10  H    0.276214
    11  H    0.292716
    12  Cl  -0.134431
    13  H    0.187333
    14  C    0.169844
    15  C   -0.229516
    16  C   -0.160920
    17  C   -0.156354
    18  C   -0.148885
    19  C   -0.252612
    20  H    0.120646
    21  H    0.134950
    22  H    0.137888
    23  H    0.135439
    24  H    0.139643
    25  N   -0.109470
    26  C   -0.303343
    27  C   -0.292376
    28  H    0.151299
    29  H    0.139246
    30  H    0.144932
    31  H    0.136839
    32  H    0.127450
    33  H    0.135778
 Sum of Mulliken charges =  -0.00000

 Dipole moment (field-independent basis, Debye):
    X=             -0.7328    Y=             -3.1411    Z=              7.8591  Tot=              8.4952
 Quadrupole moment (field-independent basis, Debye-Ang):
   XX=           -106.8882   YY=            -82.7938   ZZ=           -102.6896
   XY=              9.3573   XZ=            -10.2246   YZ=            -11.1991

  Exact polarizability: 274.728  13.976 271.612   9.851 -15.058 202.748
 Approx polarizability: 214.764   9.153 212.432  10.435 -13.582 174.731

 ******    1 imaginary frequencies (negative Signs) ******

                      1                      2                      3
                      A                      A                      A
 Frequencies --   -370.9224                42.6186                51.8205
 Red. masses --      5.9308                 3.9295                 3.5979
 Frc consts  --      0.4808                 0.0042                 0.0057
 IR Inten    --    851.2562                 6.8216                 5.1060

                      4                      5                      6
                      A                      A                      A
 Frequencies --     73.5790                77.1282                86.7848
 Red. masses --      4.2340                 3.6115                 4.1811
 Frc consts  --      0.0135                 0.0127                 0.0186
 IR Inten    --      3.0783                 0.0942                 6.6607

                      7                      8                      9
                      A                      A                      A
 Frequencies --    109.7165               129.3658               135.7788
 Red. masses --      2.2771                 1.3871                 1.6333
 Frc consts  --      0.0161                 0.0137                 0.0177
 IR Inten    --      6.8754                 1.1401                 4.9462

                     10                     11                     12
                      A                      A                      A
 Frequencies --    153.3472               162.2733               183.0911
 Red. masses --      2.1397                 2.8092                 2.1541
 Frc consts  --      0.0296                 0.0436                 0.0425
 IR Inten    --      6.3639                 9.2281                11.9756

                     13                     14                     15
                      A                      A                      A
 Frequencies --    209.4690               231.5077               246.4837
 Red. masses --      2.0045                 4.2212                 3.7594
 Frc consts  --      0.0518                 0.1333                 0.1346
 IR Inten    --      2.7925                18.3129                 0.9632

                     16                     17                     18
                      A                      A                      A
 Frequencies --    281.8907               326.1117               332.3047
 Red. masses --      2.1765                 3.4924                 3.7418
 Frc consts  --      0.1019                 0.2188                 0.2434
 IR Inten    --      4.2123                 5.0628                21.5609

                     19                     20                     21
                      A                      A                      A
 Frequencies --    359.0675               401.3646               424.5700
 Red. masses --      4.7182                 5.4494                 2.9029
 Frc consts  --      0.3584                 0.5172                 0.3083
 IR Inten    --     64.1820                45.7275                 1.0328

                     22                     23                     24
                      A                      A                      A
 Frequencies --    449.1364               493.6998               538.6984
 Red. masses --      3.0394                 3.7302                 3.0647
 Frc consts  --      0.3612                 0.5357                 0.5240
 IR Inten    --     16.4718                38.6598                12.7796

                     25                     26                     27
                      A                      A                      A
 Frequencies --    598.6850               639.1627               652.7853
 Red. masses --      4.1077                 5.8832                 3.5463
 Frc consts  --      0.8674                 1.4161                 0.8904
 IR Inten    --     38.1568                 7.3624                35.3939

                     28                     29                     30
                      A                      A                      A
 Frequencies --    703.4052               723.6400               735.4262
 Red. masses --      3.2833                 1.6127                 5.4576
 Frc consts  --      0.9571                 0.4976                 1.7391
 IR Inten    --     93.7622                60.5698               109.9682

                     31                     32                     33
                      A                      A                      A
 Frequencies --    760.8168               801.7210               813.8548
 Red. masses --      2.8006                 2.4122                 5.0125
 Frc consts  --      0.9551                 0.9135                 1.9561
 IR Inten    --     26.6573                54.5817               106.0725

                     34                     35                     36
                      A                      A                      A
 Frequencies --    866.6016               932.1190               936.9655
 Red. masses --      1.2566                 2.6353                 1.7926
 Frc consts  --      0.5560                 1.3490                 0.9272
 IR Inten    --      2.1051                46.5068                17.6273

                     37                     38                     39
                      A                      A                      A
 Frequencies --    999.1039              1007.1151              1016.2872
 Red. masses --      1.2936                 1.1921                 1.3005
 Frc consts  --      0.7608                 0.7124                 0.7914
 IR Inten    --      5.0433                10.8351                 0.0830

                     40                     41                     42
                      A                      A                      A
 Frequencies --   1022.0029              1035.9017              1047.2641
 Red. masses --      5.6732                 1.1409                 2.7156
 Frc consts  --      3.4913                 0.7214                 1.7548
 IR Inten    --      4.8974                78.0864                33.0331

                     43                     44                     45
                      A                      A                      A
 Frequencies --   1069.1579              1083.6482              1088.7926
 Red. masses --      1.9565                 4.5583                 1.4019
 Frc consts  --      1.3177                 3.1538                 0.9792
 IR Inten    --     12.9469                52.7969                30.3018

                     46                     47                     48
                      A                      A                      A
 Frequencies --   1120.0423              1133.8794              1167.1066
 Red. masses --      1.6101                 1.2304                 1.5679
 Frc consts  --      1.1900                 0.9320                 1.2584
 IR Inten    --     20.7614                 0.9939                14.0940

                     49                     50                     51
                      A                      A                      A
 Frequencies --   1173.8976              1181.3284              1188.4945
 Red. masses --      1.7987                 1.1256                 1.1121
 Frc consts  --      1.4604                 0.9255                 0.9256
 IR Inten    --     15.7945                 1.5168               108.8029

                     52                     53                     54
                      A                      A                      A
 Frequencies --   1214.7943              1218.9912              1232.5326
 Red. masses --      1.8992                 1.2039                 1.3685
 Frc consts  --      1.6513                 1.0540                 1.2249
 IR Inten    --    260.3880                19.2381                48.6953

                     55                     56                     57
                      A                      A                      A
 Frequencies --   1303.6491              1310.8197              1339.1217
 Red. masses --      3.1632                 5.0759                 1.3336
 Frc consts  --      3.1674                 5.1387                 1.4090
 IR Inten    --     60.0341                33.9654                 3.1717

                     58                     59                     60
                      A                      A                      A
 Frequencies --   1350.4757              1373.5907              1408.8085
 Red. masses --      2.4617                 1.5578                 3.2498
 Frc consts  --      2.6452                 1.7317                 3.8003
 IR Inten    --    216.2818                22.8855               798.9073

                     61                     62                     63
                      A                      A                      A
 Frequencies --   1424.7316              1446.7398              1453.3262
 Red. masses --      2.3981                 1.2429                 1.2571
 Frc consts  --      2.8680                 1.5327                 1.5644
 IR Inten    --     66.9656                16.1404                35.5053

                     64                     65                     66
                      A                      A                      A
 Frequencies --   1475.6402              1484.7689              1491.7576
 Red. masses --      1.1296                 1.1497                 1.9804
 Frc consts  --      1.4493                 1.4933                 2.5966
 IR Inten    --     29.7109                 8.8690                29.3247

                     67                     68                     69
                      A                      A                      A
 Frequencies --   1493.6582              1496.6190              1497.8563
 Red. masses --      1.0797                 1.0542                 1.0825
 Frc consts  --      1.4193                 1.3912                 1.4309
 IR Inten    --     24.4243                14.3887                41.9774

                     70                     71                     72
                      A                      A                      A
 Frequencies --   1502.1613              1530.6489              1546.1660
 Red. masses --      1.0499                 1.3808                 2.3387
 Frc consts  --      1.3959                 1.9061                 3.2941
 IR Inten    --     13.1094               193.7846               125.0303

                     73                     74                     75
                      A                      A                      A
 Frequencies --   1618.5952              1639.5075              1649.6425
 Red. masses --      7.5118                 3.9423                 1.1955
 Frc consts  --     11.5950                 6.2435                 1.9168
 IR Inten    --    939.4811                37.1366                80.4165

                     76                     77                     78
                      A                      A                      A
 Frequencies --   1670.5159              3022.3433              3033.2617
 Red. masses --      5.6838                 1.0474                 1.0407
 Frc consts  --      9.3452                 5.6372                 5.6413
 IR Inten    --     37.7169               102.7611               109.7408

                     79                     80                     81
                      A                      A                      A
 Frequencies --   3075.7520              3084.3299              3098.7546
 Red. masses --      1.0325                 1.1028                 1.0929
 Frc consts  --      5.7552                 6.1812                 6.1828
 IR Inten    --     33.1692                70.5653                33.6476

                     82                     83                     84
                      A                      A                      A
 Frequencies --   3159.3836              3170.3138              3171.4023
 Red. masses --      1.1048                 1.1064                 1.0991
 Frc consts  --      6.4972                 6.5521                 6.5131
 IR Inten    --      4.4504                11.4296                14.6284

                     85                     86                     87
                      A                      A                      A
 Frequencies --   3184.9523              3187.2688              3193.1392
 Red. masses --      1.0956                 1.0853                 1.0878
 Frc consts  --      6.5479                 6.4957                 6.5345
 IR Inten    --     15.1168                 9.9990                 1.7937

                     88                     89                     90
                      A                      A                      A
 Frequencies --   3204.2862              3211.3722              3218.5216
 Red. masses --      1.0923                 1.0933                 1.0900
 Frc consts  --      6.6077                 6.6428                 6.6528
 IR Inten    --     27.4390                68.6470                 6.5113

                     91                     92                     93
                      A                      A                      A
 Frequencies --   3220.0524              3523.1103              3604.5503
 Red. masses --      1.0977                 1.0506                 1.0963
 Frc consts  --      6.7060                 7.6829                 8.3925
 IR Inten    --     13.3232                48.5487                53.7403

 - Thermochemistry -
 -------------------
 Temperature   298.150 Kelvin.  Pressure   1.00000 Atm.
 Atom     1 has atomic number  6 and mass  12.00000

 Molecular mass:   240.10294 amu.
 Principal axes and moments of inertia in atomic units:
                           1         2         3
     Eigenvalues --  3695.716933912.768795947.81317
           X            0.99949   0.02887  -0.01350
           Y           -0.02929   0.99906  -0.03196
           Z            0.01256   0.03233   0.99940
 This molecule is an asymmetric top.
 Rotational symmetry number  1.
 Warning -- assumption of classical behavior for rotation
           may cause significant error
 Rotational temperatures (Kelvin)      0.02344     0.02214     0.01456
 Rotational constants (GHZ):           0.48833     0.46124     0.30343
    1 imaginary frequencies ignored.
 Zero-point vibrational energy     726952.3 (Joules/Mol)
                                  173.74576 (Kcal/Mol)
 Warning -- explicit consideration of  24 degrees of freedom as
           vibrations may cause significant error
 Vibrational temperatures:     61.32    74.56   105.86   110.97   124.86
          (Kelvin)            157.86   186.13   195.36   220.63   233.48
                              263.43   301.38   333.09   354.64   405.58
                              469.20   478.11   516.62   577.47   610.86
                              646.21   710.32   775.07   861.37   919.61
                              939.21  1012.04  1041.16  1058.11  1094.65
                             1153.50  1170.96  1246.85  1341.11  1348.08
                             1437.49  1449.01  1462.21  1470.43  1490.43
                             1506.78  1538.28  1559.13  1566.53  1611.49
                             1631.40  1679.21  1688.98  1699.67  1709.98
                             1747.82  1753.86  1773.34  1875.66  1885.98
                             1926.70  1943.03  1976.29  2026.96  2049.87
                             2081.54  2091.01  2123.12  2136.25  2146.31
                             2149.04  2153.30  2155.08  2161.28  2202.26
                             2224.59  2328.80  2358.89  2373.47  2403.50
                             4348.48  4364.19  4425.32  4437.66  4458.42
                             4545.65  4561.37  4562.94  4582.44  4585.77
                             4594.22  4610.25  4620.45  4630.73  4632.94
                             5068.97  5186.14

 Zero-point correction=                           0.276881 (Hartree/Particle)
 Thermal correction to Energy=                    0.293758
 Thermal correction to Enthalpy=                  0.294702
 Thermal correction to Gibbs Free Energy=         0.231709
 Sum of electronic and zero-point Energies=          -1112.169661
 Sum of electronic and thermal Energies=             -1112.152785
 Sum of electronic and thermal Enthalpies=           -1112.151841
 Sum of electronic and thermal Free Energies=        -1112.214834

                     E (Thermal)             CV                S
                      KCal/Mol        Cal/Mol-Kelvin    Cal/Mol-Kelvin
 Total                  184.336             61.408            132.580
 Electronic               0.000              0.000              0.000
 Translational            0.889              2.981             42.329
 Rotational               0.889              2.981             32.820
 Vibrational            182.558             55.446             57.432
 Vibration     1          0.595              1.980              5.133
 Vibration     2          0.596              1.977              4.747
 Vibration     3          0.599              1.966              4.055
 Vibration     4          0.599              1.964              3.963
 Vibration     5          0.601              1.958              3.731
 Vibration     6          0.606              1.941              3.274
 Vibration     7          0.612              1.924              2.955
 Vibration     8          0.614              1.918              2.863
 Vibration     9          0.619              1.899              2.630
 Vibration    10          0.622              1.889              2.523
 Vibration    11          0.631              1.863              2.297
 Vibration    12          0.642              1.826              2.048
 Vibration    13          0.653              1.793              1.867
 Vibration    14          0.661              1.769              1.756
 Vibration    15          0.681              1.707              1.522
 Vibration    16          0.710              1.623              1.279
 Vibration    17          0.714              1.611              1.249
 Vibration    18          0.734              1.557              1.126
 Vibration    19          0.767              1.467              0.958
 Vibration    20          0.787              1.417              0.877
 Vibration    21          0.808              1.363              0.798
 Vibration    22          0.849              1.264              0.674
 Vibration    23          0.894              1.164              0.568
 Vibration    24          0.957              1.035              0.452

 Optimization completed.
    -- Stationary point found.
 Normal termination of Gaussian 16 at Fri Feb 26 05:22:46 2021.
