 Gaussian 16, Revision A.03,
 Gaussian 16:  ES64L-G16RevA.03 25-Dec-2016

 ----------------------------------------------------------------------
 # wB97XD def2tzvp, opt=(ts, noeigen, calcfc, maxcycles=70, maxstep=8),
  freq=noraman, scrf=(iefpcm, solvent=water)
 ----------------------------------------------------------------------

 ------------------------
 1_iteration/TS-882-1.out
 ------------------------
 Symbolic Z-matrix:
 Charge =  0 Multiplicity = 1

 SCF Done:  E(RwB97XD) =  -1057.08882238     A.U. after   15 cycles
 SCF Done:  E(RwB97XD) =  -1057.08882237     A.U. after    7 cycles
 Optimization completed.
    -- Stationary point found.
 Normal termination of Gaussian 16 at Thu Feb 25 20:05:31 2021.

 ---------------------------------------------------------------------
 #N Geom=AllCheck Guess=TCheck SCRF=Check GenChk RwB97XD/def2TZVP Freq
 ---------------------------------------------------------------------

 Structure from the checkpoint file:  "/beegfs/scratch/user/q/tla25/Gau-90511.chk"
 ------------------------
 1_iteration/TS-882-1.out
 ------------------------
 Charge =  0 Multiplicity = 1

                         Standard orientation:
 ---------------------------------------------------------------------
 Center     Atomic      Atomic             Coordinates (Angstroms)
 Number     Number       Type             X           Y           Z
 ---------------------------------------------------------------------
      1          6           0       -0.417203    0.508614   -0.335743
      2          6           0       -0.809090    1.890053   -0.386277
      3          8           0       -1.964849    2.310158   -0.535912
      4          6           0       -1.351915   -0.533736   -0.424685
      5          6           0       -2.115016   -0.164976    2.259193
      6          1           0       -1.956191   -0.445812    3.299693
      7          1           0       -1.542657    0.738450    2.040083
      8          1           0       -3.171097    0.036955    2.098526
      9          7           0       -1.675210   -1.213566    1.347105
     10          1           0       -0.772831   -1.588283    1.618095
     11          1           0       -2.329359   -1.986793    1.302454
     12         17           0       -0.712318   -2.091552   -1.072607
     13          6           0       -2.770724   -0.343827   -0.877337
     14          1           0       -3.260468    0.416605   -0.277681
     15          1           0       -2.769570    0.006273   -1.909685
     16          1           0       -3.317135   -1.283803   -0.825754
     17          6           0        1.020162    0.178384   -0.087042
     18          6           0        1.913219    0.004919   -1.144249
     19          6           0        3.247799   -0.291716   -0.916565
     20          6           0        3.720759   -0.423917    0.382563
     21          6           0        2.849469   -0.250555    1.446826
     22          6           0        1.514660    0.050709    1.210018
     23          1           0        1.548382    0.105481   -2.159562
     24          1           0        3.921652   -0.420887   -1.754646
     25          1           0        4.762738   -0.656813    0.562687
     26          1           0        3.208075   -0.343877    2.464464
     27          1           0        0.850974    0.210396    2.052409
     28          6           0        0.303986    2.919301   -0.254471
     29          1           0       -0.121186    3.913440   -0.375593
     30          1           0        0.782965    2.847917    0.724063
     31          1           0        1.083749    2.761316   -1.001056
 ---------------------------------------------------------------------

 SCF Done:  E(RwB97XD) =  -1057.08882237     A.U. after    1 cycles

 The electronic state is 1-A.
 Alpha  occ. eigenvalues -- -101.69312 -19.19846 -14.48943 -10.40304 -10.35132
 Alpha  occ. eigenvalues --  -10.31843 -10.29663 -10.28853 -10.28792 -10.28728
 Alpha  occ. eigenvalues --  -10.28679 -10.28449 -10.28280 -10.26695 -10.26276
 Alpha  occ. eigenvalues --   -9.57926  -7.32535  -7.31732  -7.31681  -1.10644
 Alpha  occ. eigenvalues --   -1.04749  -0.97636  -0.95879  -0.88643  -0.85136
 Alpha  occ. eigenvalues --   -0.84802  -0.82538  -0.79222  -0.78903  -0.70174
 Alpha  occ. eigenvalues --   -0.69581  -0.68004  -0.63640  -0.61804  -0.59013
 Alpha  occ. eigenvalues --   -0.58221  -0.56149  -0.55600  -0.54208  -0.53890
 Alpha  occ. eigenvalues --   -0.52543  -0.50967  -0.50457  -0.49807  -0.49559
 Alpha  occ. eigenvalues --   -0.48916  -0.47566  -0.47017  -0.46113  -0.45553
 Alpha  occ. eigenvalues --   -0.44283  -0.42888  -0.42190  -0.42018  -0.39549
 Alpha  occ. eigenvalues --   -0.38650  -0.33654  -0.33375  -0.30852  -0.27904
 Alpha virt. eigenvalues --    0.04509   0.05223   0.05494   0.08374   0.10110
 Alpha virt. eigenvalues --    0.12783   0.13669   0.13846   0.14516   0.15083
 Alpha virt. eigenvalues --    0.16334   0.17016   0.17922   0.18400   0.19442

 Mulliken charges:
               1
     1  C   -0.279496
     2  C    0.255912
     3  O   -0.522581
     4  C    0.163428
     5  C   -0.321195
     6  H    0.165471
     7  H    0.156157
     8  H    0.167703
     9  N   -0.322046
    10  H    0.283958
    11  H    0.290878
    12  Cl  -0.132380
    13  C   -0.344983
    14  H    0.150585
    15  H    0.146272
    16  H    0.140876
    17  C    0.228404
    18  C   -0.250334
    19  C   -0.135997
    20  C   -0.144473
    21  C   -0.158891
    22  C   -0.301829
    23  H    0.138325
    24  H    0.139175
    25  H    0.142089
    26  H    0.139299
    27  H    0.168018
    28  C   -0.355776
    29  H    0.120731
    30  H    0.137332
    31  H    0.135365
 Sum of Mulliken charges =  -0.00000

 Dipole moment (field-independent basis, Debye):
    X=             -0.2515    Y=             -5.1465    Z=              5.5006  Tot=              7.5370
 Quadrupole moment (field-independent basis, Debye-Ang):
   XX=            -90.2339   YY=           -107.4830   ZZ=            -86.2274
   XY=             13.9520   XZ=             -9.0576   YZ=             -3.3684

  Exact polarizability: 250.452  -7.429 223.213  -4.433  -6.371 221.908
 Approx polarizability: 199.199 -10.182 180.151  -3.316  -3.705 189.717

 ******    1 imaginary frequencies (negative Signs) ******

                      1                      2                      3
                      A                      A                      A
 Frequencies --   -368.1772                39.7687                54.0988
 Red. masses --      5.7154                 3.7216                 4.1158
 Frc consts  --      0.4565                 0.0035                 0.0071
 IR Inten    --    726.5594                 1.9681                 4.2376

                      4                      5                      6
                      A                      A                      A
 Frequencies --     71.5725                76.5611                86.4379
 Red. masses --      3.1884                 5.3609                 3.5197
 Frc consts  --      0.0096                 0.0185                 0.0155
 IR Inten    --      6.8744                 2.9492                 1.7148

                      7                      8                      9
                      A                      A                      A
 Frequencies --    130.5675               137.9715               174.7103
 Red. masses --      2.1494                 1.2368                 2.1286
 Frc consts  --      0.0216                 0.0139                 0.0383
 IR Inten    --      3.6392                 1.5121                 5.4815

                     10                     11                     12
                      A                      A                      A
 Frequencies --    180.0610               197.0726               238.4425
 Red. masses --      2.4320                 1.8873                 3.4358
 Frc consts  --      0.0465                 0.0432                 0.1151
 IR Inten    --      3.3412                 0.3769                17.5016

                     13                     14                     15
                      A                      A                      A
 Frequencies --    268.5087               276.9235               297.6177
 Red. masses --      3.0055                 1.4485                 3.2642
 Frc consts  --      0.1277                 0.0654                 0.1704
 IR Inten    --      5.0537                10.0861                26.6858

                     16                     17                     18
                      A                      A                      A
 Frequencies --    345.6760               356.6252               380.0207
 Red. masses --      5.2775                 2.5530                 4.3568
 Frc consts  --      0.3716                 0.1913                 0.3707
 IR Inten    --     26.3959                 2.8287                 2.3666

                     19                     20                     21
                      A                      A                      A
 Frequencies --    391.5652               426.6008               458.8015
 Red. masses --      3.9778                 2.8990                 3.3088
 Frc consts  --      0.3593                 0.3108                 0.4104
 IR Inten    --     30.6483                 0.0711                10.1127

                     22                     23                     24
                      A                      A                      A
 Frequencies --    525.8607               560.0368               589.9084
 Red. masses --      3.6251                 3.6070                 3.5216
 Frc consts  --      0.5906                 0.6665                 0.7220
 IR Inten    --     23.9667                12.1037               133.4786

                     25                     26                     27
                      A                      A                      A
 Frequencies --    630.6368               659.4991               675.5674
 Red. masses --      4.6361                 2.4208                 2.9513
 Frc consts  --      1.0863                 0.6203                 0.7936
 IR Inten    --     15.3077                57.4609                 5.7681

                     28                     29                     30
                      A                      A                      A
 Frequencies --    708.9357               732.7238               761.2420
 Red. masses --      2.9018                 1.5074                 3.2717
 Frc consts  --      0.8593                 0.4768                 1.1170
 IR Inten    --     36.6567               100.1341               135.8628

                     31                     32                     33
                      A                      A                      A
 Frequencies --    798.0558               883.0126               955.0650
 Red. masses --      2.3175                 1.2448                 1.4491
 Frc consts  --      0.8696                 0.5718                 0.7788
 IR Inten    --      0.1718                 0.0970                 5.8518

                     34                     35                     36
                      A                      A                      A
 Frequencies --    970.1745               976.5784              1001.3752
 Red. masses --      2.4311                 3.0747                 1.0983
 Frc consts  --      1.3482                 1.7277                 0.6489
 IR Inten    --     29.1993                26.8751                26.2164

                     37                     38                     39
                      A                      A                      A
 Frequencies --   1014.9632              1027.0681              1028.2940
 Red. masses --      1.3894                 3.5510                 1.4939
 Frc consts  --      0.8433                 2.2070                 0.9307
 IR Inten    --      0.6324                 0.8375                 1.8233

                     40                     41                     42
                      A                      A                      A
 Frequencies --   1036.5373              1041.4815              1056.8966
 Red. masses --      1.4924                 1.3322                 1.7725
 Frc consts  --      0.9447                 0.8514                 1.1665
 IR Inten    --      5.3165                32.1096               122.9700

                     43                     44                     45
                      A                      A                      A
 Frequencies --   1059.2687              1069.8869              1084.0429
 Red. masses --      1.8930                 1.6606                 3.7976
 Frc consts  --      1.2514                 1.1199                 2.6294
 IR Inten    --     40.3893                27.7776                 2.1688

                     46                     47                     48
                      A                      A                      A
 Frequencies --   1109.6256              1130.9567              1181.8428
 Red. masses --      1.5577                 2.7998                 1.1336
 Frc consts  --      1.1300                 2.1099                 0.9329
 IR Inten    --     20.4282                76.9428                 0.0436

                     49                     50                     51
                      A                      A                      A
 Frequencies --   1207.2809              1218.8075              1241.8958
 Red. masses --      1.1240                 1.3932                 3.6059
 Frc consts  --      0.9652                 1.2194                 3.2767
 IR Inten    --      0.1108                32.9807                 2.7988

                     52                     53                     54
                      A                      A                      A
 Frequencies --   1306.0867              1337.1392              1347.4213
 Red. masses --      4.5672                 1.3372                 3.0684
 Frc consts  --      4.5904                 1.4087                 3.2822
 IR Inten    --      1.4680                 0.5265               527.6483

                     55                     56                     57
                      A                      A                      A
 Frequencies --   1356.6964              1385.1085              1397.2157
 Red. masses --      1.4545                 1.9781                 1.7970
 Frc consts  --      1.5773                 2.2359                 2.0669
 IR Inten    --      3.3240                53.4927               717.0520

                     58                     59                     60
                      A                      A                      A
 Frequencies --   1431.1453              1454.2877              1458.3128
 Red. masses --      1.5960                 1.2574                 1.0907
 Frc consts  --      1.9260                 1.5668                 1.3666
 IR Inten    --    208.6530                60.9710                66.0996

                     61                     62                     63
                      A                      A                      A
 Frequencies --   1460.3454              1471.6949              1482.4097
 Red. masses --      1.0568                 1.0561                 1.0813
 Frc consts  --      1.3278                 1.3476                 1.4000
 IR Inten    --     17.6018                17.5126                18.9039

                     64                     65                     66
                      A                      A                      A
 Frequencies --   1486.5738              1495.5448              1502.5305
 Red. masses --      2.1441                 1.0444                 1.0382
 Frc consts  --      2.7916                 1.3763                 1.3809
 IR Inten    --      7.8310                15.6615                15.1878

                     67                     68                     69
                      A                      A                      A
 Frequencies --   1544.0537              1644.5599              1649.6138
 Red. masses --      2.4322                 5.3881                 1.2302
 Frc consts  --      3.4165                 8.5858                 1.9723
 IR Inten    --     27.4898                 7.4423               201.5954

                     70                     71                     72
                      A                      A                      A
 Frequencies --   1652.9972              1673.1859              3060.8096
 Red. masses --      4.7153                 6.0052                 1.0363
 Frc consts  --      7.5910                 9.9053                 5.7204
 IR Inten    --    482.0502                 6.3950                11.8778

                     73                     74                     75
                      A                      A                      A
 Frequencies --   3063.8134              3080.6819              3130.8654
 Red. masses --      1.0353                 1.0375                 1.0997
 Frc consts  --      5.7259                 5.8014                 6.3513
 IR Inten    --     34.6352                15.6831                13.6255

                     76                     77                     78
                      A                      A                      A
 Frequencies --   3139.0731              3153.9983              3162.5749
 Red. masses --      1.1030                 1.1028                 1.1040
 Frc consts  --      6.4038                 6.4637                 6.5058
 IR Inten    --      8.3567                18.3392                37.9798

                     79                     80                     81
                      A                      A                      A
 Frequencies --   3173.0921              3184.9988              3189.7590
 Red. masses --      1.1048                 1.0870                 1.0873
 Frc consts  --      6.5542                 6.4968                 6.5180
 IR Inten    --     12.4173                11.7188                 2.4448

                     82                     83                     84
                      A                      A                      A
 Frequencies --   3193.9195              3199.4187              3207.4656
 Red. masses --      1.1007                 1.0909                 1.0949
 Frc consts  --      6.6155                 6.5791                 6.6368
 IR Inten    --      1.5085                12.7551                45.9880

                     85                     86                     87
                      A                      A                      A
 Frequencies --   3218.8041              3520.5141              3603.0041
 Red. masses --      1.0988                 1.0509                 1.0965
 Frc consts  --      6.7074                 7.6738                 8.3863
 IR Inten    --     19.5258                45.4986                61.9191

 - Thermochemistry -
 -------------------
 Temperature   298.150 Kelvin.  Pressure   1.00000 Atm.
 Atom     1 has atomic number  6 and mass  12.00000

 Molecular mass:   225.09204 amu.
 Principal axes and moments of inertia in atomic units:
                           1         2         3
     Eigenvalues --  2581.175204079.518884769.55679
           X            0.99975   0.01307  -0.01790
           Y           -0.01385   0.99893  -0.04422
           Z            0.01731   0.04446   0.99886
 This molecule is an asymmetric top.
 Rotational symmetry number  1.
 Warning -- assumption of classical behavior for rotation
           may cause significant error
 Rotational temperatures (Kelvin)      0.03356     0.02123     0.01816
 Rotational constants (GHZ):           0.69919     0.44239     0.37839
    1 imaginary frequencies ignored.
 Zero-point vibrational energy     677964.7 (Joules/Mol)
                                  162.03744 (Kcal/Mol)
 Warning -- explicit consideration of  23 degrees of freedom as
           vibrations may cause significant error
 Vibrational temperatures:     57.22    77.84   102.98   110.15   124.36
          (Kelvin)            187.86   198.51   251.37   259.07   283.54
                              343.07   386.32   398.43   428.21   497.35
                              513.10   546.76   563.38   613.78   660.11
                              756.60   805.77   848.75   907.35   948.87
                              971.99  1020.00  1054.23  1095.26  1148.22
                             1270.46  1374.13  1395.86  1405.08  1440.76
                             1460.31  1477.72  1479.49  1491.35  1498.46
                             1520.64  1524.05  1539.33  1559.70  1596.50
                             1627.19  1700.41  1737.01  1753.59  1786.81
                             1879.17  1923.85  1938.64  1951.98  1992.86
                             2010.28  2059.10  2092.40  2098.19  2101.11
                             2117.44  2132.86  2138.85  2151.76  2161.81
                             2221.55  2366.15  2373.43  2378.29  2407.34
                             4403.82  4408.14  4432.41  4504.62  4516.43
                             4537.90  4550.24  4565.37  4582.50  4589.35
                             4595.34  4603.25  4614.83  4631.14  5065.23
                             5183.92

 Zero-point correction=                           0.258223 (Hartree/Particle)
 Thermal correction to Energy=                    0.273973
 Thermal correction to Enthalpy=                  0.274917
 Thermal correction to Gibbs Free Energy=         0.214700
 Sum of electronic and zero-point Energies=          -1056.830599
 Sum of electronic and thermal Energies=             -1056.814850
 Sum of electronic and thermal Enthalpies=           -1056.813906
 Sum of electronic and thermal Free Energies=        -1056.874123

                     E (Thermal)             CV                S
                      KCal/Mol        Cal/Mol-Kelvin    Cal/Mol-Kelvin
 Total                  171.920             58.260            126.738
 Electronic               0.000              0.000              0.000
 Translational            0.889              2.981             42.136
 Rotational               0.889              2.981             32.285
 Vibrational            170.143             52.298             52.316
 Vibration     1          0.594              1.981              5.271
 Vibration     2          0.596              1.976              4.662
 Vibration     3          0.598              1.968              4.110
 Vibration     4          0.599              1.965              3.977
 Vibration     5          0.601              1.959              3.739
 Vibration     6          0.612              1.923              2.938
 Vibration     7          0.614              1.915              2.832
 Vibration     8          0.627              1.874              2.384
 Vibration     9          0.629              1.867              2.328
 Vibration    10          0.636              1.844              2.160
 Vibration    11          0.656              1.782              1.814
 Vibration    12          0.673              1.731              1.606
 Vibration    13          0.678              1.716              1.553
 Vibration    14          0.691              1.678              1.430
 Vibration    15          0.724              1.584              1.186
 Vibration    16          0.732              1.562              1.137
 Vibration    17          0.750              1.513              1.039
 Vibration    18          0.759              1.488              0.994
 Vibration    19          0.788              1.412              0.870
 Vibration    20          0.817              1.341              0.770
 Vibration    21          0.881              1.193              0.597
 Vibration    22          0.916              1.118              0.524
 Vibration    23          0.947              1.053              0.467

 Optimization completed.
    -- Stationary point found.
 Normal termination of Gaussian 16 at Thu Feb 25 21:15:47 2021.
