 Gaussian 16, Revision A.03,
 Gaussian 16:  ES64L-G16RevA.03 25-Dec-2016

 ----------------------------------------------------------------------
 # wB97XD def2tzvp, opt=(ts, noeigen, calcfc, maxcycles=70, maxstep=3),
  freq=noraman, scrf=(iefpcm, solvent=water)
 ----------------------------------------------------------------------

 -----------------------
 0_iteration/TS-82-0.out
 -----------------------
 Symbolic Z-matrix:
 Charge =  0 Multiplicity = 1

 SCF Done:  E(RwB97XD) =  -828.530614536     A.U. after   15 cycles
 Optimization completed.
    -- Stationary point found.
 Normal termination of Gaussian 16 at Mon Apr 12 15:59:17 2021.

 ---------------------------------------------------------------------
 #N Geom=AllCheck Guess=TCheck SCRF=Check GenChk RwB97XD/def2TZVP Freq
 ---------------------------------------------------------------------

 Structure from the checkpoint file:  "/beegfs/scratch/user/q/tla25/Gau-154929.chk"
 -----------------------
 0_iteration/TS-82-0.out
 -----------------------
 Charge =  0 Multiplicity = 1

                         Standard orientation:
 ---------------------------------------------------------------------
 Center     Atomic      Atomic             Coordinates (Angstroms)
 Number     Number       Type             X           Y           Z
 ---------------------------------------------------------------------
      1          6           0        0.819332    0.922478   -0.348701
      2          6           0        1.653885    2.081136   -0.353301
      3          8           0        1.227327    3.247357   -0.218301
      4          6           0       -0.593158    1.055531   -0.445201
      5          6           0       -2.452905    2.434206    1.524999
      6          1           0       -2.542783    2.929906    2.494099
      7          1           0       -2.831473    3.106117    0.757299
      8          1           0       -3.064737    1.531628    1.533099
      9          7           0       -1.075115    2.076853    1.218999
     10          1           0       -0.476383    2.877321    1.029799
     11          1           0       -0.649547    1.536832    1.960599
     12          6           0       -1.435411   -0.174936   -0.254601
     13          6           0       -1.349543   -0.930737    0.915099
     14          6           0       -2.115586   -2.068505    1.090699
     15          6           0       -2.982207   -2.487573    0.089299
     16          6           0       -3.079075   -1.748472   -1.077401
     17          6           0       -2.320122   -0.597004   -1.242201
     18          1           0       -0.663832   -0.636468    1.698299
     19          1           0       -2.032607   -2.633415    2.010499
     20          1           0       -3.578039   -3.381751    0.221699
     21          1           0       -3.750486   -2.062241   -1.866601
     22          1           0       -2.415601   -0.039094   -2.163201
     23          6           0       -1.179616    2.058553   -1.414101
     24          1           0       -1.045636    1.672053   -2.426601
     25          1           0       -2.246715    2.204396   -1.251901
     26          1           0       -0.663283    3.008932   -1.348201
     27          6           0        1.444578   -0.411454   -0.121401
     28          6           0        2.170368   -0.687385    1.037899
     29          6           0        2.749115   -1.929907    1.250499
     30          6           0        2.608482   -2.935097    0.304099
     31          6           0        1.892293   -2.679975   -0.857601
     32          6           0        1.325636   -1.432143   -1.066501
     33          1           0        2.269300    0.084314    1.792799
     34          1           0        3.303514   -2.116628    2.162199
     35          1           0        3.053840   -3.908118    0.469499
     36          1           0        1.779461   -3.454464   -1.606501
     37          1           0        0.770746   -1.241022   -1.977501
     38          6           0        3.157274    1.916982   -0.489201
     39          1           0        3.445932    0.996171   -0.992901
     40          1           0        3.544306    2.775761   -1.037301
     41          1           0        3.621174    1.918761    0.499999
 ---------------------------------------------------------------------

 SCF Done:  E(RwB97XD) =  -828.530614536     A.U. after    1 cycles

 The electronic state is 1-A.
 Alpha  occ. eigenvalues --  -19.19943 -14.46246 -10.35312 -10.34622 -10.31137
 Alpha  occ. eigenvalues --  -10.30381 -10.29276 -10.29259 -10.29239 -10.29200
 Alpha  occ. eigenvalues --  -10.29137 -10.29110 -10.28521 -10.28488 -10.28397
 Alpha  occ. eigenvalues --  -10.28076 -10.28063 -10.27209 -10.26634 -10.25659
 Alpha  occ. eigenvalues --   -1.10396  -1.02153  -0.97503  -0.96041  -0.91585
 Alpha  occ. eigenvalues --   -0.86857  -0.85397  -0.84436  -0.83583  -0.82240
 Alpha  occ. eigenvalues --   -0.78818  -0.77450  -0.72745  -0.70503  -0.69692
 Alpha  occ. eigenvalues --   -0.68804  -0.66398  -0.62633  -0.61614  -0.60726
 Alpha  occ. eigenvalues --   -0.58192  -0.56134  -0.55815  -0.55011  -0.54929
 Alpha  occ. eigenvalues --   -0.54001  -0.53258  -0.52427  -0.51858  -0.51155
 Alpha  occ. eigenvalues --   -0.50742  -0.50053  -0.49516  -0.48681  -0.47618
 Alpha  occ. eigenvalues --   -0.47268  -0.46727  -0.46495  -0.45975  -0.45118
 Alpha  occ. eigenvalues --   -0.43240  -0.42719  -0.42531  -0.41613  -0.41449
 Alpha  occ. eigenvalues --   -0.39552  -0.34614  -0.33918  -0.33234  -0.32437
 Alpha  occ. eigenvalues --   -0.31220  -0.26363
 Alpha virt. eigenvalues --    0.01536   0.04550   0.05707   0.05971   0.07261
 Alpha virt. eigenvalues --    0.10321   0.12355   0.13040   0.13486   0.14269
 Alpha virt. eigenvalues --    0.14884   0.15540   0.15913   0.16644   0.17004

 Mulliken charges:
               1
     1  C   -0.220958
     2  C    0.300891
     3  O   -0.571034
     4  C    0.243493
     5  C   -0.287637
     6  H    0.146592
     7  H    0.151476
     8  H    0.148179
     9  N   -0.347395
    10  H    0.269699
    11  H    0.258842
    12  C    0.158667
    13  C   -0.287891
    14  C   -0.164260
    15  C   -0.131287
    16  C   -0.158538
    17  C   -0.227353
    18  H    0.165786
    19  H    0.141845
    20  H    0.144360
    21  H    0.142093
    22  H    0.152501
    23  C   -0.438354
    24  H    0.146553
    25  H    0.149338
    26  H    0.167482
    27  C    0.181669
    28  C   -0.279932
    29  C   -0.150871
    30  C   -0.135350
    31  C   -0.178344
    32  C   -0.200493
    33  H    0.150010
    34  H    0.136021
    35  H    0.139454
    36  H    0.134756
    37  H    0.139472
    38  C   -0.396947
    39  H    0.136724
    40  H    0.131334
    41  H    0.139407
 Sum of Mulliken charges =  -0.00000

 Dipole moment (field-independent basis, Debye):
    X=             -4.7587    Y=             -2.2542    Z=              2.7995  Tot=              5.9635
 Quadrupole moment (field-independent basis, Debye-Ang):
   XX=           -115.3035   YY=           -126.9593   ZZ=           -107.6104
   XY=             -9.4126   XZ=              3.2432   YZ=              5.4343

  Exact polarizability: 322.997  13.351 342.918  16.943  -0.568 283.485
 Approx polarizability: 240.680   8.194 271.906  19.370   0.384 246.162

 ******    1 imaginary frequencies (negative Signs) ******

                      1                      2                      3
                      A                      A                      A
 Frequencies --   -351.0591                35.1364                43.8151
 Red. masses --      5.6284                 4.1555                 4.4334
 Frc consts  --      0.4087                 0.0030                 0.0050
 IR Inten    --    655.7880                 2.6285                 0.2611

                      4                      5                      6
                      A                      A                      A
 Frequencies --     60.2435                67.1144                76.1710
 Red. masses --      3.5738                 3.1421                 3.2696
 Frc consts  --      0.0076                 0.0083                 0.0112
 IR Inten    --      3.6914                 0.8628                 0.9669

                      7                      8                      9
                      A                      A                      A
 Frequencies --     95.0369               106.2154               121.1513
 Red. masses --      3.2843                 3.0752                 1.7888
 Frc consts  --      0.0175                 0.0204                 0.0155
 IR Inten    --      6.6861                 4.5391                 9.9361

                     10                     11                     12
                      A                      A                      A
 Frequencies --    125.3756               141.3500               193.7129
 Red. masses --      1.4097                 2.2334                 1.6858
 Frc consts  --      0.0131                 0.0263                 0.0373
 IR Inten    --      3.8099                 0.1235                 7.6838

                     13                     14                     15
                      A                      A                      A
 Frequencies --    204.1861               229.9012               268.6827
 Red. masses --      4.2253                 3.4659                 3.0864
 Frc consts  --      0.1038                 0.1079                 0.1313
 IR Inten    --      7.8809                 0.8326                 9.1561

                     16                     17                     18
                      A                      A                      A
 Frequencies --    273.8755               288.1373               312.2876
 Red. masses --      3.2320                 3.3409                 1.2036
 Frc consts  --      0.1428                 0.1634                 0.0692
 IR Inten    --     35.5145                 1.8939                 6.4705

                     19                     20                     21
                      A                      A                      A
 Frequencies --    321.4300               350.3740               393.5324
 Red. masses --      3.9207                 3.2208                 4.8974
 Frc consts  --      0.2387                 0.2330                 0.4469
 IR Inten    --      7.6914                 6.0004                33.0647

                     22                     23                     24
                      A                      A                      A
 Frequencies --    417.4540               424.0120               428.1877
 Red. masses --      3.2957                 2.9286                 3.0189
 Frc consts  --      0.3384                 0.3102                 0.3261
 IR Inten    --     22.9182                 2.9962                 7.3805

                     25                     26                     27
                      A                      A                      A
 Frequencies --    454.6915               505.8651               527.2835
 Red. masses --      3.7507                 3.7168                 3.9692
 Frc consts  --      0.4569                 0.5604                 0.6502
 IR Inten    --      1.3003                38.2086                 4.4953

                     28                     29                     30
                      A                      A                      A
 Frequencies --    569.3172               594.5120               634.2825
 Red. masses --      3.2233                 3.1223                 4.8843
 Frc consts  --      0.6155                 0.6502                 1.1578
 IR Inten    --     46.8172               104.3668                13.8912

                     31                     32                     33
                      A                      A                      A
 Frequencies --    638.1908               643.2222               664.9047
 Red. masses --      5.3832                 2.4757                 2.0020
 Frc consts  --      1.2918                 0.6035                 0.5215
 IR Inten    --      2.7034                19.7998                18.4542

                     34                     35                     36
                      A                      A                      A
 Frequencies --    686.2194               702.0277               728.2683
 Red. masses --      3.0553                 5.2956                 1.5623
 Frc consts  --      0.8477                 1.5377                 0.4882
 IR Inten    --     73.6554                 9.9378                38.5016

                     37                     38                     39
                      A                      A                      A
 Frequencies --    729.7110               786.9179               800.2851
 Red. masses --      1.5225                 2.6784                 2.1818
 Frc consts  --      0.4777                 0.9772                 0.8233
 IR Inten    --    175.8080                11.6068                 9.0537

                     40                     41                     42
                      A                      A                      A
 Frequencies --    823.8143               878.1193               880.0876
 Red. masses --      2.9017                 1.2478                 1.2465
 Frc consts  --      1.1603                 0.5669                 0.5688
 IR Inten    --     16.1302                 1.6380                 1.6758

                     43                     44                     45
                      A                      A                      A
 Frequencies --    950.7376               963.5310               978.7740
 Red. masses --      1.4622                 1.4345                 2.4221
 Frc consts  --      0.7787                 0.7847                 1.3671
 IR Inten    --      2.5817                14.2279                70.9052

                     46                     47                     48
                      A                      A                      A
 Frequencies --    986.6085              1005.1549              1012.1663
 Red. masses --      2.2582                 1.3496                 1.3824
 Frc consts  --      1.2951                 0.8034                 0.8344
 IR Inten    --     36.6858                37.1481                 1.1420

                     49                     50                     51
                      A                      A                      A
 Frequencies --   1015.2085              1017.6506              1024.2751
 Red. masses --      1.1545                 1.3722                 1.3263
 Frc consts  --      0.7011                 0.8373                 0.8199
 IR Inten    --    194.0342                 1.8210                 7.7102

                     52                     53                     54
                      A                      A                      A
 Frequencies --   1026.3799              1027.1534              1030.1709
 Red. masses --      5.5637                 4.4506                 1.5447
 Frc consts  --      3.4533                 2.7666                 0.9658
 IR Inten    --      0.4333                 0.3521                60.6241

                     55                     56                     57
                      A                      A                      A
 Frequencies --   1032.8504              1044.1844              1060.1573
 Red. masses --      1.3346                 1.7634                 2.4014
 Frc consts  --      0.8388                 1.1328                 1.5902
 IR Inten    --      1.8876                 3.9296                22.1323

                     58                     59                     60
                      A                      A                      A
 Frequencies --   1063.0984              1071.6964              1089.8637
 Red. masses --      2.0704                 1.6672                 3.8798
 Frc consts  --      1.3786                 1.1282                 2.7152
 IR Inten    --     24.5191                18.9628                70.4398

                     61                     62                     63
                      A                      A                      A
 Frequencies --   1108.9806              1121.0853              1125.3648
 Red. masses --      1.5623                 1.7907                 1.9621
 Frc consts  --      1.1321                 1.3260                 1.4640
 IR Inten    --     18.1918                 8.3775                 6.0816

                     64                     65                     66
                      A                      A                      A
 Frequencies --   1180.3416              1184.7597              1190.6055
 Red. masses --      1.1305                 1.1387                 1.3911
 Frc consts  --      0.9280                 0.9417                 1.1618
 IR Inten    --      0.5191                 2.2527                33.6192

                     67                     68                     69
                      A                      A                      A
 Frequencies --   1207.4362              1218.1158              1227.8627
 Red. masses --      1.1263                 1.1422                 3.3817
 Frc consts  --      0.9674                 0.9985                 3.0039
 IR Inten    --      1.0005                 3.1996                 8.8320

                     70                     71                     72
                      A                      A                      A
 Frequencies --   1295.5750              1307.0003              1321.7028
 Red. masses --      3.8586                 4.5073                 4.4812
 Frc consts  --      3.8159                 4.5365                 4.6122
 IR Inten    --    154.8277                 4.3231                38.4088

                     73                     74                     75
                      A                      A                      A
 Frequencies --   1334.2716              1355.5086              1362.4392
 Red. masses --      1.3699                 1.6791                 1.7667
 Frc consts  --      1.4369                 1.8177                 1.9322
 IR Inten    --     43.9810                51.9762                 9.8348

                     76                     77                     78
                      A                      A                      A
 Frequencies --   1370.7018              1378.0866              1393.8438
 Red. masses --      1.9485                 2.2852                 1.6597
 Frc consts  --      2.1570                 2.5570                 1.8998
 IR Inten    --     61.7916               508.2616               514.3479

                     79                     80                     81
                      A                      A                      A
 Frequencies --   1413.0822              1459.7546              1465.3970
 Red. masses --      1.4408                 1.1922                 1.1133
 Frc consts  --      1.6951                 1.4967                 1.4086
 IR Inten    --    157.4734                19.6558                55.2652

                     82                     83                     84
                      A                      A                      A
 Frequencies --   1476.0658              1485.8746              1489.0360
 Red. masses --      1.0973                 1.4761                 1.9661
 Frc consts  --      1.4086                 1.9201                 2.5685
 IR Inten    --     42.0569                19.2959                30.3015

                     85                     86                     87
                      A                      A                      A
 Frequencies --   1492.7997              1500.4880              1506.8239
 Red. masses --      1.1980                 1.2855                 1.0583
 Frc consts  --      1.5729                 1.7052                 1.4157
 IR Inten    --      1.1858                61.2653                13.4963

                     88                     89                     90
                      A                      A                      A
 Frequencies --   1508.9602              1542.0059              1546.7472
 Red. masses --      1.0845                 2.4020                 2.3054
 Frc consts  --      1.4550                 3.3650                 3.2497
 IR Inten    --     29.1230                42.3363                 3.7606

                     91                     92                     93
                      A                      A                      A
 Frequencies --   1601.1516              1643.1882              1652.8899
 Red. masses --      7.4657                 5.7506                 5.7094
 Frc consts  --     11.2768                 9.1483                 9.1903
 IR Inten    --    674.6851                 7.8122                 6.4494

                     94                     95                     96
                      A                      A                      A
 Frequencies --   1660.9963              1670.6074              1676.6112
 Red. masses --      1.0968                 5.9437                 5.8134
 Frc consts  --      1.7829                 9.7737                 9.6283
 IR Inten    --     72.3384                14.3799                 0.7483

                     97                     98                     99
                      A                      A                      A
 Frequencies --   3052.6165              3058.4043              3069.6690
 Red. masses --      1.0369                 1.0377                 1.0424
 Frc consts  --      5.6929                 5.7186                 5.7871
 IR Inten    --     78.2048                17.8643                24.6070

                    100                    101                    102
                      A                      A                      A
 Frequencies --   3123.3443              3129.8481              3136.6168
 Red. masses --      1.1020                 1.0983                 1.0984
 Frc consts  --      6.3337                 6.3388                 6.3671
 IR Inten    --     22.4821                22.2915                31.1785

                    103                    104                    105
                      A                      A                      A
 Frequencies --   3158.4401              3159.5150              3183.3760
 Red. masses --      1.1039                 1.1032                 1.0869
 Frc consts  --      6.4883                 6.4884                 6.4894
 IR Inten    --     31.9529                20.7230                12.3819

                    106                    107                    108
                      A                      A                      A
 Frequencies --   3187.6546              3196.0908              3198.2782
 Red. masses --      1.0872                 1.0859                 1.0909
 Frc consts  --      6.5088                 6.5356                 6.5749
 IR Inten    --      2.1698                 0.5479                12.0492

                    109                    110                    111
                      A                      A                      A
 Frequencies --   3203.5574              3204.8316              3204.9577
 Red. masses --      1.0987                 1.0899                 1.0946
 Frc consts  --      6.6434                 6.5956                 6.6246
 IR Inten    --      2.0199                 3.3601                56.7088

                    112                    113                    114
                      A                      A                      A
 Frequencies --   3214.4785              3217.3628              3222.7575
 Red. masses --      1.0929                 1.0986                 1.0957
 Frc consts  --      6.6537                 6.7005                 6.7049
 IR Inten    --     28.1782                23.0518                21.6502

                    115                    116                    117
                      A                      A                      A
 Frequencies --   3229.5649              3477.6170              3602.3587
 Red. masses --      1.0952                 1.0600                 1.0883
 Frc consts  --      6.7303                 7.5528                 8.3212
 IR Inten    --     10.0845                60.6347                39.9763

 - Thermochemistry -
 -------------------
 Temperature   298.150 Kelvin.  Pressure   1.00000 Atm.
 Atom     1 has atomic number  6 and mass  12.00000

 Molecular mass:   267.16231 amu.
 Principal axes and moments of inertia in atomic units:
                           1         2         3
     Eigenvalues --  4575.109304946.824097732.38749
           X            0.99338  -0.11491   0.00047
           Y            0.11490   0.99337   0.00352
           Z           -0.00087  -0.00344   0.99999
 This molecule is an asymmetric top.
 Rotational symmetry number  1.
 Warning -- assumption of classical behavior for rotation
           may cause significant error
 Rotational temperatures (Kelvin)      0.01893     0.01751     0.01120
 Rotational constants (GHZ):           0.39447     0.36483     0.23340
    1 imaginary frequencies ignored.
 Zero-point vibrational energy     917130.6 (Joules/Mol)
                                  219.19948 (Kcal/Mol)
 Warning -- explicit consideration of  28 degrees of freedom as
           vibrations may cause significant error
 Vibrational temperatures:     50.55    63.04    86.68    96.56   109.59
          (Kelvin)            136.74   152.82   174.31   180.39   203.37
                              278.71   293.78   330.78   386.57   394.05
                              414.57   449.31   462.47   504.11   566.21
                              600.62   610.06   616.07   654.20   727.83
                              758.64   819.12   855.37   912.59   918.21
                              925.45   956.65   987.32  1010.06  1047.82
                             1049.89  1132.20  1151.43  1185.29  1263.42
                             1266.25  1367.90  1386.31  1408.24  1419.51
                             1446.19  1456.28  1460.66  1464.17  1473.70
                             1476.73  1477.84  1482.19  1486.04  1502.35
                             1525.33  1529.56  1541.93  1568.07  1595.58
                             1612.99  1619.15  1698.25  1704.60  1713.02
                             1737.23  1752.60  1766.62  1864.04  1880.48
                             1901.64  1919.72  1950.27  1960.25  1972.13
                             1982.76  2005.43  2033.11  2100.26  2108.38
                             2123.73  2137.84  2142.39  2147.81  2158.87
                             2167.98  2171.06  2218.60  2225.42  2303.70
                             2364.18  2378.14  2389.80  2403.63  2412.27
                             4392.03  4400.36  4416.57  4493.80  4503.15
                             4512.89  4544.29  4545.84  4580.17  4586.32
                             4598.46  4601.61  4609.20  4611.04  4611.22
                             4624.92  4629.07  4636.83  4646.62  5003.52
                             5182.99

 Zero-point correction=                           0.349317 (Hartree/Particle)
 Thermal correction to Energy=                    0.368394
 Thermal correction to Enthalpy=                  0.369338
 Thermal correction to Gibbs Free Energy=         0.301658
 Sum of electronic and zero-point Energies=           -828.181298
 Sum of electronic and thermal Energies=              -828.162221
 Sum of electronic and thermal Enthalpies=            -828.161276
 Sum of electronic and thermal Free Energies=         -828.228956

                     E (Thermal)             CV                S
                      KCal/Mol        Cal/Mol-Kelvin    Cal/Mol-Kelvin
 Total                  231.171             73.380            142.444
 Electronic               0.000              0.000              0.000
 Translational            0.889              2.981             42.647
 Rotational               0.889              2.981             33.525
 Vibrational            229.393             67.418             66.272
 Vibration     1          0.594              1.982              5.516
 Vibration     2          0.595              1.980              5.079
 Vibration     3          0.597              1.973              4.449
 Vibration     4          0.598              1.970              4.236
 Vibration     5          0.599              1.965              3.987
 Vibration     6          0.603              1.953              3.554
 Vibration     7          0.605              1.944              3.337
 Vibration     8          0.609              1.932              3.082
 Vibration     9          0.610              1.928              3.016
 Vibration    10          0.615              1.912              2.786
 Vibration    11          0.635              1.849              2.192
 Vibration    12          0.640              1.834              2.095
 Vibration    13          0.652              1.795              1.880
 Vibration    14          0.673              1.731              1.605
 Vibration    15          0.676              1.722              1.572
 Vibration    16          0.685              1.696              1.485
 Vibration    17          0.701              1.650              1.350
 Vibration    18          0.707              1.632              1.303
 Vibration    19          0.727              1.574              1.165
 Vibration    20          0.761              1.484              0.987
 Vibration    21          0.780              1.432              0.901
 Vibration    22          0.786              1.418              0.878
 Vibration    23          0.790              1.409              0.865
 Vibration    24          0.813              1.351              0.782
 Vibration    25          0.861              1.237              0.644
 Vibration    26          0.882              1.190              0.593
 Vibration    27          0.925              1.098              0.506
 Vibration    28          0.952              1.043              0.459

 Optimization completed.
    -- Stationary point found.
 Normal termination of Gaussian 16 at Mon Apr 12 17:19:30 2021.
