 Gaussian 16, Revision A.03,
 Gaussian 16:  ES64L-G16RevA.03 25-Dec-2016

 ----------------------------------------------------------------------
 # wB97XD def2tzvp, opt=(ts, noeigen, calcfc, maxcycles=70, maxstep=3),
  freq=noraman, scrf=(iefpcm, solvent=water)
 ----------------------------------------------------------------------

 ------------------------
 0_iteration/TS-888-0.out
 ------------------------
 Symbolic Z-matrix:
 Charge =  0 Multiplicity = 1

 SCF Done:  E(RwB97XD) =  -1248.81694344     A.U. after   15 cycles
 SCF Done:  E(RwB97XD) =  -1248.81695083     A.U. after    9 cycles
 SCF Done:  E(RwB97XD) =  -1248.81695122     A.U. after    7 cycles
 SCF Done:  E(RwB97XD) =  -1248.81695115     A.U. after    6 cycles
 Optimization completed.
    -- Stationary point found.
 Normal termination of Gaussian 16 at Thu Mar 25 23:56:45 2021.

 ---------------------------------------------------------------------
 #N Geom=AllCheck Guess=TCheck SCRF=Check GenChk RwB97XD/def2TZVP Freq
 ---------------------------------------------------------------------

 Structure from the checkpoint file:  "/beegfs/scratch/user/q/tla25/Gau-118179.chk"
 ------------------------
 0_iteration/TS-888-0.out
 ------------------------
 Charge =  0 Multiplicity = 1

                         Standard orientation:
 ---------------------------------------------------------------------
 Center     Atomic      Atomic             Coordinates (Angstroms)
 Number     Number       Type             X           Y           Z
 ---------------------------------------------------------------------
      1          6           0       -0.407102   -0.241643   -0.193662
      2          6           0        0.538217   -1.284696    0.047183
      3          8           0        0.188214   -2.451771    0.279833
      4          6           0       -0.089673    1.085765   -0.540380
      5          6           0        0.208239    3.551389    1.106490
      6          1           0        0.045882    3.986290    2.093269
      7          1           0        1.247746    3.696790    0.822248
      8          1           0       -0.435369    4.052827    0.385847
      9          7           0       -0.099003    2.120849    1.100809
     10          1           0        0.547239    1.597803    1.681487
     11          1           0       -1.033889    1.946072    1.453040
     12         17           0       -1.421213    1.970033   -1.353187
     13          6           0        1.221811    1.560112   -1.109318
     14          1           0        2.050423    1.364121   -0.435579
     15          1           0        1.410847    1.042463   -2.049114
     16          1           0        1.176269    2.627574   -1.309673
     17          6           0       -1.835167   -0.629756    0.023904
     18          6           0       -2.618903   -1.110210   -1.023292
     19          6           0       -3.940072   -1.476068   -0.818665
     20          6           0       -4.505494   -1.369981    0.445593
     21          6           0       -3.735562   -0.905578    1.500974
     22          6           0       -2.411164   -0.545120    1.289187
     23          1           0       -2.183099   -1.190517   -2.012016
     24          1           0       -4.531732   -1.844375   -1.647827
     25          1           0       -5.538367   -1.652427    0.606540
     26          1           0       -4.163012   -0.827186    2.493022
     27          1           0       -1.810525   -0.208850    2.127255
     28          6           0        2.022544   -1.040686    0.064499
     29          6           0        2.633434   -0.564786    1.218958
     30          6           0        4.007932   -0.379501    1.259190
     31          6           0        4.781098   -0.673184    0.144898
     32          6           0        4.176200   -1.168505   -1.002693
     33          6           0        2.803246   -1.358483   -1.040141
     34          1           0        2.032820   -0.337124    2.092470
     35          1           0        4.474753   -0.004704    2.161342
     36          1           0        5.852732   -0.522494    0.172275
     37          1           0        4.776357   -1.405791   -1.872163
     38          1           0        2.331360   -1.737213   -1.938923
 ---------------------------------------------------------------------

 SCF Done:  E(RwB97XD) =  -1248.81695115     A.U. after    1 cycles

 The electronic state is 1-A.
 Alpha  occ. eigenvalues -- -101.69793 -19.20734 -14.49005 -10.41254 -10.35810
 Alpha  occ. eigenvalues --  -10.32053 -10.29875 -10.29619 -10.29412 -10.29344
 Alpha  occ. eigenvalues --  -10.29315 -10.29217 -10.29129 -10.29079 -10.28719
 Alpha  occ. eigenvalues --  -10.28659 -10.28582 -10.28536 -10.28324 -10.27144
 Alpha  occ. eigenvalues --   -9.58406  -7.33030  -7.32211  -7.32146  -1.11481
 Alpha  occ. eigenvalues --   -1.04763  -0.98245  -0.96886  -0.95884  -0.88852
 Alpha  occ. eigenvalues --   -0.86412  -0.85448  -0.85053  -0.84664  -0.80686
 Alpha  occ. eigenvalues --   -0.79194  -0.72931  -0.70788  -0.69967  -0.69789
 Alpha  occ. eigenvalues --   -0.67946  -0.63811  -0.63559  -0.61091  -0.59727
 Alpha  occ. eigenvalues --   -0.57547  -0.56663  -0.55958  -0.55503  -0.55015
 Alpha  occ. eigenvalues --   -0.53916  -0.53209  -0.52739  -0.51306  -0.50697
 Alpha  occ. eigenvalues --   -0.50498  -0.49946  -0.49133  -0.48543  -0.47913
 Alpha  occ. eigenvalues --   -0.46366  -0.45829  -0.45225  -0.44350  -0.44259
 Alpha  occ. eigenvalues --   -0.42715  -0.42314  -0.42092  -0.39960  -0.39152
 Alpha  occ. eigenvalues --   -0.34387  -0.34168  -0.33376  -0.32906  -0.31370
 Alpha  occ. eigenvalues --   -0.28311
 Alpha virt. eigenvalues --    0.03231   0.04543   0.05006   0.05588   0.05920
 Alpha virt. eigenvalues --    0.08348   0.09583   0.12609   0.12964   0.13284
 Alpha virt. eigenvalues --    0.14374   0.15113   0.15212   0.16278   0.16695

 Mulliken charges:
               1
     1  C   -0.225491
     2  C    0.286543
     3  O   -0.508394
     4  C    0.119465
     5  C   -0.296642
     6  H    0.160257
     7  H    0.164470
     8  H    0.154209
     9  N   -0.307037
    10  H    0.270675
    11  H    0.281520
    12  Cl  -0.108558
    13  C   -0.408678
    14  H    0.166983
    15  H    0.162381
    16  H    0.173136
    17  C    0.237761
    18  C   -0.253777
    19  C   -0.150351
    20  C   -0.136950
    21  C   -0.166675
    22  C   -0.272564
    23  H    0.135919
    24  H    0.138082
    25  H    0.141622
    26  H    0.138327
    27  H    0.154448
    28  C    0.173189
    29  C   -0.294507
    30  C   -0.137160
    31  C   -0.148936
    32  C   -0.138707
    33  C   -0.248353
    34  H    0.163651
    35  H    0.144532
    36  H    0.145366
    37  H    0.144016
    38  H    0.146228
 Sum of Mulliken charges =  -0.00000

 Dipole moment (field-independent basis, Debye):
    X=              2.8465    Y=             10.3684    Z=              2.7457  Tot=             11.0971
 Quadrupole moment (field-independent basis, Debye-Ang):
   XX=           -112.8956   YY=           -131.4977   ZZ=           -111.6641
   XY=              5.4416   XZ=             -3.2190   YZ=             14.0716

  Exact polarizability: 350.946  11.085 294.889  -0.003  23.467 293.249
 Approx polarizability: 270.587  10.847 237.081   0.636  18.765 255.658

 ******    1 imaginary frequencies (negative Signs) ******

                      1                      2                      3
                      A                      A                      A
 Frequencies --   -358.7129                29.5834                40.1880
 Red. masses --      6.2365                 5.5027                 4.2911
 Frc consts  --      0.4728                 0.0028                 0.0041
 IR Inten    --    981.9421                 2.6961                 3.3203

                      4                      5                      6
                      A                      A                      A
 Frequencies --     54.6322                56.4899                66.3435
 Red. masses --      4.7387                 4.6529                 4.0941
 Frc consts  --      0.0083                 0.0087                 0.0106
 IR Inten    --      1.8820                 1.5581                 0.3519

                      7                      8                      9
                      A                      A                      A
 Frequencies --     78.7571                94.0789               104.1508
 Red. masses --      4.4076                 2.9800                 3.2055
 Frc consts  --      0.0161                 0.0155                 0.0205
 IR Inten    --      1.7328                 4.0051                 4.3061

                     10                     11                     12
                      A                      A                      A
 Frequencies --    160.6464               185.3315               202.4297
 Red. masses --      2.2010                 5.4002                 3.0171
 Frc consts  --      0.0335                 0.1093                 0.0728
 IR Inten    --      0.2526                 4.9099                 1.7960

                     13                     14                     15
                      A                      A                      A
 Frequencies --    204.2317               230.8724               252.0783
 Red. masses --      1.8954                 4.4718                 4.8853
 Frc consts  --      0.0466                 0.1404                 0.1829
 IR Inten    --      6.8701                 2.6911                 0.5627

                     16                     17                     18
                      A                      A                      A
 Frequencies --    267.7909               290.3952               304.2847
 Red. masses --      2.8253                 1.3754                 3.4377
 Frc consts  --      0.1194                 0.0683                 0.1875
 IR Inten    --     32.0384                 5.3460                48.7226

                     19                     20                     21
                      A                      A                      A
 Frequencies --    345.1135               361.1410               382.9454
 Red. masses --      6.9987                 2.9430                 3.1100
 Frc consts  --      0.4911                 0.2261                 0.2687
 IR Inten    --     14.8076                 6.2484                28.2564

                     22                     23                     24
                      A                      A                      A
 Frequencies --    391.5875               416.7226               425.1049
 Red. masses --      4.0666                 2.8790                 2.8897
 Frc consts  --      0.3674                 0.2946                 0.3077
 IR Inten    --     27.3673                 0.7249                 0.0074

                     25                     26                     27
                      A                      A                      A
 Frequencies --    492.5390               524.2643               570.5559
 Red. masses --      4.9142                 3.9764                 6.2776
 Frc consts  --      0.7024                 0.6439                 1.2040
 IR Inten    --     15.1858                13.9055               101.0100

                     28                     29                     30
                      A                      A                      A
 Frequencies --    573.9787               635.1135               641.6068
 Red. masses --      3.8746                 6.4100                 5.8350
 Frc consts  --      0.7521                 1.5234                 1.4152
 IR Inten    --      4.0514                 1.4305                53.3052

                     31                     32                     33
                      A                      A                      A
 Frequencies --    642.4732               663.9034               696.8397
 Red. masses --      4.6173                 1.7669                 3.2660
 Frc consts  --      1.1229                 0.4589                 0.9344
 IR Inten    --     67.6188                21.3100                56.9608

                     34                     35                     36
                      A                      A                      A
 Frequencies --    729.7345               730.3374               756.9944
 Red. masses --      1.5577                 1.5569                 2.8413
 Frc consts  --      0.4887                 0.4893                 0.9593
 IR Inten    --     42.4374               151.7720               105.7000

                     37                     38                     39
                      A                      A                      A
 Frequencies --    787.1166               797.1574               810.6573
 Red. masses --      2.5823                 6.0788                 2.6888
 Frc consts  --      0.9426                 2.2759                 1.0411
 IR Inten    --     21.7422                45.2751               115.9455

                     40                     41                     42
                      A                      A                      A
 Frequencies --    874.2870               879.8986               882.6474
 Red. masses --      3.4350                 1.2766                 1.2695
 Frc consts  --      1.5470                 0.5823                 0.5827
 IR Inten    --     26.5923                 0.5077                 1.2657

                     43                     44                     45
                      A                      A                      A
 Frequencies --    951.4514               960.6724              1008.7569
 Red. masses --      1.4515                 1.5415                 1.3740
 Frc consts  --      0.7742                 0.8382                 0.8238
 IR Inten    --     18.3515                17.5984                 1.6413

                     46                     47                     48
                      A                      A                      A
 Frequencies --   1012.1319              1014.6236              1024.3199
 Red. masses --      1.3741                 1.4527                 1.9898
 Frc consts  --      0.8294                 0.8811                 1.2300
 IR Inten    --      0.1469                 8.1695                46.4503

                     49                     50                     51
                      A                      A                      A
 Frequencies --   1026.0079              1026.3019              1031.6833
 Red. masses --      3.7408                 2.3874                 1.5077
 Frc consts  --      2.3202                 1.4816                 0.9455
 IR Inten    --      1.4305                 0.6186                56.4385

                     52                     53                     54
                      A                      A                      A
 Frequencies --   1032.4476              1049.7852              1051.8259
 Red. masses --      1.6266                 1.4588                 2.4054
 Frc consts  --      1.0216                 0.9472                 1.5679
 IR Inten    --     64.8483                45.4016                93.0751

                     55                     56                     57
                      A                      A                      A
 Frequencies --   1060.7846              1070.9070              1076.7319
 Red. masses --      2.1368                 1.6543                 2.4222
 Frc consts  --      1.4167                 1.1178                 1.6545
 IR Inten    --     17.0702                36.8071                50.2781

                     58                     59                     60
                      A                      A                      A
 Frequencies --   1107.4216              1108.6863              1110.8876
 Red. masses --      1.5573                 1.8558                 1.5666
 Frc consts  --      1.1253                 1.3440                 1.1391
 IR Inten    --     19.0918                82.1236                16.8981

                     61                     62                     63
                      A                      A                      A
 Frequencies --   1174.2943              1181.2525              1183.7775
 Red. masses --      3.8918                 1.1358                 1.1422
 Frc consts  --      3.1619                 0.9337                 0.9430
 IR Inten    --     30.0078                 0.0513                 0.0522

                     64                     65                     66
                      A                      A                      A
 Frequencies --   1205.3865              1206.2067              1234.1233
 Red. masses --      1.1229                 1.1243                 1.3964
 Frc consts  --      0.9613                 0.9638                 1.2531
 IR Inten    --      0.0563                 0.9424                36.0242

                     67                     68                     69
                      A                      A                      A
 Frequencies --   1256.8955              1308.0977              1317.6228
 Red. masses --      3.5803                 4.5039                 4.3004
 Frc consts  --      3.3325                 4.5406                 4.3988
 IR Inten    --     70.8634                 0.9732                 4.5410

                     70                     71                     72
                      A                      A                      A
 Frequencies --   1349.2494              1356.5063              1359.2431
 Red. masses --      1.3329                 1.4295                 1.4519
 Frc consts  --      1.4296                 1.5498                 1.5804
 IR Inten    --      2.7994                 1.0652                 2.7347

                     73                     74                     75
                      A                      A                      A
 Frequencies --   1386.0402              1416.3246              1442.8529
 Red. masses --      5.5855                 1.3834                 2.9209
 Frc consts  --      6.3221                 1.6350                 3.5826
 IR Inten    --   1424.2524                12.0084               245.5543

                     76                     77                     78
                      A                      A                      A
 Frequencies --   1457.8686              1482.7432              1485.1892
 Red. masses --      1.2887                 1.0663                 1.3585
 Frc consts  --      1.6137                 1.3812                 1.7656
 IR Inten    --     78.3625                 7.1899                37.3444

                     79                     80                     81
                      A                      A                      A
 Frequencies --   1487.0771              1488.7658              1498.4285
 Red. masses --      1.8668                 1.7508                 1.0526
 Frc consts  --      2.4323                 2.2863                 1.3925
 IR Inten    --      5.0787                40.0103                14.5890

                     82                     83                     84
                      A                      A                      A
 Frequencies --   1507.2362              1542.1813              1544.7474
 Red. masses --      1.0394                 2.3688                 2.5285
 Frc consts  --      1.3912                 3.3194                 3.5548
 IR Inten    --     19.5476                19.3220                38.1030

                     85                     86                     87
                      A                      A                      A
 Frequencies --   1606.6635              1644.7264              1646.9408
 Red. masses --     11.3935                 2.4957                 1.7654
 Frc consts  --     17.3284                 3.9777                 2.8212
 IR Inten    --    708.7311                17.8074                20.2695

                     88                     89                     90
                      A                      A                      A
 Frequencies --   1649.3251              1673.2415              1675.3660
 Red. masses --      3.4098                 5.9572                 5.8970
 Frc consts  --      5.4650                 9.8268                 9.7521
 IR Inten    --      3.0379                26.6849                 0.2342

                     91                     92                     93
                      A                      A                      A
 Frequencies --   3070.8888              3089.6557              3149.3222
 Red. masses --      1.0350                 1.0372                 1.1030
 Frc consts  --      5.7504                 5.8337                 6.4453
 IR Inten    --     45.0825                 6.8714                11.1193

                     94                     95                     96
                      A                      A                      A
 Frequencies --   3167.0755              3176.1243              3181.5049
 Red. masses --      1.1020                 1.1057                 1.0879
 Frc consts  --      6.5127                 6.5718                 6.4879
 IR Inten    --     12.4196                11.3158                15.0353

                     97                     98                     99
                      A                      A                      A
 Frequencies --   3184.5800              3188.0209              3189.2196
 Red. masses --      1.0885                 1.1025                 1.0867
 Frc consts  --      6.5041                 6.6020                 6.5124
 IR Inten    --     11.8165                 2.4818                 2.0743

                    100                    101                    102
                      A                      A                      A
 Frequencies --   3193.2040              3199.1976              3202.6348
 Red. masses --      1.0873                 1.0907                 1.0905
 Frc consts  --      6.5318                 6.5771                 6.5902
 IR Inten    --      2.5241                11.8539                 5.2734

                    103                    104                    105
                      A                      A                      A
 Frequencies --   3206.7800              3211.3190              3218.2528
 Red. masses --      1.0949                 1.0948                 1.0987
 Frc consts  --      6.6340                 6.6517                 6.7048
 IR Inten    --     49.1801                36.6247                22.2112

                    106                    107                    108
                      A                      A                      A
 Frequencies --   3222.4181              3517.7970              3600.1392
 Red. masses --      1.0987                 1.0510                 1.0961
 Frc consts  --      6.7220                 7.6630                 8.3701
 IR Inten    --     19.7870                14.8167                61.8155

 - Thermochemistry -
 -------------------
 Temperature   298.150 Kelvin.  Pressure   1.00000 Atm.
 Atom     1 has atomic number  6 and mass  12.00000

 Molecular mass:   287.10769 amu.
 Principal axes and moments of inertia in atomic units:
                           1         2         3
     Eigenvalues --  3672.949218074.505889623.17097
           X            0.99982   0.01782  -0.00585
           Y           -0.01751   0.99857   0.05049
           Z            0.00674  -0.05038   0.99871
 This molecule is an asymmetric top.
 Rotational symmetry number  1.
 Warning -- assumption of classical behavior for rotation
           may cause significant error
 Rotational temperatures (Kelvin)      0.02358     0.01073     0.00900
 Rotational constants (GHZ):           0.49136     0.22351     0.18754
    1 imaginary frequencies ignored.
 Zero-point vibrational energy     820021.8 (Joules/Mol)
                                  195.98992 (Kcal/Mol)
 Warning -- explicit consideration of  27 degrees of freedom as
           vibrations may cause significant error
 Vibrational temperatures:     42.56    57.82    78.60    81.28    95.45
          (Kelvin)            113.31   135.36   149.85   231.13   266.65
                              291.25   293.84   332.17   362.68   385.29
                              417.81   437.80   496.54   519.60   550.97
                              563.41   599.57   611.63   708.65   754.30
                              820.90   825.83   913.79   923.13   924.38
                              955.21  1002.60  1049.93  1050.79  1089.15
                             1132.49  1146.93  1166.36  1257.90  1265.98
                             1269.93  1368.93  1382.19  1451.38  1456.23
                             1459.82  1473.77  1476.20  1476.62  1484.36
                             1485.46  1510.41  1513.34  1526.23  1540.80
                             1549.18  1593.33  1595.15  1598.32  1689.55
                             1699.56  1703.19  1734.28  1735.46  1775.63
                             1808.39  1882.06  1895.77  1941.27  1951.71
                             1955.65  1994.20  2037.78  2075.94  2097.55
                             2133.34  2136.86  2139.57  2142.00  2155.90
                             2168.58  2218.85  2222.55  2311.63  2366.39
                             2369.58  2373.01  2407.42  2410.48  4418.32
                             4445.33  4531.17  4556.72  4569.73  4577.48
                             4581.90  4586.85  4588.58  4594.31  4602.93
                             4607.88  4613.84  4620.37  4630.35  4636.34
                             5061.33  5179.80

 Zero-point correction=                           0.312330 (Hartree/Particle)
 Thermal correction to Energy=                    0.331133
 Thermal correction to Enthalpy=                  0.332077
 Thermal correction to Gibbs Free Energy=         0.263878
 Sum of electronic and zero-point Energies=          -1248.504621
 Sum of electronic and thermal Energies=             -1248.485818
 Sum of electronic and thermal Enthalpies=           -1248.484874
 Sum of electronic and thermal Free Energies=        -1248.553073

                     E (Thermal)             CV                S
                      KCal/Mol        Cal/Mol-Kelvin    Cal/Mol-Kelvin
 Total                  207.789             71.189            143.537
 Electronic               0.000              0.000              0.000
 Translational            0.889              2.981             42.862
 Rotational               0.889              2.981             34.011
 Vibrational            206.012             65.227             66.663
 Vibration     1          0.593              1.984              5.857
 Vibration     2          0.594              1.981              5.250
 Vibration     3          0.596              1.976              4.642
 Vibration     4          0.596              1.975              4.576
 Vibration     5          0.598              1.970              4.259
 Vibration     6          0.600              1.963              3.922
 Vibration     7          0.603              1.953              3.573
 Vibration     8          0.605              1.946              3.375
 Vibration     9          0.622              1.891              2.542
 Vibration    10          0.631              1.860              2.274
 Vibration    11          0.639              1.836              2.111
 Vibration    12          0.640              1.834              2.095
 Vibration    13          0.653              1.794              1.872
 Vibration    14          0.664              1.759              1.716
 Vibration    15          0.673              1.732              1.610
 Vibration    16          0.686              1.692              1.472
 Vibration    17          0.695              1.666              1.393
 Vibration    18          0.723              1.585              1.188
 Vibration    19          0.735              1.552              1.117
 Vibration    20          0.752              1.507              1.028
 Vibration    21          0.759              1.488              0.994
 Vibration    22          0.780              1.434              0.903
 Vibration    23          0.787              1.416              0.875
 Vibration    24          0.848              1.267              0.677
 Vibration    25          0.879              1.196              0.600
 Vibration    26          0.927              1.095              0.503
 Vibration    27          0.930              1.088              0.497

 Optimization completed.
    -- Stationary point found.
 Normal termination of Gaussian 16 at Fri Mar 26 02:20:13 2021.
