 Gaussian 16, Revision A.03,
 Gaussian 16:  ES64L-G16RevA.03 25-Dec-2016

 ----------------------------------------------------------------------
 # wB97XD def2tzvp, opt=(ts, noeigen, calcfc, maxcycles=70, maxstep=5),
  freq=noraman, scrf=(iefpcm, solvent=water)
 ----------------------------------------------------------------------

 ------------------------
 2_iteration/TS-848-2.out
 ------------------------
 Symbolic Z-matrix:
 Charge =  0 Multiplicity = 1

 SCF Done:  E(RwB97XD) =  -1209.50660092     A.U. after   15 cycles
 SCF Done:  E(RwB97XD) =  -1209.50660093     A.U. after    7 cycles
 Optimization completed.
    -- Stationary point found.
 Normal termination of Gaussian 16 at Fri Feb 26 08:50:35 2021.

 ---------------------------------------------------------------------
 #N Geom=AllCheck Guess=TCheck SCRF=Check GenChk RwB97XD/def2TZVP Freq
 ---------------------------------------------------------------------

 Structure from the checkpoint file:  "/beegfs/scratch/user/q/tla25/Gau-112499.chk"
 ------------------------
 2_iteration/TS-848-2.out
 ------------------------
 Charge =  0 Multiplicity = 1

                         Standard orientation:
 ---------------------------------------------------------------------
 Center     Atomic      Atomic             Coordinates (Angstroms)
 Number     Number       Type             X           Y           Z
 ---------------------------------------------------------------------
      1          6           0        0.681260   -0.341899   -0.324890
      2          6           0       -0.243510   -1.444416   -0.288951
      3          8           0        0.103422   -2.623263   -0.445395
      4          6           0        2.000310   -0.715879   -0.531687
      5          6           0        4.084766   -2.069094    1.013862
      6          1           0        4.459611   -2.439843    1.968938
      7          1           0        3.889083   -2.917384    0.358835
      8          1           0        4.843852   -1.437881    0.555210
      9          7           0        2.855992   -1.297794    1.170342
     10          1           0        2.113498   -1.847267    1.586394
     11          1           0        2.996712   -0.470492    1.737424
     12         17           0        3.179325    0.452183   -1.073081
     13          1           0        2.183700   -1.694098   -0.951874
     14          6           0        0.267887    1.071041   -0.149596
     15          6           0       -0.624495    1.663008   -1.043967
     16          6           0       -1.032029    2.978204   -0.885381
     17          6           0       -0.542123    3.738527    0.167649
     18          6           0        0.356332    3.169236    1.058447
     19          6           0        0.751667    1.849018    0.901600
     20          1           0       -1.007692    1.077586   -1.871083
     21          1           0       -1.729824    3.412994   -1.590361
     22          1           0       -0.857131    4.766878    0.292025
     23          1           0        0.744612    3.751326    1.885068
     24          1           0        1.435374    1.412913    1.619508
     25          6           0       -1.702944   -1.179595   -0.037731
     26          6           0       -2.135539   -0.459668    1.071265
     27          6           0       -3.490541   -0.285744    1.308831
     28          6           0       -4.425332   -0.811708    0.428021
     29          6           0       -3.999602   -1.529875   -0.681196
     30          6           0       -2.645152   -1.724191   -0.904159
     31          1           0       -1.410588   -0.034679    1.753814
     32          1           0       -3.816910    0.266082    2.181379
     33          1           0       -5.483018   -0.664922    0.607035
     34          1           0       -4.724458   -1.943076   -1.371337
     35          1           0       -2.310404   -2.296374   -1.760536
 ---------------------------------------------------------------------

 SCF Done:  E(RwB97XD) =  -1209.50660093     A.U. after    1 cycles

 The electronic state is 1-A.
 Alpha  occ. eigenvalues -- -101.70603 -19.21396 -14.47847 -10.38818 -10.36253
 Alpha  occ. eigenvalues --  -10.31739 -10.29988 -10.29682 -10.29203 -10.29159
 Alpha  occ. eigenvalues --  -10.29122 -10.29056 -10.29031 -10.28820 -10.28762
 Alpha  occ. eigenvalues --  -10.28662 -10.28642 -10.28504 -10.27388  -9.59179
 Alpha  occ. eigenvalues --   -7.33817  -7.32981  -7.32916  -1.12177  -1.03563
 Alpha  occ. eigenvalues --   -0.98254  -0.96752  -0.96058  -0.89219  -0.85949
 Alpha  occ. eigenvalues --   -0.85198  -0.84801  -0.82936  -0.78731  -0.74720
 Alpha  occ. eigenvalues --   -0.71064  -0.70452  -0.70111  -0.67933  -0.64049
 Alpha  occ. eigenvalues --   -0.62983  -0.61770  -0.59565  -0.57303  -0.56475
 Alpha  occ. eigenvalues --   -0.55299  -0.55097  -0.53936  -0.53438  -0.53202
 Alpha  occ. eigenvalues --   -0.52401  -0.51125  -0.50619  -0.50170  -0.48817
 Alpha  occ. eigenvalues --   -0.48278  -0.47721  -0.47034  -0.46048  -0.44961
 Alpha  occ. eigenvalues --   -0.44180  -0.42967  -0.42611  -0.42496  -0.40337
 Alpha  occ. eigenvalues --   -0.38757  -0.34905  -0.34405  -0.33551  -0.33198
 Alpha  occ. eigenvalues --   -0.32014  -0.27831
 Alpha virt. eigenvalues --    0.01516   0.04482   0.05398   0.05772   0.06715
 Alpha virt. eigenvalues --    0.09762   0.10545   0.13126   0.13357   0.13981
 Alpha virt. eigenvalues --    0.15069   0.15443   0.15830   0.16506   0.16923

 Mulliken charges:
               1
     1  C   -0.130108
     2  C    0.300099
     3  O   -0.506952
     4  C   -0.013998
     5  C   -0.271925
     6  H    0.151768
     7  H    0.149745
     8  H    0.147583
     9  N   -0.361038
    10  H    0.282916
    11  H    0.276087
    12  Cl  -0.083735
    13  H    0.178790
    14  C    0.131346
    15  C   -0.217318
    16  C   -0.159136
    17  C   -0.143078
    18  C   -0.141097
    19  C   -0.249353
    20  H    0.141624
    21  H    0.138327
    22  H    0.141533
    23  H    0.138765
    24  H    0.134435
    25  C    0.130551
    26  C   -0.214606
    27  C   -0.157273
    28  C   -0.129911
    29  C   -0.157228
    30  C   -0.234780
    31  H    0.160089
    32  H    0.141606
    33  H    0.144740
    34  H    0.142069
    35  H    0.139462
 Sum of Mulliken charges =  -0.00000

 Dipole moment (field-independent basis, Debye):
    X=              4.0174    Y=              1.1695    Z=              4.4851  Tot=              6.1338
 Quadrupole moment (field-independent basis, Debye-Ang):
   XX=            -94.0495   YY=           -124.7488   ZZ=           -109.3526
   XY=            -12.0469   XZ=             14.0738   YZ=             -0.6286

  Exact polarizability: 358.508 -12.259 291.283  27.800  24.839 251.147
 Approx polarizability: 263.914  -7.834 238.874  20.970  22.082 220.545

 ******    1 imaginary frequencies (negative Signs) ******

                      1                      2                      3
                      A                      A                      A
 Frequencies --   -363.1370                30.2689                30.6337
 Red. masses --      6.1134                 4.8681                 4.8351
 Frc consts  --      0.4750                 0.0026                 0.0027
 IR Inten    --   1011.8245                 3.8095                 3.6384

                      4                      5                      6
                      A                      A                      A
 Frequencies --     43.2622                46.5902                58.9684
 Red. masses --      3.8119                 2.6447                 3.7292
 Frc consts  --      0.0042                 0.0034                 0.0076
 IR Inten    --      8.5028                 0.2520                 0.9583

                      7                      8                      9
                      A                      A                      A
 Frequencies --     65.6203                85.4993               103.1920
 Red. masses --      3.7282                 4.4799                 5.4366
 Frc consts  --      0.0095                 0.0193                 0.0341
 IR Inten    --      2.2613                 3.1962                 3.3038

                     10                     11                     12
                      A                      A                      A
 Frequencies --    143.7886               170.3714               174.6907
 Red. masses --      3.6213                 3.7869                 1.4644
 Frc consts  --      0.0441                 0.0648                 0.0263
 IR Inten    --      2.1264                 6.4053                 2.9079

                     13                     14                     15
                      A                      A                      A
 Frequencies --    209.3008               239.0430               252.4923
 Red. masses --      5.2340                 4.5421                 4.5016
 Frc consts  --      0.1351                 0.1529                 0.1691
 IR Inten    --      0.9988                 0.9459                 5.0777

                     16                     17                     18
                      A                      A                      A
 Frequencies --    279.4590               328.7141               365.6446
 Red. masses --      4.7308                 4.5491                 8.8173
 Frc consts  --      0.2177                 0.2896                 0.6946
 IR Inten    --     34.4214                86.8219                20.8679

                     19                     20                     21
                      A                      A                      A
 Frequencies --    401.7851               417.2179               423.1834
 Red. masses --      5.0497                 2.8995                 2.8828
 Frc consts  --      0.4803                 0.2974                 0.3042
 IR Inten    --     12.1434                 1.8466                 0.6546

                     22                     23                     24
                      A                      A                      A
 Frequencies --    444.1283               537.8381               572.9806
 Red. masses --      5.6264                 3.7107                 4.1479
 Frc consts  --      0.6539                 0.6324                 0.8023
 IR Inten    --     17.5167                18.0799                45.2104

                     25                     26                     27
                      A                      A                      A
 Frequencies --    597.0229               633.1203               636.1340
 Red. masses --      1.6266                 4.7344                 5.8426
 Frc consts  --      0.3416                 1.1181                 1.3930
 IR Inten    --     27.9025                10.6015                 6.1631

                     28                     29                     30
                      A                      A                      A
 Frequencies --    646.2379               661.7935               723.0922
 Red. masses --      4.9258                 6.0827                 1.9263
 Frc consts  --      1.2120                 1.5696                 0.5934
 IR Inten    --     12.9733               112.3633                45.4446

                     31                     32                     33
                      A                      A                      A
 Frequencies --    725.3566               730.7844               764.3323
 Red. masses --      1.7633                 2.4068                 3.5132
 Frc consts  --      0.5466                 0.7573                 1.2093
 IR Inten    --    129.2481                24.9428                93.1740

                     34                     35                     36
                      A                      A                      A
 Frequencies --    791.6124               806.2744               829.8917
 Red. masses --      5.3564                 2.4692                 3.1932
 Frc consts  --      1.9777                 0.9458                 1.2958
 IR Inten    --    111.6337                21.0121                16.8604

                     37                     38                     39
                      A                      A                      A
 Frequencies --    875.2095               878.1233               944.3396
 Red. masses --      1.2506                 1.2503                 2.3988
 Frc consts  --      0.5644                 0.5680                 1.2604
 IR Inten    --      0.7792                 0.4233                 4.4953

                     40                     41                     42
                      A                      A                      A
 Frequencies --    953.9247               963.4059               999.2973
 Red. masses --      1.7311                 1.6172                 1.1649
 Frc consts  --      0.9281                 0.8843                 0.6854
 IR Inten    --      5.2392                 7.6782                64.1853

                     43                     44                     45
                      A                      A                      A
 Frequencies --   1010.3858              1011.2321              1012.4812
 Red. masses --      1.1922                 1.2724                 1.3709
 Frc consts  --      0.7171                 0.7666                 0.8280
 IR Inten    --     93.4479                 5.1895                 5.6343

                     46                     47                     48
                      A                      A                      A
 Frequencies --   1025.3885              1026.1981              1027.5725
 Red. masses --      1.5433                 5.9557                 3.2769
 Frc consts  --      0.9561                 3.6953                 2.0387
 IR Inten    --      0.1332                 1.1827                 2.9537

                     49                     50                     51
                      A                      A                      A
 Frequencies --   1030.2384              1058.3010              1062.2072
 Red. masses --      1.3213                 2.5366                 2.1255
 Frc consts  --      0.8263                 1.6739                 1.4130
 IR Inten    --      0.6490                22.1768                23.6618

                     52                     53                     54
                      A                      A                      A
 Frequencies --   1072.4588              1110.1801              1112.3499
 Red. masses --      4.4370                 1.6409                 1.5522
 Frc consts  --      3.0068                 1.1916                 1.1316
 IR Inten    --    166.4932                 6.9249                22.8188

                     55                     56                     57
                      A                      A                      A
 Frequencies --   1129.5719              1145.3767              1180.5773
 Red. masses --      2.5592                 1.2447                 1.1354
 Frc consts  --      1.9239                 0.9621                 0.9324
 IR Inten    --     30.4253               164.5798                 2.0094

                     58                     59                     60
                      A                      A                      A
 Frequencies --   1183.7449              1192.8114              1207.3197
 Red. masses --      1.1372                 1.6497                 1.1271
 Frc consts  --      0.9389                 1.3829                 0.9680
 IR Inten    --      0.2676                47.6193                 3.4047

                     61                     62                     63
                      A                      A                      A
 Frequencies --   1208.3568              1211.6841              1302.7024
 Red. masses --      1.2064                 1.3444                 2.5678
 Frc consts  --      1.0378                 1.1629                 2.5674
 IR Inten    --      5.1595                10.1577                73.9233

                     64                     65                     66
                      A                      A                      A
 Frequencies --   1307.3924              1324.3621              1346.8220
 Red. masses --      3.5971                 4.0236                 1.3450
 Frc consts  --      3.6225                 4.1579                 1.4374
 IR Inten    --     71.9516                17.2755                 1.3554

                     67                     68                     69
                      A                      A                      A
 Frequencies --   1355.3604              1359.4864              1380.6863
 Red. masses --      1.8648                 1.4390                 2.5742
 Frc consts  --      2.0183                 1.5670                 2.8912
 IR Inten    --    255.9435                10.9912               905.6532

                     70                     71                     72
                      A                      A                      A
 Frequencies --   1424.1628              1463.8401              1488.6087
 Red. masses --      4.7587                 1.2058                 2.2356
 Frc consts  --      5.6866                 1.5223                 2.9188
 IR Inten    --    455.4783                26.0805                 9.1554

                     73                     74                     75
                      A                      A                      A
 Frequencies --   1490.4054              1491.4921              1507.2009
 Red. masses --      1.0418                 2.2808                 1.0324
 Frc consts  --      1.3635                 2.9893                 1.3817
 IR Inten    --     14.1594                41.6229                12.7556

                     76                     77                     78
                      A                      A                      A
 Frequencies --   1541.3978              1548.5708              1631.2340
 Red. masses --      2.3181                 2.5504                 5.5719
 Frc consts  --      3.2449                 3.6035                 8.7355
 IR Inten    --      1.6699                33.1359               397.6968

                     79                     80                     81
                      A                      A                      A
 Frequencies --   1642.6372              1647.1190              1656.4350
 Red. masses --      1.3975                 3.5120                 5.9287
 Frc consts  --      2.2217                 5.6138                 9.5843
 IR Inten    --     59.6236                43.7379               170.5262

                     82                     83                     84
                      A                      A                      A
 Frequencies --   1674.3857              1674.7008              3062.7042
 Red. masses --      5.8975                 5.9075                 1.0342
 Frc consts  --      9.7416                 9.7617                 5.7156
 IR Inten    --      4.2822                 6.3909                58.9326

                     85                     86                     87
                      A                      A                      A
 Frequencies --   3138.0517              3161.7321              3189.3450
 Red. masses --      1.1041                 1.1052                 1.0857
 Frc consts  --      6.4060                 6.5095                 6.5066
 IR Inten    --     17.7498                14.2462                 6.8414

                     88                     89                     90
                      A                      A                      A
 Frequencies --   3193.6250              3193.7327              3199.8657
 Red. masses --      1.0871                 1.0863                 1.0881
 Frc consts  --      6.5328                 6.5280                 6.5640
 IR Inten    --      1.3432                 0.6460                 0.5606

                     91                     92                     93
                      A                      A                      A
 Frequencies --   3203.2101              3207.9063              3209.4259
 Red. masses --      1.0915                 1.0918                 1.0951
 Frc consts  --      6.5985                 6.6195                 6.6457
 IR Inten    --     18.0444                12.2652                56.9768

                     94                     95                     96
                      A                      A                      A
 Frequencies --   3214.3184              3219.9676              3222.2144
 Red. masses --      1.0951                 1.0988                 1.0945
 Frc consts  --      6.6664                 6.7122                 6.6955
 IR Inten    --     37.7536                15.6858                17.4368

                     97                     98                     99
                      A                      A                      A
 Frequencies --   3222.4632              3528.2265              3615.7715
 Red. masses --      1.0956                 1.0503                 1.0970
 Frc consts  --      6.7034                 7.7033                 8.4499
 IR Inten    --      5.0331                21.4398                45.1472

 - Thermochemistry -
 -------------------
 Temperature   298.150 Kelvin.  Pressure   1.00000 Atm.
 Atom     1 has atomic number  6 and mass  12.00000

 Molecular mass:   273.09204 amu.
 Principal axes and moments of inertia in atomic units:
                           1         2         3
     Eigenvalues --  3920.020476695.377339082.69142
           X            0.99915  -0.03671   0.01863
           Y            0.03667   0.99933   0.00197
           Z           -0.01869  -0.00129   0.99982
 This molecule is an asymmetric top.
 Rotational symmetry number  1.
 Warning -- assumption of classical behavior for rotation
           may cause significant error
 Rotational temperatures (Kelvin)      0.02210     0.01294     0.00954
 Rotational constants (GHZ):           0.46039     0.26955     0.19870
    1 imaginary frequencies ignored.
 Zero-point vibrational energy     745540.4 (Joules/Mol)
                                  178.18844 (Kcal/Mol)
 Warning -- explicit consideration of  24 degrees of freedom as
           vibrations may cause significant error
 Vibrational temperatures:     43.55    44.08    62.24    67.03    84.84
          (Kelvin)             94.41   123.01   148.47   206.88   245.13
                              251.34   301.14   343.93   363.28   402.08
                              472.95   526.08   578.08   600.28   608.87
                              639.00   773.83   824.39   858.98   910.92
                              915.25   929.79   952.17  1040.37  1043.63
                             1051.44  1099.70  1138.95  1160.05  1194.03
                             1259.23  1263.42  1358.69  1372.48  1386.13
                             1437.77  1453.72  1454.94  1456.73  1475.31
                             1476.47  1478.45  1482.28  1522.66  1528.28
                             1543.03  1597.30  1600.42  1625.20  1647.94
                             1698.59  1703.14  1716.19  1737.06  1738.56
                             1743.34  1874.30  1881.05  1905.46  1937.78
                             1950.06  1956.00  1986.50  2049.05  2106.14
                             2141.78  2144.36  2145.92  2168.53  2217.73
                             2228.05  2346.98  2363.39  2369.84  2383.24
                             2409.07  2409.52  4406.55  4514.96  4549.03
                             4588.76  4594.91  4595.07  4603.89  4608.70
                             4615.46  4617.65  4624.69  4632.82  4636.05
                             4636.41  5076.33  5202.29

 Zero-point correction=                           0.283961 (Hartree/Particle)
 Thermal correction to Energy=                    0.301712
 Thermal correction to Enthalpy=                  0.302656
 Thermal correction to Gibbs Free Energy=         0.235297
 Sum of electronic and zero-point Energies=          -1209.222640
 Sum of electronic and thermal Energies=             -1209.204889
 Sum of electronic and thermal Enthalpies=           -1209.203945
 Sum of electronic and thermal Free Energies=        -1209.271304

                     E (Thermal)             CV                S
                      KCal/Mol        Cal/Mol-Kelvin    Cal/Mol-Kelvin
 Total                  189.327             65.569            141.769
 Electronic               0.000              0.000              0.000
 Translational            0.889              2.981             42.713
 Rotational               0.889              2.981             33.832
 Vibrational            187.550             59.608             65.224
 Vibration     1          0.594              1.984              5.812
 Vibration     2          0.594              1.984              5.788
 Vibration     3          0.595              1.980              5.104
 Vibration     4          0.595              1.979              4.957
 Vibration     5          0.596              1.974              4.491
 Vibration     6          0.597              1.971              4.281
 Vibration     7          0.601              1.959              3.761
 Vibration     8          0.605              1.947              3.393
 Vibration     9          0.616              1.909              2.753
 Vibration    10          0.625              1.879              2.431
 Vibration    11          0.627              1.874              2.384
 Vibration    12          0.642              1.827              2.050
 Vibration    13          0.657              1.781              1.810
 Vibration    14          0.664              1.759              1.713
 Vibration    15          0.680              1.712              1.537
 Vibration    16          0.712              1.618              1.266
 Vibration    17          0.739              1.543              1.098
 Vibration    18          0.767              1.466              0.956
 Vibration    19          0.780              1.433              0.901
 Vibration    20          0.785              1.420              0.881
 Vibration    21          0.804              1.374              0.814
 Vibration    22          0.893              1.166              0.570
 Vibration    23          0.929              1.090              0.499
 Vibration    24          0.955              1.038              0.455

 Optimization completed.
    -- Stationary point found.
 Normal termination of Gaussian 16 at Fri Feb 26 10:46:05 2021.
