 Gaussian 16, Revision A.03,
 Gaussian 16:  ES64L-G16RevA.03 25-Dec-2016

 ----------------------------------------------------------------------
 # wB97XD def2tzvp, opt=(ts, noeigen, calcfc, maxcycles=70, maxstep=1),
  freq=noraman, scrf=(iefpcm, solvent=water)
 ----------------------------------------------------------------------

 ------------------------
 0_iteration/TS-858-0.out
 ------------------------
 Symbolic Z-matrix:
 Charge =  0 Multiplicity = 1

 SCF Done:  E(RwB97XD) =  -826.031585239     A.U. after   15 cycles
 SCF Done:  E(RwB97XD) =  -826.031559369     A.U. after   10 cycles
 SCF Done:  E(RwB97XD) =  -826.031538971     A.U. after   10 cycles
 SCF Done:  E(RwB97XD) =  -826.031524833     A.U. after   10 cycles
 SCF Done:  E(RwB97XD) =  -826.031518968     A.U. after   10 cycles
 SCF Done:  E(RwB97XD) =  -826.031526346     A.U. after   10 cycles
 SCF Done:  E(RwB97XD) =  -826.031546360     A.U. after   10 cycles
 SCF Done:  E(RwB97XD) =  -826.031583112     A.U. after   10 cycles
 SCF Done:  E(RwB97XD) =  -826.031640514     A.U. after   10 cycles
 SCF Done:  E(RwB97XD) =  -826.031709879     A.U. after   10 cycles
 SCF Done:  E(RwB97XD) =  -826.033401240     A.U. after   10 cycles
 SCF Done:  E(RwB97XD) =  -826.033403556     A.U. after   10 cycles
 SCF Done:  E(RwB97XD) =  -826.033403305     A.U. after   10 cycles
 SCF Done:  E(RwB97XD) =  -826.033398502     A.U. after   10 cycles
 SCF Done:  E(RwB97XD) =  -826.033403656     A.U. after   10 cycles
 SCF Done:  E(RwB97XD) =  -826.033404185     A.U. after   10 cycles
 SCF Done:  E(RwB97XD) =  -826.033404525     A.U. after   10 cycles
 SCF Done:  E(RwB97XD) =  -826.033405481     A.U. after   10 cycles
 SCF Done:  E(RwB97XD) =  -826.033405344     A.U. after    7 cycles
 Optimization completed.
    -- Stationary point found.
 Normal termination of Gaussian 16 at Wed Feb 24 05:56:44 2021.

 ---------------------------------------------------------------------
 #N Geom=AllCheck Guess=TCheck SCRF=Check GenChk RwB97XD/def2TZVP Freq
 ---------------------------------------------------------------------

 Structure from the checkpoint file:  "/beegfs/scratch/user/q/tla25/Gau-64880.chk"
 ------------------------
 0_iteration/TS-858-0.out
 ------------------------
 Charge =  0 Multiplicity = 1

                         Standard orientation:
 ---------------------------------------------------------------------
 Center     Atomic      Atomic             Coordinates (Angstroms)
 Number     Number       Type             X           Y           Z
 ---------------------------------------------------------------------
      1          6           0        0.819111   -0.475144    0.123637
      2          6           0        1.975215    0.331811   -0.104345
      3          8           0        3.087345    0.010191    0.341281
      4          6           0       -0.406935   -0.054982   -0.368912
      5          6           0       -2.599392    1.602955    0.491372
      6          1           0       -3.059073    2.163386    1.305599
      7          1           0       -2.303615    2.295213   -0.295504
      8          1           0       -3.321572    0.895282    0.090655
      9          7           0       -1.417748    0.870608    0.946957
     10          1           0       -0.723259    1.491580    1.346764
     11          1           0       -1.651227    0.177965    1.650229
     12         17           0       -1.630963   -1.269172   -0.812631
     13          1           0       -0.438162    0.752134   -1.086582
     14          6           0        0.971590   -1.704947    0.975764
     15          1           0        0.009055   -2.176149    1.174644
     16          1           0        1.613670   -2.452020    0.500643
     17          1           0        1.431093   -1.462656    1.937378
     18          6           0        1.875967    1.615516   -0.917792
     19          1           0        1.199388    2.337348   -0.455792
     20          1           0        2.866007    2.062187   -0.979937
     21          1           0        1.516210    1.424612   -1.930668
 ---------------------------------------------------------------------

 SCF Done:  E(RwB97XD) =  -826.033405344     A.U. after    1 cycles

 The electronic state is 1-A.
 Alpha  occ. eigenvalues -- -101.69829 -19.19888 -14.49102 -10.38826 -10.34619
 Alpha  occ. eigenvalues --  -10.32095 -10.27166 -10.26655 -10.25808  -9.58420
 Alpha  occ. eigenvalues --   -7.33041  -7.32218  -7.32176  -1.10427  -1.04676
 Alpha  occ. eigenvalues --   -0.96811  -0.88102  -0.82314  -0.79595  -0.77031
 Alpha  occ. eigenvalues --   -0.69598  -0.63873  -0.61227  -0.56540  -0.56172
 Alpha  occ. eigenvalues --   -0.55095  -0.53293  -0.51642  -0.49102  -0.48633
 Alpha  occ. eigenvalues --   -0.48190  -0.47853  -0.46166  -0.45059  -0.43992
 Alpha  occ. eigenvalues --   -0.42166  -0.39876  -0.39025  -0.31673  -0.27023
 Alpha virt. eigenvalues --    0.04981   0.08977   0.09898   0.13126   0.13997
 Alpha virt. eigenvalues --    0.14774   0.15752   0.16616   0.18208   0.18616
 Alpha virt. eigenvalues --    0.19498   0.20296   0.20830   0.21585   0.22394

 Mulliken charges:
               1
     1  C   -0.099193
     2  C    0.222918
     3  O   -0.526506
     4  C   -0.090371
     5  C   -0.274697
     6  H    0.156876
     7  H    0.153263
     8  H    0.149941
     9  N   -0.296300
    10  H    0.280495
    11  H    0.287903
    12  Cl  -0.127114
    13  H    0.187986
    14  C   -0.384178
    15  H    0.122288
    16  H    0.116007
    17  H    0.115494
    18  C   -0.405402
    19  H    0.138347
    20  H    0.124974
    21  H    0.147270
 Sum of Mulliken charges =  -0.00000

 Dipole moment (field-independent basis, Debye):
    X=             -9.4872    Y=              5.0578    Z=              1.6965  Tot=             10.8842
 Quadrupole moment (field-independent basis, Debye-Ang):
   XX=            -79.5930   YY=            -58.4921   ZZ=            -58.8636
   XY=             -3.7218   XZ=             -8.6973   YZ=              0.5811

  Exact polarizability: 193.908  -3.717 129.973   3.088  -0.008 110.436
 Approx polarizability: 145.495  -1.978 106.026   4.281   1.331  95.900

 ******    1 imaginary frequencies (negative Signs) ******

                      1                      2                      3
                      A                      A                      A
 Frequencies --   -380.8346                42.6250                70.0105
 Red. masses --      6.6684                 2.5527                 2.2029
 Frc consts  --      0.5698                 0.0027                 0.0064
 IR Inten    --   1085.0369                 1.4533                 5.6504

                      4                      5                      6
                      A                      A                      A
 Frequencies --    102.5110               115.5405               125.5836
 Red. masses --      2.2149                 1.4849                 1.0747
 Frc consts  --      0.0137                 0.0117                 0.0100
 IR Inten    --      3.7846                 3.2588                 1.3478

                      7                      8                      9
                      A                      A                      A
 Frequencies --    155.3275               166.3718               200.0880
 Red. masses --      2.4065                 1.5322                 3.5514
 Frc consts  --      0.0342                 0.0250                 0.0838
 IR Inten    --      2.5819                 2.3509                15.0903

                     10                     11                     12
                      A                      A                      A
 Frequencies --    217.4248               274.7635               320.0310
 Red. masses --      2.9628                 3.3072                 3.2573
 Frc consts  --      0.0825                 0.1471                 0.1966
 IR Inten    --     11.7858                 2.8856                 9.9621

                     13                     14                     15
                      A                      A                      A
 Frequencies --    375.9951               461.1813               466.2423
 Red. masses --      5.0810                 4.2286                 3.8170
 Frc consts  --      0.4232                 0.5299                 0.4889
 IR Inten    --      2.4918               121.6265                90.2043

                     16                     17                     18
                      A                      A                      A
 Frequencies --    604.7761               630.8971               659.9327
 Red. masses --      3.7796                 2.2257                 1.7321
 Frc consts  --      0.8145                 0.5220                 0.4444
 IR Inten    --     41.7574                21.7938                15.2167

                     19                     20                     21
                      A                      A                      A
 Frequencies --    783.6846               807.2816               948.1460
 Red. masses --      3.1894                 3.3112                 2.1158
 Frc consts  --      1.1541                 1.2714                 1.1207
 IR Inten    --      0.0528               281.1044                14.3724

                     22                     23                     24
                      A                      A                      A
 Frequencies --   1002.3474              1011.2471              1032.2212
 Red. masses --      1.5110                 1.1091                 1.5169
 Frc consts  --      0.8944                 0.6683                 0.9522
 IR Inten    --    332.9984                 5.8032                 9.6911

                     25                     26                     27
                      A                      A                      A
 Frequencies --   1045.8885              1064.0197              1076.8214
 Red. masses --      1.2169                 2.1411                 2.3217
 Frc consts  --      0.7843                 1.4282                 1.5862
 IR Inten    --    106.1808                61.7673               114.7927

                     28                     29                     30
                      A                      A                      A
 Frequencies --   1112.6985              1164.6008              1233.7822
 Red. masses --      2.0897                 1.0924                 1.3901
 Frc consts  --      1.5244                 0.8729                 1.2467
 IR Inten    --     23.0339                53.0202                34.4301

                     31                     32                     33
                      A                      A                      A
 Frequencies --   1290.1966              1341.5399              1374.3617
 Red. masses --      1.3674                 1.3162                 1.4112
 Frc consts  --      1.3411                 1.3956                 1.5705
 IR Inten    --     40.3412                 1.3211               156.6404

                     34                     35                     36
                      A                      A                      A
 Frequencies --   1411.1604              1426.4819              1451.8675
 Red. masses --      1.3460                 2.1866                 2.2889
 Frc consts  --      1.5793                 2.6215                 2.8427
 IR Inten    --     63.0337               524.0614               190.2535

                     37                     38                     39
                      A                      A                      A
 Frequencies --   1461.8596              1470.4296              1474.8829
 Red. masses --      1.2734                 1.0811                 1.0785
 Frc consts  --      1.6034                 1.3773                 1.3822
 IR Inten    --     69.2775                51.9710                28.4613

                     40                     41                     42
                      A                      A                      A
 Frequencies --   1485.3566              1491.8887              1502.7961
 Red. masses --      1.0456                 1.0396                 1.0390
 Frc consts  --      1.3592                 1.3632                 1.3824
 IR Inten    --     17.1927                18.3418                44.2037

                     43                     44                     45
                      A                      A                      A
 Frequencies --   1510.4306              1631.8175              1644.2114
 Red. masses --      1.4255                 7.9110                 1.0962
 Frc consts  --      1.9161                12.4115                 1.7460
 IR Inten    --    390.9650               785.7625                37.4427

                     46                     47                     48
                      A                      A                      A
 Frequencies --   3036.5051              3056.3148              3071.8071
 Red. masses --      1.0390                 1.0377                 1.0338
 Frc consts  --      5.6444                 5.7112                 5.7473
 IR Inten    --     77.6511                10.6313                44.1370

                     49                     50                     51
                      A                      A                      A
 Frequencies --   3085.2487              3124.2930              3133.6004
 Red. masses --      1.1006                 1.1009                 1.0986
 Frc consts  --      6.1724                 6.3313                 6.3560
 IR Inten    --     47.1253                20.8006                27.0541

                     52                     53                     54
                      A                      A                      A
 Frequencies --   3150.0864              3158.6374              3173.5000
 Red. masses --      1.1052                 1.1022                 1.1053
 Frc consts  --      6.4615                 6.4788                 6.5586
 IR Inten    --     14.3984                29.2922                10.3482

                     55                     56                     57
                      A                      A                      A
 Frequencies --   3223.2118              3517.6964              3600.6821
 Red. masses --      1.0916                 1.0509                 1.0967
 Frc consts  --      6.6815                 7.6619                 8.3773
 IR Inten    --      2.5960                26.3385                47.0725

 - Thermochemistry -
 -------------------
 Temperature   298.150 Kelvin.  Pressure   1.00000 Atm.
 Atom     1 has atomic number  6 and mass  12.00000

 Molecular mass:   149.06074 amu.
 Principal axes and moments of inertia in atomic units:
                           1         2         3
     Eigenvalues --  1024.366332117.307682564.68697
           X            0.99862  -0.04745  -0.02261
           Y            0.04569   0.99631  -0.07267
           Z            0.02597   0.07154   0.99710
 This molecule is an asymmetric top.
 Rotational symmetry number  1.
 Warning -- assumption of classical behavior for rotation
           may cause significant error
 Rotational temperatures (Kelvin)      0.08455     0.04091     0.03377
 Rotational constants (GHZ):           1.76181     0.85238     0.70369
    1 imaginary frequencies ignored.
 Zero-point vibrational energy     463989.0 (Joules/Mol)
                                  110.89603 (Kcal/Mol)
 Warning -- explicit consideration of  15 degrees of freedom as
           vibrations may cause significant error
 Vibrational temperatures:     61.33   100.73   147.49   166.24   180.69
          (Kelvin)            223.48   239.37   287.88   312.83   395.32
                              460.45   540.97   663.54   670.82   870.14
                              907.72   949.50  1127.55  1161.50  1364.17
                             1442.15  1454.96  1485.14  1504.80  1530.89
                             1549.31  1600.92  1675.60  1775.14  1856.31
                             1930.18  1977.40  2030.35  2052.39  2088.91
                             2103.29  2115.62  2122.03  2137.10  2146.50
                             2162.19  2173.17  2347.82  2365.65  4368.85
                             4397.36  4419.65  4438.98  4495.16  4508.55
                             4532.27  4544.57  4565.96  4637.48  5061.18
                             5180.58

 Zero-point correction=                           0.176724 (Hartree/Particle)
 Thermal correction to Energy=                    0.188329
 Thermal correction to Enthalpy=                  0.189273
 Thermal correction to Gibbs Free Energy=         0.138385
 Sum of electronic and zero-point Energies=           -825.856681
 Sum of electronic and thermal Energies=              -825.845077
 Sum of electronic and thermal Enthalpies=            -825.844132
 Sum of electronic and thermal Free Energies=         -825.895021

                     E (Thermal)             CV                S
                      KCal/Mol        Cal/Mol-Kelvin    Cal/Mol-Kelvin
 Total                  118.178             39.382            107.103
 Electronic               0.000              0.000              0.000
 Translational            0.889              2.981             40.908
 Rotational               0.889              2.981             30.099
 Vibrational            116.401             33.421             36.097
 Vibration     1          0.595              1.980              5.133
 Vibration     2          0.598              1.968              4.153
 Vibration     3          0.605              1.947              3.406
 Vibration     4          0.608              1.937              3.174
 Vibration     5          0.611              1.927              3.013
 Vibration     6          0.620              1.897              2.606
 Vibration     7          0.624              1.884              2.476
 Vibration     8          0.638              1.840              2.132
 Vibration     9          0.646              1.815              1.980
 Vibration    10          0.677              1.720              1.566
 Vibration    11          0.706              1.635              1.310
 Vibration    12          0.747              1.521              1.055
 Vibration    13          0.819              1.336              0.763
 Vibration    14          0.824              1.325              0.748
 Vibration    15          0.963              1.022              0.442

 Optimization completed.
    -- Stationary point found.
 Normal termination of Gaussian 16 at Wed Feb 24 06:07:42 2021.
