 Gaussian 16, Revision A.03,
 Gaussian 16:  ES64L-G16RevA.03 25-Dec-2016

 ----------------------------------------------------------------------
 # wB97XD def2tzvp, opt=(ts, noeigen, calcfc, maxcycles=70, maxstep=1),
  freq=noraman, scrf=(iefpcm, solvent=water)
 ----------------------------------------------------------------------

 ------------------------
 0_iteration/TS-809-0.out
 ------------------------
 Symbolic Z-matrix:
 Charge =  0 Multiplicity = 1

 SCF Done:  E(RwB97XD) =  -978.442872087     A.U. after   15 cycles
 SCF Done:  E(RwB97XD) =  -978.442843644     A.U. after   11 cycles
 SCF Done:  E(RwB97XD) =  -978.442823521     A.U. after   11 cycles
 SCF Done:  E(RwB97XD) =  -978.442817689     A.U. after   12 cycles
 SCF Done:  E(RwB97XD) =  -978.442821618     A.U. after   12 cycles
 SCF Done:  E(RwB97XD) =  -978.442842286     A.U. after   11 cycles
 SCF Done:  E(RwB97XD) =  -978.442865926     A.U. after   11 cycles
 SCF Done:  E(RwB97XD) =  -978.442888019     A.U. after   11 cycles
 SCF Done:  E(RwB97XD) =  -978.442907540     A.U. after   11 cycles
 SCF Done:  E(RwB97XD) =  -978.442923490     A.U. after   11 cycles
 SCF Done:  E(RwB97XD) =  -978.442973363     A.U. after   10 cycles
 SCF Done:  E(RwB97XD) =  -978.442973237     A.U. after   10 cycles
 SCF Done:  E(RwB97XD) =  -978.442974233     A.U. after   10 cycles
 SCF Done:  E(RwB97XD) =  -978.442973180     A.U. after   11 cycles
 SCF Done:  E(RwB97XD) =  -978.442969341     A.U. after   10 cycles
 SCF Done:  E(RwB97XD) =  -978.442974601     A.U. after   11 cycles
 SCF Done:  E(RwB97XD) =  -978.442970667     A.U. after   10 cycles
 SCF Done:  E(RwB97XD) =  -978.442974951     A.U. after   10 cycles
 SCF Done:  E(RwB97XD) =  -978.442974989     A.U. after    9 cycles
 Optimization completed on the basis of negligible forces.
    -- Stationary point found.
 Normal termination of Gaussian 16 at Wed Feb 24 06:38:13 2021.

 ---------------------------------------------------------------------
 #N Geom=AllCheck Guess=TCheck SCRF=Check GenChk RwB97XD/def2TZVP Freq
 ---------------------------------------------------------------------

 Structure from the checkpoint file:  "/beegfs/scratch/user/q/tla25/Gau-11247.chk"
 ------------------------
 0_iteration/TS-809-0.out
 ------------------------
 Charge =  0 Multiplicity = 1

                         Standard orientation:
 ---------------------------------------------------------------------
 Center     Atomic      Atomic             Coordinates (Angstroms)
 Number     Number       Type             X           Y           Z
 ---------------------------------------------------------------------
      1          6           0        1.556516    0.525497   -0.775028
      2          6           0        1.174398    1.865709   -0.986489
      3          8           0        1.895691    2.748046   -1.469028
      4          6           0        0.734183   -0.446138   -0.193599
      5          6           0        2.185596    0.218164    2.106948
      6          1           0        1.683131    1.183065    2.098712
      7          1           0        2.488431   -0.026259    3.124136
      8          1           0        3.063879    0.282979    1.469325
      9          7           0        1.291939   -0.807759    1.579244
     10          1           0        1.758729   -1.706379    1.536828
     11          1           0        0.464558   -0.922577    2.155281
     12         17           0        1.066657   -2.112901   -0.811291
     13          6           0       -0.735401   -0.184773   -0.010148
     14          6           0       -1.666994   -0.732529   -0.886484
     15          6           0       -3.014001   -0.431947   -0.760781
     16          6           0       -3.451888    0.417479    0.244023
     17          6           0       -2.530624    0.970913    1.119309
     18          6           0       -1.183155    0.673662    0.991291
     19          1           0       -1.340178   -1.395245   -1.675700
     20          1           0       -3.723272   -0.867002   -1.452970
     21          1           0       -4.504811    0.647136    0.343939
     22          1           0       -2.856681    1.639509    1.905291
     23          1           0       -0.482017    1.134942    1.673787
     24          1           0        2.558855    0.237518   -1.068826
     25          1           0        0.135352    2.125349   -0.714597
 ---------------------------------------------------------------------

 SCF Done:  E(RwB97XD) =  -978.442974989     A.U. after    1 cycles

 The electronic state is 1-A.
 Alpha  occ. eigenvalues -- -101.69974 -19.20216 -14.50135 -10.41396 -10.34184
 Alpha  occ. eigenvalues --  -10.32354 -10.31926 -10.30340 -10.30001 -10.29813
 Alpha  occ. eigenvalues --  -10.29740 -10.29682 -10.25753  -9.58587  -7.33210
 Alpha  occ. eigenvalues --   -7.32378  -7.32341  -1.10299  -1.05875  -0.99096
 Alpha  occ. eigenvalues --   -0.96130  -0.88441  -0.86098  -0.84481  -0.79897
 Alpha  occ. eigenvalues --   -0.74341  -0.71597  -0.69390  -0.65690  -0.63806
 Alpha  occ. eigenvalues --   -0.60595  -0.58619  -0.57430  -0.56242  -0.56102
 Alpha  occ. eigenvalues --   -0.53364  -0.52826  -0.51733  -0.49359  -0.48716
 Alpha  occ. eigenvalues --   -0.48080  -0.47470  -0.46526  -0.45294  -0.43752
 Alpha  occ. eigenvalues --   -0.43578  -0.40667  -0.39583  -0.34919  -0.34512
 Alpha  occ. eigenvalues --   -0.31626  -0.28599
 Alpha virt. eigenvalues --    0.02155   0.04377   0.05475   0.08565   0.10761
 Alpha virt. eigenvalues --    0.12908   0.14098   0.14201   0.14589   0.16390
 Alpha virt. eigenvalues --    0.16865   0.17312   0.17921   0.19347   0.19951

 Mulliken charges:
               1
     1  C   -0.412683
     2  C    0.144573
     3  O   -0.525016
     4  C    0.326719
     5  C   -0.281639
     6  H    0.154144
     7  H    0.170048
     8  H    0.159792
     9  N   -0.304035
    10  H    0.282011
    11  H    0.296600
    12  Cl  -0.138235
    13  C    0.096537
    14  C   -0.245938
    15  C   -0.126726
    16  C   -0.147092
    17  C   -0.144134
    18  C   -0.285316
    19  H    0.148480
    20  H    0.148696
    21  H    0.148973
    22  H    0.148593
    23  H    0.165931
    24  H    0.135677
    25  H    0.084038
 Sum of Mulliken charges =  -0.00000

 Dipole moment (field-independent basis, Debye):
    X=             -3.1512    Y=             -6.2996    Z=              9.0935  Tot=             11.5025
 Quadrupole moment (field-independent basis, Debye-Ang):
   XX=            -78.7746   YY=           -101.2187   ZZ=            -78.2059
   XY=            -15.7339   XZ=             15.6559   YZ=              9.8395

  Exact polarizability: 215.963   2.003 206.885  -3.781   2.034 186.721
 Approx polarizability: 170.857   1.211 171.549  -2.417   6.040 157.992

 ******    1 imaginary frequencies (negative Signs) ******

                      1                      2                      3
                      A                      A                      A
 Frequencies --   -328.6101                29.4760                71.8505
 Red. masses --      5.4091                 3.1630                 5.4910
 Frc consts  --      0.3441                 0.0016                 0.0167
 IR Inten    --    746.9201                 5.2348                 2.3352

                      4                      5                      6
                      A                      A                      A
 Frequencies --     90.9018               101.9937               133.3112
 Red. masses --      4.8470                 2.8841                 1.2274
 Frc consts  --      0.0236                 0.0177                 0.0129
 IR Inten    --      4.2298                 3.1571                 1.4096

                      7                      8                      9
                      A                      A                      A
 Frequencies --    175.9718               187.1990               222.8508
 Red. masses --      3.4357                 5.1776                 2.2928
 Frc consts  --      0.0627                 0.1069                 0.0671
 IR Inten    --      2.4505                 9.8741                 9.6672

                     10                     11                     12
                      A                      A                      A
 Frequencies --    255.6322               292.1387               315.2087
 Red. masses --      3.6086                 4.0262                 4.9287
 Frc consts  --      0.1389                 0.2025                 0.2885
 IR Inten    --      0.5035                 4.1843                 1.3131

                     13                     14                     15
                      A                      A                      A
 Frequencies --    322.3357               368.2826               389.5400
 Red. masses --      3.8364                 5.3306                 8.9128
 Frc consts  --      0.2348                 0.4260                 0.7968
 IR Inten    --     56.0855                 4.2430                41.9484

                     16                     17                     18
                      A                      A                      A
 Frequencies --    422.1045               505.8098               594.0022
 Red. masses --      2.9283                 4.4162                 3.7923
 Frc consts  --      0.3074                 0.6657                 0.7884
 IR Inten    --      0.6984                34.7997                41.1435

                     19                     20                     21
                      A                      A                      A
 Frequencies --    606.0550               638.5833               697.6525
 Red. masses --      3.7038                 6.2559                 1.6050
 Frc consts  --      0.8015                 1.5031                 0.4603
 IR Inten    --    144.3190                17.2363                29.0780

                     22                     23                     24
                      A                      A                      A
 Frequencies --    728.6827               753.3357               798.4318
 Red. masses --      1.6731                 3.1542                 1.5206
 Frc consts  --      0.5234                 1.0547                 0.5711
 IR Inten    --     73.3299               161.0519                87.4286

                     25                     26                     27
                      A                      A                      A
 Frequencies --    813.2643               869.1274               878.8662
 Red. masses --      2.0462                 3.7494                 1.2591
 Frc consts  --      0.7974                 1.6687                 0.5730
 IR Inten    --     45.3680               218.0128                 4.8329

                     28                     29                     30
                      A                      A                      A
 Frequencies --    968.0016              1010.6463              1016.3141
 Red. masses --      1.4294                 1.1180                 1.3655
 Frc consts  --      0.7892                 0.6728                 0.8310
 IR Inten    --      4.2963                11.9817                 0.3346

                     31                     32                     33
                      A                      A                      A
 Frequencies --   1027.4875              1035.3152              1038.6219
 Red. masses --      5.0923                 1.3178                 1.6100
 Frc consts  --      3.1675                 0.8323                 1.0233
 IR Inten    --      1.7234                 0.1506                 4.6303

                     34                     35                     36
                      A                      A                      A
 Frequencies --   1054.1414              1065.7253              1077.0888
 Red. masses --      1.1646                 2.4520                 4.6127
 Frc consts  --      0.7625                 1.6408                 3.1529
 IR Inten    --     87.6200                18.2647                51.7394

                     37                     38                     39
                      A                      A                      A
 Frequencies --   1128.1663              1161.4110              1188.7402
 Red. masses --      1.5775                 2.5702                 1.1322
 Frc consts  --      1.1830                 2.0426                 0.9426
 IR Inten    --      4.4531               155.2059                 0.1817

                     40                     41                     42
                      A                      A                      A
 Frequencies --   1224.6254              1230.6889              1240.5171
 Red. masses --      1.1580                 2.1443                 1.3769
 Frc consts  --      1.0232                 1.9135                 1.2484
 IR Inten    --      9.9348               241.3820                59.8543

                     43                     44                     45
                      A                      A                      A
 Frequencies --   1322.2938              1336.6574              1349.8246
 Red. masses --      4.0858                 1.7336                 1.4914
 Frc consts  --      4.2090                 1.8249                 1.6010
 IR Inten    --     12.8082                47.6888                44.2657

                     46                     47                     48
                      A                      A                      A
 Frequencies --   1369.7471              1381.1942              1456.7641
 Red. masses --      1.4595                 1.9705                 1.1893
 Frc consts  --      1.6134                 2.2148                 1.4870
 IR Inten    --     31.4643               574.1988                 4.2360

                     49                     50                     51
                      A                      A                      A
 Frequencies --   1485.1849              1491.5438              1495.2132
 Red. masses --      2.1682                 1.0451                 2.2353
 Frc consts  --      2.8178                 1.3699                 2.9443
 IR Inten    --    117.0994                27.0995               118.5492

                     52                     53                     54
                      A                      A                      A
 Frequencies --   1496.7902              1548.9132              1648.1961
 Red. masses --      1.1063                 2.2929                 1.1492
 Frc consts  --      1.4603                 3.2410                 1.8393
 IR Inten    --      6.2742                25.9428                 4.4698

                     55                     56                     57
                      A                      A                      A
 Frequencies --   1653.1358              1653.7367              1676.3274
 Red. masses --      4.5115                 5.6558                 5.7052
 Frc consts  --      7.2642                 9.1134                 9.4458
 IR Inten    --    841.6763               508.0071                 1.4581

                     58                     59                     60
                      A                      A                      A
 Frequencies --   2951.5329              3083.5791              3167.3926
 Red. masses --      1.0816                 1.0335                 1.1050
 Frc consts  --      5.5517                 5.7899                 6.5317
 IR Inten    --    129.1743                18.8220                 7.1633

                     61                     62                     63
                      A                      A                      A
 Frequencies --   3181.6556              3190.6093              3201.9093
 Red. masses --      1.1053                 1.0885                 1.0863
 Frc consts  --      6.5925                 6.5288                 6.5620
 IR Inten    --      8.0728                10.2523                 0.3585

                     64                     65                     66
                      A                      A                      A
 Frequencies --   3210.5208              3219.3519              3227.8952
 Red. masses --      1.0893                 1.0929                 1.0953
 Frc consts  --      6.6150                 6.6734                 6.7239
 IR Inten    --      5.1740                20.5779                16.6152

                     67                     68                     69
                      A                      A                      A
 Frequencies --   3232.9281              3518.6470              3598.6457
 Red. masses --      1.0961                 1.0517                 1.0959
 Frc consts  --      6.7497                 7.6714                 8.3617
 IR Inten    --      4.3308                75.4422                64.6626

 - Thermochemistry -
 -------------------
 Temperature   298.150 Kelvin.  Pressure   1.00000 Atm.
 Atom     1 has atomic number  6 and mass  12.00000

 Molecular mass:   197.06074 amu.
 Principal axes and moments of inertia in atomic units:
                           1         2         3
     Eigenvalues --  2226.579323334.721383815.50033
           X            0.99925  -0.00345   0.03849
           Y            0.00238   0.99961   0.02792
           Z           -0.03857  -0.02780   0.99887
 This molecule is an asymmetric top.
 Rotational symmetry number  1.
 Warning -- assumption of classical behavior for rotation
           may cause significant error
 Rotational temperatures (Kelvin)      0.03890     0.02597     0.02270
 Rotational constants (GHZ):           0.81054     0.54120     0.47300
    1 imaginary frequencies ignored.
 Zero-point vibrational energy     531622.2 (Joules/Mol)
                                  127.06075 (Kcal/Mol)
 Warning -- explicit consideration of  18 degrees of freedom as
           vibrations may cause significant error
 Vibrational temperatures:     42.41   103.38   130.79   146.75   191.81
          (Kelvin)            253.18   269.34   320.63   367.80   420.32
                              453.51   463.77   529.88   560.46   607.31
                              727.75   854.64   871.98   918.78  1003.77
                             1048.41  1083.88  1148.77  1170.11  1250.48
                             1264.49  1392.74  1454.09  1462.25  1478.33
                             1489.59  1494.35  1516.67  1533.34  1549.69
                             1623.18  1671.01  1710.33  1761.96  1770.69
                             1784.83  1902.49  1923.15  1942.10  1970.76
                             1987.23  2095.96  2136.85  2146.00  2151.28
                             2153.55  2228.54  2371.39  2378.49  2379.36
                             2411.86  4246.60  4436.58  4557.17  4577.69
                             4590.58  4606.83  4619.22  4631.93  4644.22
                             4651.46  5062.55  5177.65

 Zero-point correction=                           0.202484 (Hartree/Particle)
 Thermal correction to Energy=                    0.215244
 Thermal correction to Enthalpy=                  0.216189
 Thermal correction to Gibbs Free Energy=         0.162317
 Sum of electronic and zero-point Energies=           -978.240491
 Sum of electronic and thermal Energies=              -978.227731
 Sum of electronic and thermal Enthalpies=            -978.226786
 Sum of electronic and thermal Free Energies=         -978.280658

                     E (Thermal)             CV                S
                      KCal/Mol        Cal/Mol-Kelvin    Cal/Mol-Kelvin
 Total                  135.068             46.994            113.383
 Electronic               0.000              0.000              0.000
 Translational            0.889              2.981             41.740
 Rotational               0.889              2.981             31.716
 Vibrational            133.290             41.032             39.926
 Vibration     1          0.593              1.984              5.864
 Vibration     2          0.598              1.967              4.102
 Vibration     3          0.602              1.956              3.641
 Vibration     4          0.604              1.948              3.416
 Vibration     5          0.613              1.920              2.898
 Vibration     6          0.628              1.872              2.371
 Vibration     7          0.632              1.857              2.255
 Vibration     8          0.649              1.806              1.936
 Vibration     9          0.666              1.753              1.691
 Vibration    10          0.688              1.688              1.462
 Vibration    11          0.703              1.645              1.335
 Vibration    12          0.707              1.631              1.298
 Vibration    13          0.741              1.537              1.087
 Vibration    14          0.757              1.493              1.002
 Vibration    15          0.784              1.422              0.885
 Vibration    16          0.861              1.237              0.644
 Vibration    17          0.952              1.045              0.460
 Vibration    18          0.965              1.019              0.439

 Optimization completed on the basis of negligible forces.
    -- Stationary point found.
 Normal termination of Gaussian 16 at Wed Feb 24 07:16:08 2021.
