 Gaussian 16, Revision A.03,
 Gaussian 16:  ES64L-G16RevA.03 25-Dec-2016

 ----------------------------------------------------------------------
 # wB97XD def2tzvp, opt=(ts, noeigen, calcfc, maxcycles=70, maxstep=5),
  freq=noraman, scrf=(iefpcm, solvent=water)
 ----------------------------------------------------------------------

 ------------------------
 2_iteration/TS-834-2.out
 ------------------------
 Symbolic Z-matrix:
 Charge =  0 Multiplicity = 1

 SCF Done:  E(RwB97XD) =  -1477.37033625     A.U. after   15 cycles
 Optimization completed.
    -- Stationary point found.
 Normal termination of Gaussian 16 at Fri Feb 26 07:24:55 2021.

 ---------------------------------------------------------------------
 #N Geom=AllCheck Guess=TCheck SCRF=Check GenChk RwB97XD/def2TZVP Freq
 ---------------------------------------------------------------------

 Structure from the checkpoint file:  "/beegfs/scratch/user/q/tla25/Gau-96078.chk"
 ------------------------
 2_iteration/TS-834-2.out
 ------------------------
 Charge =  0 Multiplicity = 1

                         Standard orientation:
 ---------------------------------------------------------------------
 Center     Atomic      Atomic             Coordinates (Angstroms)
 Number     Number       Type             X           Y           Z
 ---------------------------------------------------------------------
      1          6           0        1.258110    0.354448   -0.225479
      2          6           0        1.132412    1.684489    0.319191
      3          8           0        0.127153    2.067240    0.917141
      4          6           0        0.242519   -0.600060   -0.199579
      5          6           0        0.842648   -0.957761    2.573791
      6          1           0        1.323648   -1.577052    3.330331
      7          1           0        1.511170   -0.139282    2.306771
      8          1           0       -0.077861   -0.541370    2.974861
      9          7           0        0.556947   -1.724731    1.366211
     10          1           0        1.384787   -2.221652    1.056541
     11          1           0       -0.171084   -2.417830    1.499211
     12         17           0        0.377197   -1.948510   -1.371989
     13          6           0       -1.195080   -0.163888   -0.128489
     14          6           0       -1.647559    0.635972   -1.178489
     15          6           0       -2.965289    1.048274   -1.236649
     16          6           0       -3.861229    0.663685   -0.247359
     17          6           0       -3.422370   -0.140225    0.790131
     18          6           0       -2.098981   -0.557687    0.846921
     19          1           0       -0.951469    0.940241   -1.949549
     20          1           0       -3.294298    1.672865   -2.057309
     21          1           0       -4.893519    0.986387   -0.289319
     22          1           0       -4.109171   -0.451194    1.566781
     23          1           0       -1.801502   -1.179577    1.676761
     24         17           0        2.855810   -0.158674   -0.748459
     25          6           0        2.291133    2.641507    0.139391
     26          1           0        2.631963    2.675706   -0.895729
     27          1           0        1.971785    3.631057    0.458651
     28          1           0        3.140703    2.326506    0.748741
 ---------------------------------------------------------------------

 SCF Done:  E(RwB97XD) =  -1477.37033625     A.U. after    1 cycles

 The electronic state is 1-A.
 Alpha  occ. eigenvalues -- -101.70427-101.69285 -19.21395 -14.49274 -10.41585
 Alpha  occ. eigenvalues --  -10.36719 -10.31965 -10.31941 -10.31825 -10.29919
 Alpha  occ. eigenvalues --  -10.29552 -10.29459 -10.29386 -10.29326 -10.27453
 Alpha  occ. eigenvalues --   -9.59017  -9.57826  -7.33665  -7.32804  -7.32752
 Alpha  occ. eigenvalues --   -7.32456  -7.31615  -7.31597  -1.12477  -1.05149
 Alpha  occ. eigenvalues --   -0.99899  -0.96945  -0.94565  -0.87735  -0.85791
 Alpha  occ. eigenvalues --   -0.83919  -0.81851  -0.79382  -0.73130  -0.71241
 Alpha  occ. eigenvalues --   -0.68913  -0.65116  -0.62189  -0.59302  -0.58283
 Alpha  occ. eigenvalues --   -0.57112  -0.56406  -0.54992  -0.54363  -0.53348
 Alpha  occ. eigenvalues --   -0.51975  -0.51343  -0.50731  -0.49219  -0.48307
 Alpha  occ. eigenvalues --   -0.47215  -0.46845  -0.46732  -0.44550  -0.43921
 Alpha  occ. eigenvalues --   -0.43376  -0.42408  -0.41346  -0.39508  -0.38939
 Alpha  occ. eigenvalues --   -0.34899  -0.34190  -0.31671  -0.28434
 Alpha virt. eigenvalues --    0.02681   0.03074   0.04868   0.08346   0.10338
 Alpha virt. eigenvalues --    0.12549   0.12949   0.13707   0.14207   0.15243
 Alpha virt. eigenvalues --    0.15956   0.16759   0.17869   0.18552   0.18963

 Mulliken charges:
               1
     1  C   -0.234171
     2  C    0.286883
     3  O   -0.480267
     4  C    0.215979
     5  C   -0.277752
     6  H    0.162317
     7  H    0.154376
     8  H    0.153443
     9  N   -0.353709
    10  H    0.282961
    11  H    0.291016
    12  Cl  -0.098494
    13  C    0.259088
    14  C   -0.321479
    15  C   -0.111496
    16  C   -0.156752
    17  C   -0.157720
    18  C   -0.222098
    19  H    0.154320
    20  H    0.145840
    21  H    0.146129
    22  H    0.145514
    23  H    0.138224
    24  Cl  -0.150627
    25  C   -0.386638
    26  H    0.142385
    27  H    0.127754
    28  H    0.144976
 Sum of Mulliken charges =  -0.00000

 Dipole moment (field-independent basis, Debye):
    X=             -0.5924    Y=             -5.0828    Z=              3.5579  Tot=              6.2325
 Quadrupole moment (field-independent basis, Debye-Ang):
   XX=            -96.2312   YY=           -100.4227   ZZ=            -94.8807
   XY=             -0.0514   XZ=              4.3523   YZ=            -16.1477

  Exact polarizability: 258.458  -5.376 230.663 -16.439 -14.958 210.473
 Approx polarizability: 205.438  -8.272 189.639 -14.879 -11.604 183.202

 ******    1 imaginary frequencies (negative Signs) ******

                      1                      2                      3
                      A                      A                      A
 Frequencies --   -341.9308                42.3819                58.7269
 Red. masses --      5.3566                 3.6183                 8.8488
 Frc consts  --      0.3690                 0.0038                 0.0180
 IR Inten    --    632.7671                 0.5059                 0.4479

                      4                      5                      6
                      A                      A                      A
 Frequencies --     64.7487                87.8155               122.7750
 Red. masses --      3.6711                 5.0864                 3.3802
 Frc consts  --      0.0091                 0.0231                 0.0300
 IR Inten    --      2.5207                 5.4678                 3.2399

                      7                      8                      9
                      A                      A                      A
 Frequencies --    133.1847               158.0508               169.6039
 Red. masses --      4.4588                 1.1125                 1.4085
 Frc consts  --      0.0466                 0.0164                 0.0239
 IR Inten    --      6.9825                 0.7810                 4.6507

                     10                     11                     12
                      A                      A                      A
 Frequencies --    190.3436               207.0665               226.9457
 Red. masses --      5.2271                 6.1500                 3.8569
 Frc consts  --      0.1116                 0.1554                 0.1170
 IR Inten    --      9.6197                 1.8942                 2.6315

                     13                     14                     15
                      A                      A                      A
 Frequencies --    248.3684               278.7273               292.5388
 Red. masses --      2.9768                 5.3368                 4.2698
 Frc consts  --      0.1082                 0.2443                 0.2153
 IR Inten    --      4.1251                 5.5675                 1.7742

                     16                     17                     18
                      A                      A                      A
 Frequencies --    322.5513               347.3305               385.1599
 Red. masses --      3.5758                 4.9434                 8.2369
 Frc consts  --      0.2192                 0.3514                 0.7199
 IR Inten    --     24.6027                24.7393                20.6471

                     19                     20                     21
                      A                      A                      A
 Frequencies --    422.1525               458.7473               525.0799
 Red. masses --      2.8894                 8.0161                 3.8840
 Frc consts  --      0.3034                 0.9939                 0.6309
 IR Inten    --      0.1072                 4.9281                21.0401

                     22                     23                     24
                      A                      A                      A
 Frequencies --    538.3378               566.8904               612.0977
 Red. masses --      3.9227                 2.6842                 2.4266
 Frc consts  --      0.6698                 0.5082                 0.5357
 IR Inten    --    127.8379                30.5608                54.2740

                     25                     26                     27
                      A                      A                      A
 Frequencies --    636.6570               657.2533               687.2934
 Red. masses --      5.9796                 5.3705                 2.2142
 Frc consts  --      1.4280                 1.3669                 0.6162
 IR Inten    --      6.0463               100.8828                37.4370

                     28                     29                     30
                      A                      A                      A
 Frequencies --    721.5033               757.9502               821.6912
 Red. masses --      1.7309                 2.4412                 3.1060
 Frc consts  --      0.5309                 0.8263                 1.2356
 IR Inten    --     55.4871               199.6783                12.0798

                     31                     32                     33
                      A                      A                      A
 Frequencies --    868.4055               879.9508               951.7720
 Red. masses --      1.2662                 5.1780                 1.4731
 Frc consts  --      0.5626                 2.3623                 0.7862
 IR Inten    --      1.8214               107.7427                 0.9549

                     34                     35                     36
                      A                      A                      A
 Frequencies --    989.6239               999.3187              1010.7910
 Red. masses --      1.6563                 1.3698                 1.3577
 Frc consts  --      0.9557                 0.8060                 0.8173
 IR Inten    --     31.9190                14.1135                 1.1255

                     37                     38                     39
                      A                      A                      A
 Frequencies --   1025.5892              1029.9678              1032.5238
 Red. masses --      5.5522                 1.3462                 2.1653
 Frc consts  --      3.4408                 0.8414                 1.3601
 IR Inten    --      0.8871                 0.9968                23.5033

                     40                     41                     42
                      A                      A                      A
 Frequencies --   1043.7107              1062.4101              1070.0478
 Red. masses --      1.8246                 1.4699                 1.7886
 Frc consts  --      1.1710                 0.9775                 1.2066
 IR Inten    --     18.1541                52.3422                26.7855

                     43                     44                     45
                      A                      A                      A
 Frequencies --   1077.8261              1127.3412              1186.6487
 Red. masses --      4.9830                 1.5770                 1.1543
 Frc consts  --      3.4107                 1.1808                 0.9577
 IR Inten    --     42.1445                 9.0357                 2.2868

                     46                     47                     48
                      A                      A                      A
 Frequencies --   1199.2054              1221.6513              1229.8346
 Red. masses --      3.6655                 1.1414                 1.3873
 Frc consts  --      3.1058                 1.0036                 1.2363
 IR Inten    --    142.4580                 2.3738                17.1460

                     49                     50                     51
                      A                      A                      A
 Frequencies --   1302.6042              1321.9312              1341.7694
 Red. masses --      4.4364                 4.2813                 1.3351
 Frc consts  --      4.4351                 4.4080                 1.4162
 IR Inten    --    173.5475               157.3432                20.2807

                     52                     53                     54
                      A                      A                      A
 Frequencies --   1364.6091              1383.8261              1406.0529
 Red. masses --      1.4271                 1.6945                 3.1987
 Frc consts  --      1.5657                 1.9119                 3.7259
 IR Inten    --      4.7510                81.0169               913.9227

                     55                     56                     57
                      A                      A                      A
 Frequencies --   1456.9143              1468.2461              1474.8901
 Red. masses --      1.0709                 1.0546                 1.2213
 Frc consts  --      1.3393                 1.3395                 1.5653
 IR Inten    --     37.6094                17.9710                14.9749

                     58                     59                     60
                      A                      A                      A
 Frequencies --   1490.2519              1490.9685              1511.9079
 Red. masses --      1.2946                 1.5470                 1.0342
 Frc consts  --      1.6940                 2.0262                 1.3929
 IR Inten    --     42.1058                 4.6498                16.0406

                     61                     62                     63
                      A                      A                      A
 Frequencies --   1544.7426              1646.7095              1656.7211
 Red. masses --      2.3139                 1.3946                 2.7210
 Frc consts  --      3.2531                 2.2282                 4.4002
 IR Inten    --     29.0734                87.2071                 9.5786

                     64                     65                     66
                      A                      A                      A
 Frequencies --   1675.5561              1677.7682              3063.9842
 Red. masses --      5.7049                 9.8704                 1.0366
 Frc consts  --      9.4367                16.3700                 5.7338
 IR Inten    --     14.4488               393.3897                 6.8972

                     67                     68                     69
                      A                      A                      A
 Frequencies --   3074.0411              3135.5618              3149.1599
 Red. masses --      1.0334                 1.0995                 1.1045
 Frc consts  --      5.7536                 6.3691                 6.4537
 IR Inten    --     30.3730                11.0162                 8.4453

                     70                     71                     72
                      A                      A                      A
 Frequencies --   3168.3978              3176.9186              3199.1675
 Red. masses --      1.1043                 1.1049                 1.0862
 Frc consts  --      6.5314                 6.5705                 6.5497
 IR Inten    --     23.5270                13.5438                 0.4947

                     73                     74                     75
                      A                      A                      A
 Frequencies --   3206.7770              3215.5378              3224.8897
 Red. masses --      1.0893                 1.0939                 1.0982
 Frc consts  --      6.6001                 6.6639                 6.7293
 IR Inten    --      3.8915                21.8814                20.8339

                     76                     77                     78
                      A                      A                      A
 Frequencies --   3255.4279              3523.4695              3600.0687
 Red. masses --      1.0913                 1.0514                 1.0954
 Frc consts  --      6.8143                 7.6907                 8.3643
 IR Inten    --     16.3936                54.0979                52.2648

 - Thermochemistry -
 -------------------
 Temperature   298.150 Kelvin.  Pressure   1.00000 Atm.
 Atom     1 has atomic number  6 and mass  12.00000

 Molecular mass:   245.03742 amu.
 Principal axes and moments of inertia in atomic units:
                           1         2         3
     Eigenvalues --  2691.373224682.368235239.20417
           X            0.99965   0.02149   0.01528
           Y           -0.01905   0.98918  -0.14544
           Z           -0.01824   0.14510   0.98925
 This molecule is an asymmetric top.
 Rotational symmetry number  1.
 Warning -- assumption of classical behavior for rotation
           may cause significant error
 Rotational temperatures (Kelvin)      0.03218     0.01850     0.01653
 Rotational constants (GHZ):           0.67057     0.38543     0.34447
    1 imaginary frequencies ignored.
 Zero-point vibrational energy     579934.4 (Joules/Mol)
                                  138.60765 (Kcal/Mol)
 Warning -- explicit consideration of  23 degrees of freedom as
           vibrations may cause significant error
 Vibrational temperatures:     60.98    84.49    93.16   126.35   176.65
          (Kelvin)            191.62   227.40   244.02   273.86   297.92
                              326.52   357.35   401.03   420.90   464.08
                              499.73   554.16   607.38   660.04   755.47
                              774.55   815.63   880.67   916.01   945.64
                              988.86  1038.08  1090.52  1182.23  1249.44
                             1266.05  1369.39  1423.85  1437.80  1454.30
                             1475.59  1481.89  1485.57  1501.67  1528.57
                             1539.56  1550.75  1621.99  1707.32  1725.39
                             1757.68  1769.46  1874.16  1901.96  1930.51
                             1963.37  1991.02  2023.00  2096.17  2112.48
                             2122.04  2144.14  2145.17  2175.30  2222.54
                             2369.25  2383.65  2410.75  2413.93  4408.39
                             4422.86  4511.37  4530.94  4558.62  4570.88
                             4602.89  4613.84  4626.44  4639.90  4683.83
                             5069.49  5179.70

 Zero-point correction=                           0.220885 (Hartree/Particle)
 Thermal correction to Energy=                    0.236259
 Thermal correction to Enthalpy=                  0.237203
 Thermal correction to Gibbs Free Energy=         0.177689
 Sum of electronic and zero-point Energies=          -1477.149451
 Sum of electronic and thermal Energies=             -1477.134077
 Sum of electronic and thermal Enthalpies=           -1477.133133
 Sum of electronic and thermal Free Energies=        -1477.192648

                     E (Thermal)             CV                S
                      KCal/Mol        Cal/Mol-Kelvin    Cal/Mol-Kelvin
 Total                  148.255             56.353            125.259
 Electronic               0.000              0.000              0.000
 Translational            0.889              2.981             42.390
 Rotational               0.889              2.981             32.557
 Vibrational            146.477             50.391             50.313
 Vibration     1          0.595              1.980              5.145
 Vibration     2          0.596              1.974              4.500
 Vibration     3          0.597              1.971              4.307
 Vibration     4          0.601              1.958              3.708
 Vibration     5          0.610              1.930              3.056
 Vibration     6          0.613              1.920              2.900
 Vibration     7          0.621              1.894              2.573
 Vibration     8          0.625              1.880              2.440
 Vibration     9          0.634              1.853              2.224
 Vibration    10          0.641              1.830              2.069
 Vibration    11          0.651              1.800              1.903
 Vibration    12          0.662              1.765              1.742
 Vibration    13          0.679              1.713              1.541
 Vibration    14          0.688              1.688              1.459
 Vibration    15          0.708              1.630              1.297
 Vibration    16          0.725              1.581              1.178
 Vibration    17          0.754              1.502              1.019
 Vibration    18          0.784              1.422              0.885
 Vibration    19          0.817              1.342              0.770
 Vibration    20          0.880              1.194              0.598
 Vibration    21          0.893              1.165              0.569
 Vibration    22          0.923              1.103              0.510
 Vibration    23          0.971              1.006              0.429

 Optimization completed.
    -- Stationary point found.
 Normal termination of Gaussian 16 at Fri Feb 26 08:22:59 2021.
